phonopy:
  version: "2.37.1"
  frequency_unit_conversion_factor: 15.633302
  symmetry_tolerance: 1.00000e-05

space_group:
  type: "I4/mmm"
  number: 139
  Hall_symbol: "-I 4 2"

primitive_matrix:
- [ -1.000000000000000,  0.000000000000000,  0.000000000000000 ]
- [ -1.000000000000000,  0.000000000000000,  1.000000000000000 ]
- [ -1.000000000000000,  1.000000000000000,  0.000000000000000 ]

supercell_matrix:
- [   2,   0,   0 ]
- [   0,   2,   0 ]
- [   0,   0,   2 ]

primitive_cell:
  lattice:
  - [    -2.908514406707980,    -2.556703528773902,    -3.404079754124800 ] # a
  - [    -2.908514280354900,    -2.556704081117510,     3.404079754124800 ] # b
  - [     0.661066278349820,     5.113407609891412,     0.000000000000000 ] # c
  points:
  - symbol: Li # 1
    coordinates: [  0.249999994307233,  0.750000005394961,  0.500000012515138 ]
    mass: 6.940000
  - symbol: Li # 2
    coordinates: [  0.749999985143497,  0.249999966482957,  0.499999961740885 ]
    mass: 6.940000
  - symbol: Li # 3
    coordinates: [  0.643982018112136,  0.643982023357473,  0.999999990907850 ]
    mass: 6.940000
  - symbol: Li # 4
    coordinates: [  0.356017995024982,  0.356018004035411,  0.000000024012963 ]
    mass: 6.940000
  - symbol: Sn # 5
    coordinates: [  0.000000007340407,  0.999999999086518,  0.000000010193196 ]
    mass: 118.710000
  reciprocal_lattice: # without 2pi
  - [    -0.193950211566729,     0.025074070820711,    -0.146882569427548 ] # a*
  - [    -0.193950211566729,     0.025074070820711,     0.146882580695118 ] # b*
  - [    -0.193950211566729,     0.220638374762683,     0.000000021499849 ] # c*

unit_cell:
  lattice:
  - [     5.155962408713060,     0.000000000000000,     0.000000000000000 ] # a
  - [     0.661066278349820,     5.113407609891411,     0.000000000000000 ] # b
  - [    -2.908514280354900,    -2.556704081117509,     3.404079754124799 ] # c
  points:
  - symbol: Li # 1
    coordinates: [  0.750000005692767,  0.250000018207905,  0.500000011087729 ]
    mass: 6.940000
    reduced_to: 1
  - symbol: Li # 2
    coordinates: [  0.250000014856504,  0.749999976597389,  0.499999981339461 ]
    mass: 6.940000
    reduced_to: 2
  - symbol: Li # 3
    coordinates: [  0.356017981887864,  0.356017972795714,  0.000000005245338 ]
    mass: 6.940000
    reduced_to: 3
  - symbol: Li # 4
    coordinates: [  0.643982004975018,  0.643982028987981,  0.000000009010429 ]
    mass: 6.940000
    reduced_to: 4
  - symbol: Sn # 5
    coordinates: [  0.999999992659593,  0.000000002852789,  0.999999991746111 ]
    mass: 118.710000
    reduced_to: 5

supercell:
  lattice:
  - [    10.311924817426119,     0.000000000000000,     0.000000000000000 ] # a
  - [     1.322132556699639,    10.226815219782821,     0.000000000000000 ] # b
  - [    -5.817028560709800,    -5.113408162235019,     6.808159508249598 ] # c
  points:
  - symbol: Li # 1
    coordinates: [  0.375000002846384,  0.125000009103952,  0.250000005543864 ]
    mass: 6.940000
    reduced_to: 1
  - symbol: Li # 2
    coordinates: [  0.875000002846384,  0.125000009103952,  0.250000005543864 ]
    mass: 6.940000
    reduced_to: 1
  - symbol: Li # 3
    coordinates: [  0.375000002846384,  0.625000009103952,  0.250000005543864 ]
    mass: 6.940000
    reduced_to: 1
  - symbol: Li # 4
    coordinates: [  0.875000002846384,  0.625000009103952,  0.250000005543864 ]
    mass: 6.940000
    reduced_to: 1
  - symbol: Li # 5
    coordinates: [  0.375000002846384,  0.125000009103952,  0.750000005543864 ]
    mass: 6.940000
    reduced_to: 1
  - symbol: Li # 6
    coordinates: [  0.875000002846384,  0.125000009103952,  0.750000005543864 ]
    mass: 6.940000
    reduced_to: 1
  - symbol: Li # 7
    coordinates: [  0.375000002846384,  0.625000009103952,  0.750000005543864 ]
    mass: 6.940000
    reduced_to: 1
  - symbol: Li # 8
    coordinates: [  0.875000002846384,  0.625000009103952,  0.750000005543864 ]
    mass: 6.940000
    reduced_to: 1
  - symbol: Li # 9
    coordinates: [  0.125000007428252,  0.374999988298694,  0.249999990669730 ]
    mass: 6.940000
    reduced_to: 9
  - symbol: Li # 10
    coordinates: [  0.625000007428252,  0.374999988298694,  0.249999990669730 ]
    mass: 6.940000
    reduced_to: 9
  - symbol: Li # 11
    coordinates: [  0.125000007428252,  0.874999988298694,  0.249999990669730 ]
    mass: 6.940000
    reduced_to: 9
  - symbol: Li # 12
    coordinates: [  0.625000007428252,  0.874999988298694,  0.249999990669730 ]
    mass: 6.940000
    reduced_to: 9
  - symbol: Li # 13
    coordinates: [  0.125000007428252,  0.374999988298694,  0.749999990669730 ]
    mass: 6.940000
    reduced_to: 9
  - symbol: Li # 14
    coordinates: [  0.625000007428252,  0.374999988298694,  0.749999990669730 ]
    mass: 6.940000
    reduced_to: 9
  - symbol: Li # 15
    coordinates: [  0.125000007428252,  0.874999988298694,  0.749999990669730 ]
    mass: 6.940000
    reduced_to: 9
  - symbol: Li # 16
    coordinates: [  0.625000007428252,  0.874999988298694,  0.749999990669730 ]
    mass: 6.940000
    reduced_to: 9
  - symbol: Li # 17
    coordinates: [  0.178008990943932,  0.178008986397857,  0.000000002622669 ]
    mass: 6.940000
    reduced_to: 17
  - symbol: Li # 18
    coordinates: [  0.678008990943932,  0.178008986397857,  0.000000002622669 ]
    mass: 6.940000
    reduced_to: 17
  - symbol: Li # 19
    coordinates: [  0.178008990943932,  0.678008986397857,  0.000000002622669 ]
    mass: 6.940000
    reduced_to: 17
  - symbol: Li # 20
    coordinates: [  0.678008990943932,  0.678008986397857,  0.000000002622669 ]
    mass: 6.940000
    reduced_to: 17
  - symbol: Li # 21
    coordinates: [  0.178008990943932,  0.178008986397857,  0.500000002622669 ]
    mass: 6.940000
    reduced_to: 17
  - symbol: Li # 22
    coordinates: [  0.678008990943932,  0.178008986397857,  0.500000002622669 ]
    mass: 6.940000
    reduced_to: 17
  - symbol: Li # 23
    coordinates: [  0.178008990943932,  0.678008986397857,  0.500000002622669 ]
    mass: 6.940000
    reduced_to: 17
  - symbol: Li # 24
    coordinates: [  0.678008990943932,  0.678008986397857,  0.500000002622669 ]
    mass: 6.940000
    reduced_to: 17
  - symbol: Li # 25
    coordinates: [  0.321991002487509,  0.321991014493991,  0.000000004505215 ]
    mass: 6.940000
    reduced_to: 25
  - symbol: Li # 26
    coordinates: [  0.821991002487509,  0.321991014493991,  0.000000004505215 ]
    mass: 6.940000
    reduced_to: 25
  - symbol: Li # 27
    coordinates: [  0.321991002487509,  0.821991014493991,  0.000000004505215 ]
    mass: 6.940000
    reduced_to: 25
  - symbol: Li # 28
    coordinates: [  0.821991002487509,  0.821991014493991,  0.000000004505215 ]
    mass: 6.940000
    reduced_to: 25
  - symbol: Li # 29
    coordinates: [  0.321991002487509,  0.321991014493991,  0.500000004505215 ]
    mass: 6.940000
    reduced_to: 25
  - symbol: Li # 30
    coordinates: [  0.821991002487509,  0.321991014493991,  0.500000004505215 ]
    mass: 6.940000
    reduced_to: 25
  - symbol: Li # 31
    coordinates: [  0.321991002487509,  0.821991014493991,  0.500000004505215 ]
    mass: 6.940000
    reduced_to: 25
  - symbol: Li # 32
    coordinates: [  0.821991002487509,  0.821991014493991,  0.500000004505215 ]
    mass: 6.940000
    reduced_to: 25
  - symbol: Sn # 33
    coordinates: [  0.499999996329797,  0.000000001426394,  0.499999995873056 ]
    mass: 118.710000
    reduced_to: 33
  - symbol: Sn # 34
    coordinates: [  0.999999996329797,  0.000000001426394,  0.499999995873056 ]
    mass: 118.710000
    reduced_to: 33
  - symbol: Sn # 35
    coordinates: [  0.499999996329797,  0.500000001426394,  0.499999995873056 ]
    mass: 118.710000
    reduced_to: 33
  - symbol: Sn # 36
    coordinates: [  0.999999996329797,  0.500000001426394,  0.499999995873056 ]
    mass: 118.710000
    reduced_to: 33
  - symbol: Sn # 37
    coordinates: [  0.499999996329797,  0.000000001426394,  0.999999995873056 ]
    mass: 118.710000
    reduced_to: 33
  - symbol: Sn # 38
    coordinates: [  0.999999996329797,  0.000000001426394,  0.999999995873056 ]
    mass: 118.710000
    reduced_to: 33
  - symbol: Sn # 39
    coordinates: [  0.499999996329797,  0.500000001426394,  0.999999995873056 ]
    mass: 118.710000
    reduced_to: 33
  - symbol: Sn # 40
    coordinates: [  0.999999996329797,  0.500000001426394,  0.999999995873056 ]
    mass: 118.710000
    reduced_to: 33

displacements:
- atom:    1
  displacement:
    [   0.0100000000000000,  0.0000000000000000,  0.0000000000000000 ]
  forces:
  - [  -0.0156110394746065,  0.0092792706564069, -0.0000070556998253 ]
  - [   0.0000925822459976, -0.0000644862302579, -0.0000012796372175 ]
  - [   0.0000368849359802, -0.0000568356263102,  0.0000011250376701 ]
  - [  -0.0000208451165236,  0.0000823671507533,  0.0000008195638657 ]
  - [   0.0000500185415149, -0.0000482089817524, -0.0000189110942301 ]
  - [  -0.0002002194523811, -0.0005048774182796,  0.0002574555983301 ]
  - [  -0.0001980555243790, -0.0004952382296324, -0.0002514850639272 ]
  - [   0.0000504041090608, -0.0000410750508308,  0.0000232821021200 ]
  - [  -0.0000904533080757, -0.0004823468625546, -0.0001346831559204 ]
  - [  -0.0004062051884830, -0.0003633443266153,  0.0001235506497324 ]
  - [  -0.0004130564630032, -0.0003617610782385, -0.0001271983346669 ]
  - [  -0.0000933734700084, -0.0004895068705082,  0.0001323173055425 ]
  - [  -0.0001095775514841, -0.0000525163486600, -0.0000021868793283 ]
  - [  -0.0001549925655127, -0.0002364376559854, -0.0000075811772149 ]
  - [  -0.0005065929144621, -0.0001916922628880,  0.0000027216756280 ]
  - [  -0.0008926894515753,  0.0001151589676738, -0.0000023037873689 ]
  - [   0.0000194888561964, -0.0002162754535675,  0.0009467763011344 ]
  - [   0.0010192412883043,  0.0006506219506264, -0.0001524065737613 ]
  - [   0.0008725412189960,  0.0007881931960583, -0.0000193744235730 ]
  - [   0.0009666010737419,  0.0005484782159328,  0.0000437829257862 ]
  - [   0.0003620553761721,  0.0007092412561178,  0.0002561826258898 ]
  - [   0.0065526608377695, -0.0016770716756582,  0.0063799256458879 ]
  - [   0.0008695740252733,  0.0007609426975250, -0.0001759016886353 ]
  - [   0.0009186435490847,  0.0007799156010151,  0.0000132834538817 ]
  - [  -0.0009384937584400, -0.0008041635155678,  0.0000195564934984 ]
  - [  -0.0008519925177097, -0.0010478943586349, -0.0000465124721813 ]
  - [  -0.0018018260598183, -0.0017871931195259, -0.0009179510525428 ]
  - [  -0.0007909275591373, -0.0009440537542105,  0.0001543652615510 ]
  - [   0.0047116316854954, -0.0032429303973913, -0.0062900464981794 ]
  - [  -0.0014319885522127, -0.0008831620216370, -0.0002484731376171 ]
  - [  -0.0008982289582491, -0.0008139815181494, -0.0000122711062431 ]
  - [  -0.0009473655372858, -0.0008363611996174,  0.0001781526952982 ]
  - [   0.0008828411810100,  0.0007048584520817, -0.0006597917526960 ]
  - [   0.0001615523360670, -0.0000255834311247, -0.0000848006457090 ]
  - [   0.0008766241371632,  0.0006747692823410,  0.0006378088146448 ]
  - [   0.0001550447195768, -0.0000269468873739,  0.0000835843384266 ]
  - [   0.0039774794131517,  0.0002816877095029, -0.0017058668890968 ]
  - [   0.0038207864854485,  0.0002683853963390,  0.0016078023472801 ]
  - [  -0.0000197775661945,  0.0000236872583628, -0.0000710859894753 ]
  - [  -0.0000190585851669,  0.0000262595713139,  0.0000746082514524 ]
- atom:   17
  displacement:
    [   0.0100000000000000,  0.0000000000000000,  0.0000000000000000 ]
  forces:
  - [  -0.0009005289757624, -0.0016103355446830,  0.0013876240700483 ]
  - [   0.0001142212713603, -0.0000309723909595, -0.0000677499920130 ]
  - [  -0.0000304535642499, -0.0001497988705523, -0.0001260153949261 ]
  - [   0.0000568582727283, -0.0000494513333251, -0.0001029577106237 ]
  - [  -0.0005230261012912,  0.0000638645142317,  0.0003583959478419 ]
  - [   0.0056157927028835, -0.0018351357430220,  0.0058427643962204 ]
  - [  -0.0000380878336728, -0.0002369619905949, -0.0000270631480817 ]
  - [   0.0000103423371911, -0.0001310110092163, -0.0000714846755727 ]
  - [   0.0056154993362725, -0.0018350481987000, -0.0058430018834770 ]
  - [  -0.0005233730189502,  0.0000636521726847, -0.0003588706895243 ]
  - [   0.0000096801668406, -0.0001316200941801,  0.0000709747182555 ]
  - [  -0.0000393949449062, -0.0002369806170464,  0.0000264595419139 ]
  - [  -0.0000312197953463, -0.0001499876379967,  0.0001252927031601 ]
  - [   0.0000564940273762, -0.0000490304082632,  0.0001026675090543 ]
  - [  -0.0009006839245558, -0.0016105081886053, -0.0013884510844946 ]
  - [   0.0001134797930717, -0.0000313054770231,  0.0000680029770592 ]
  - [  -0.0289416275918484, -0.0160167310386896,  0.0000005181686902 ]
  - [   0.0010780356824398,  0.0007030759006739,  0.0000001531138878 ]
  - [   0.0007258430123329,  0.0007504168897867,  0.0000005019319360 ]
  - [   0.0010423175990582,  0.0004641506820917, -0.0000007847793313 ]
  - [   0.0008854717016220,  0.0007476080209017, -0.0001332787796855 ]
  - [   0.0006946064531803,  0.0007527787238359,  0.0002866089344025 ]
  - [   0.0006944537162781,  0.0007518343627453, -0.0002861637622118 ]
  - [   0.0008862819522619,  0.0007477253675461,  0.0001329462975264 ]
  - [   0.0099257640540600,  0.0115221478044987,  0.0000001651178536 ]
  - [  -0.0009233728051186, -0.0007402449846268,  0.0000001059142960 ]
  - [  -0.0011133365333080, -0.0007124245166779,  0.0000004339999577 ]
  - [  -0.0009041801095009, -0.0010480396449566,  0.0000003225859757 ]
  - [  -0.0008915793150663, -0.0008697845041752, -0.0000725202262402 ]
  - [  -0.0008489005267620, -0.0007180534303188,  0.0003689732402563 ]
  - [  -0.0008493475615978, -0.0007178187370300, -0.0003680735826492 ]
  - [  -0.0008922033011913, -0.0008710417896509,  0.0000736229121685 ]
  - [  -0.0001651132479310,  0.0001412779092789, -0.0000812411308289 ]
  - [   0.0004690536297858,  0.0000197160989046,  0.0002805590629578 ]
  - [   0.0004667895846069,  0.0000190343707800, -0.0002816021442413 ]
  - [  -0.0001652967184782,  0.0001415498554707,  0.0000803638249636 ]
  - [  -0.0011167210759595,  0.0013169996673241, -0.0000002455062713 ]
  - [   0.0111957043409348,  0.0099486084654927,  0.0000005802730811 ]
  - [   0.0003734324127436,  0.0003168778494000,  0.0000007823109627 ]
  - [  -0.0002318862825632,  0.0013108244165778,  0.0000006109476089 ]
- atom:   17
  displacement:
    [  -0.0100000000000000,  0.0000000000000000,  0.0000000000000000 ]
  forces:
  - [   0.0008836566703394,  0.0016251283232123, -0.0014005042612553 ]
  - [  -0.0001132311081165,  0.0000314797653118,  0.0000643115490675 ]
  - [   0.0000351020353264,  0.0001546739658806,  0.0001301076263189 ]
  - [  -0.0000583152141189,  0.0000499727684655,  0.0001052618026733 ]
  - [   0.0005481243133545, -0.0000510066747665, -0.0003638507041615 ]
  - [  -0.0056475624442101,  0.0018568038940430, -0.0059035681188107 ]
  - [   0.0000387602485716,  0.0002370420843363,  0.0000273791683867 ]
  - [  -0.0000090519897640,  0.0001369677484035,  0.0000780451518949 ]
  - [  -0.0056482814252377,  0.0018568765372038,  0.0059035923331976 ]
  - [   0.0005481583066285, -0.0000515412539244,  0.0003633257874753 ]
  - [  -0.0000098468735814,  0.0001364629715681, -0.0000785802330938 ]
  - [   0.0000373837538064,  0.0002369880676270, -0.0000280845342786 ]
  - [   0.0000344738364220,  0.0001544114202261, -0.0001311283849645 ]
  - [  -0.0000589024275541,  0.0000504730269313, -0.0001052397929016 ]
  - [   0.0008834619075060,  0.0016247555613518,  0.0013998397625983 ]
  - [  -0.0001141075044870,  0.0000308807939291, -0.0000642775339657 ]
  - [   0.0310181565582752,  0.0175441987812519,  0.0000002462252269 ]
  - [   0.0007350780069828,  0.0008898358792067,  0.0000000949953574 ]
  - [   0.0010854322463274,  0.0008460972458124,  0.0000003960149115 ]
  - [   0.0007735807448626,  0.0011286027729511, -0.0000007462385838 ]
  - [   0.0009291730821133,  0.0008488222956657,  0.0001326231285930 ]
  - [   0.0011216010898352,  0.0008452944457531, -0.0002821665257215 ]
  - [   0.0011215861886740,  0.0008442662656307,  0.0002823974937201 ]
  - [   0.0009302962571383,  0.0008489061146975, -0.0001326315104961 ]
  - [  -0.0117220282554626, -0.0129523184150457,  0.0000001584839993 ]
  - [  -0.0008896254003048, -0.0008605346083641,  0.0000001377002263 ]
  - [  -0.0007009990513325, -0.0008826963603497,  0.0000005209865890 ]
  - [  -0.0008963532745838, -0.0005395021289587,  0.0000003701448179 ]
  - [  -0.0009248107671738, -0.0007238425314426,  0.0000707414001226 ]
  - [  -0.0009615160524845, -0.0008754692971706, -0.0003634914755821 ]
  - [  -0.0009623728692532, -0.0008750241249800,  0.0003642514348030 ]
  - [  -0.0009254906326532, -0.0007248129695654, -0.0000698845833540 ]
  - [   0.0001572500914335, -0.0001463368535042,  0.0000798292458057 ]
  - [  -0.0004703830927610, -0.0000226721167564, -0.0002558901906013 ]
  - [  -0.0004728543572128, -0.0000232923775911,  0.0002551730722189 ]
  - [   0.0001568207517266, -0.0001461841166019, -0.0000807531177998 ]
  - [   0.0010656566591933, -0.0012697095517069, -0.0000004319081199 ]
  - [  -0.0114095360040665, -0.0101848794147372,  0.0000006641721484 ]
  - [  -0.0003506112843752, -0.0003018015995622,  0.0000006053596735 ]
  - [   0.0002420097589493, -0.0013472316786647,  0.0000011902302504 ]
- atom:   33
  displacement:
    [   0.0100000000000000,  0.0000000000000000,  0.0000000000000000 ]
  forces:
  - [   0.0008728615357541,  0.0006413892842829, -0.0006159543991089 ]
  - [   0.0001579313247930,  0.0000013550125004, -0.0000627171248198 ]
  - [   0.0008886259747669,  0.0006916669080965,  0.0006464757025242 ]
  - [   0.0001590511819813,  0.0000031035851862,  0.0000628307461739 ]
  - [   0.0038277609273791,  0.0002998169511557, -0.0015870950883254 ]
  - [   0.0039727226831019,  0.0003007147461176,  0.0016889108810574 ]
  - [  -0.0000196960754693, -0.0000035110861063, -0.0000488552759634 ]
  - [  -0.0000210963189602, -0.0000022072345018,  0.0000536570223630 ]
  - [  -0.0000200611539185, -0.0000032261013985,  0.0000483525000163 ]
  - [  -0.0000209854915738, -0.0000023804605007, -0.0000541819244972 ]
  - [   0.0038269986398518,  0.0002989638596773,  0.0015864688903093 ]
  - [   0.0039717690087855,  0.0002999976277351, -0.0016890240367502 ]
  - [   0.0001566186547279,  0.0000015292316675,  0.0000621341023361 ]
  - [   0.0008720681071281,  0.0006414856761694,  0.0006158661562949 ]
  - [   0.0001594051718712,  0.0000023590400815, -0.0000635186079307 ]
  - [   0.0008884035050869,  0.0006908532232046, -0.0006464917678386 ]
  - [   0.0007477216422558,  0.0009406227618456, -0.0000774759973865 ]
  - [   0.0013778358697891,  0.0008219592273235,  0.0003698662039824 ]
  - [   0.0013765692710876,  0.0008209291845560, -0.0003691694000736 ]
  - [   0.0007476285099983,  0.0009404253214598,  0.0000771281047491 ]
  - [  -0.0001626200973988,  0.0022213160991669, -0.0000000260770321 ]
  - [   0.0122836008667946,  0.0109754409641027, -0.0000002756714821 ]
  - [   0.0012607630342245,  0.0010971445590258,  0.0000002980232239 ]
  - [   0.0006643291562796,  0.0020046439021826, -0.0000003566965461 ]
  - [  -0.0010696202516556, -0.0006526485085487,  0.0000834699967527 ]
  - [  -0.0004385411739349, -0.0007793232798576, -0.0003876471891999 ]
  - [  -0.0004371106624603, -0.0007776413112879,  0.0003877071721945 ]
  - [  -0.0010688118636608, -0.0006516575813293, -0.0000829394630273 ]
  - [  -0.0011379122734070,  0.0003614779561758,  0.0000003781169653 ]
  - [  -0.0005350355058908, -0.0004779994487762,  0.0000007413327694 ]
  - [   0.0103208869695663,  0.0091570802032948,  0.0000001434236765 ]
  - [  -0.0020213983952999,  0.0006579644978046,  0.0000003539025784 ]
  - [  -0.0509786047041416, -0.0211719684302807, -0.0000007003545761 ]
  - [   0.0018696337938309,  0.0000743977725506,  0.0000001415610313 ]
  - [  -0.0001548076979816,  0.0003351960331202, -0.0000004712492228 ]
  - [   0.0003214003518224, -0.0010594502091408, -0.0000002514570951 ]
  - [   0.0005475897924043,  0.0005548091721721, -0.0007662825519219 ]
  - [   0.0031309928745031, -0.0049054063856602,  0.0071090050041676 ]
  - [   0.0031326897442341, -0.0049045551568270, -0.0071072019636631 ]
  - [   0.0005503688007593,  0.0005552461370826,  0.0007665716111660 ]

force_constants:
  format: "full"
  shape: [ 40, 40 ]
  elements:
  - # (1, 1)
    - [     1.561096046386300,    -0.927929800850686,    -0.000000028292770 ]
    - [    -0.927929800850686,     1.801023358756996,    -0.000000021058429 ]
    - [    -0.000000028292770,    -0.000000021058429,     2.616711871651374 ]
  - # (1, 2)
    - [    -0.009248313758206,     0.006433671809668,    -0.000000004112088 ]
    - [     0.006433667038030,    -0.005259924415892,     0.000000004309617 ]
    - [    -0.000000002013316,    -0.000000002156461,    -0.010104468628086 ]
  - # (1, 3)
    - [    -0.003689331093910,     0.005715003795867,     0.000000000738068 ]
    - [     0.005714997791138,    -0.010818911035415,    -0.000000000504220 ]
    - [     0.000000003036008,    -0.000000001727115,    -0.010104461711467 ]
  - # (1, 4)
    - [     0.002076609646201,    -0.008239404797998,     0.000000000444563 ]
    - [    -0.008239408725257,     0.004207003819398,     0.000000002576496 ]
    - [     0.000000001773885,    -0.000000001743995,     0.011449783460807 ]
  - # (1, 5)
    - [    -0.005041475109016,     0.004450579133027,     0.002104970646425 ]
    - [     0.004450576978568,    -0.006192224128267,     0.001850354872619 ]
    - [     0.002104968280761,     0.001850349590696,    -0.013379004296387 ]
  - # (1, 6)
    - [     0.019905846508738,     0.050003094325866,    -0.025447031032994 ]
    - [     0.050003090623125,     0.006976951019729,     0.028948627044945 ]
    - [    -0.025447031505696,     0.028948626569985,    -0.036977828289401 ]
  - # (1, 7)
    - [     0.019905841449619,     0.050003096173775,     0.025447035790620 ]
    - [     0.050003095169474,     0.006976949116803,    -0.028948625586691 ]
    - [     0.025447035659393,    -0.028948622613775,    -0.036977830721362 ]
  - # (1, 8)
    - [    -0.005041472827814,     0.004450577783131,    -0.002104969540965 ]
    - [     0.004450574017069,    -0.006192222302335,    -0.001850346772801 ]
    - [    -0.002104967432043,    -0.001850353310043,    -0.013379011837961 ]
  - # (1, 9)
    - [     0.009180659398323,     0.048587556306718,     0.013329458548204 ]
    - [     0.048587552540656,    -0.003382233571216,     0.011717148485685 ]
    - [     0.013329460657126,     0.011717141948443,     0.008722330893326 ]
  - # (1, 10)
    - [     0.040955176306522,     0.036252583274429,    -0.012537448423603 ]
    - [     0.036252579779049,     0.031581643591198,     0.014262643703037 ]
    - [    -0.012537443571179,     0.014262639022124,    -0.000285865337363 ]
  - # (1, 11)
    - [     0.040955181062229,     0.036252579114640,     0.012537448032119 ]
    - [     0.036252576455338,     0.031581647125906,    -0.014262637178326 ]
    - [     0.012537448660622,    -0.014262636685280,    -0.000285872655115 ]
  - # (1, 12)
    - [     0.009180655548680,     0.048587560177916,    -0.013329454051094 ]
    - [     0.048587556739937,    -0.003382235892299,    -0.011717140979119 ]
    - [    -0.013329451453184,    -0.011717147490507,     0.008722334204879 ]
  - # (1, 13)
    - [     0.010949852617399,     0.005248945491992,     0.000000001174060 ]
    - [     0.005248942709998,     0.009592673478406,     0.000000002587181 ]
    - [     0.000000002452735,    -0.000000001777831,     0.004978637831858 ]
  - # (1, 14)
    - [     0.015473346675567,     0.023681697615643,     0.000000002760958 ]
    - [     0.023681694527189,     0.045140111237305,     0.000000001139534 ]
    - [     0.000000003249665,     0.000000003918898,    -0.046092691771507 ]
  - # (1, 15)
    - [     0.050674950309127,     0.019130799172866,    -0.000000005557978 ]
    - [     0.019130795779675,     0.009938506260046,     0.000000005326711 ]
    - [    -0.000000000272708,     0.000000000577674,    -0.046092701515147 ]
  - # (1, 16)
    - [     0.089261044091995,    -0.011518590819989,    -0.000000000792733 ]
    - [    -0.011518590819989,     0.092239313070211,     0.000000003115235 ]
    - [    -0.000000000792733,     0.000000003115235,     0.102364622153327 ]
  - # (1, 17)
    - [     0.089171879957268,     0.100219141150930,    -0.093241497185249 ]
    - [     0.161722771381813,    -0.607971281527099,     0.650819145040811 ]
    - [    -0.139435062389383,     0.610213094452533,    -0.433981337098152 ]
  - # (1, 18)
    - [    -0.011394860652640,     0.014717322619102,     0.015342478485711 ]
    - [     0.003085729946194,    -0.003123434799822,    -0.000703710072001 ]
    - [     0.006606332830006,    -0.008383145277957,    -0.015556957712900 ]
  - # (1, 19)
    - [     0.003295417677431,     0.000779213090878,     0.001956027894544 ]
    - [     0.015209718532864,     0.052300575215321,     0.025205131148538 ]
    - [     0.012794361233757,     0.034732468713701,     0.023011081678286 ]
  - # (1, 20)
    - [    -0.005745265277655,     0.024953602870679,    -0.004550302953428 ]
    - [     0.005008414859528,     0.000152369917152,    -0.017267294594841 ]
    - [     0.010429937095356,    -0.004099045388849,    -0.017275737538585 ]
  - # (1, 21)
    - [     0.053528073146715,     0.008715599771950,    -0.025247880299704 ]
    - [    -0.005714919051241,     0.002067920139287,     0.001291774837409 ]
    - [    -0.036086216952351,    -0.008235576744629,     0.023011082910889 ]
  - # (1, 22)
    - [    -0.563203620688256,     0.246062519474989,    -0.633492765359964 ]
    - [     0.184558880590819,     0.044404250327908,     0.175916042817412 ]
    - [    -0.587299200352795,     0.216522089827363,    -0.433981362833676 ]
  - # (1, 23)
    - [     0.003865261139827,     0.003765957488949,     0.017708191090363 ]
    - [     0.023711142094372,    -0.009458159658032,     0.002298847674738 ]
    - [     0.002727953972662,    -0.010869409586809,    -0.017275739794909 ]
  - # (1, 24)
    - [    -0.000995646798348,     0.001741313802391,    -0.001269220701748 ]
    - [     0.013372903121564,    -0.013522653209487,    -0.015306082992174 ]
    - [     0.007466933233730,    -0.007626647354786,    -0.015556954878884 ]
  - # (1, 25)
    - [     0.003295422958555,     0.000779208806524,    -0.001956026529118 ]
    - [     0.015209722855202,     0.052300577609797,    -0.025205119884781 ]
    - [    -0.012794358405295,    -0.034732458088258,     0.023011074408006 ]
  - # (1, 26)
    - [    -0.005745270187748,     0.024953606346582,     0.004550307476088 ]
    - [     0.005008411613088,     0.000152374321878,     0.017267303706815 ]
    - [    -0.010429937588129,     0.004099048198513,    -0.017275736738191 ]
  - # (1, 27)
    - [     0.089171891718428,     0.100219090302062,     0.093241471249044 ]
    - [     0.161722760268545,    -0.607971225599294,    -0.650819197344766 ]
    - [     0.139435072118575,    -0.610213122085906,    -0.433981461056034 ]
  - # (1, 28)
    - [    -0.011394868091111,     0.014717330828013,    -0.015342482114696 ]
    - [     0.003085729282920,    -0.003123431156570,     0.000703715082886 ]
    - [    -0.006606333482745,     0.008383147634015,    -0.015556953925716 ]
  - # (1, 29)
    - [    -0.563203636958568,     0.246062478034200,     0.633492816330284 ]
    - [     0.184558909630815,     0.044404255446677,    -0.175916073501070 ]
    - [     0.587299195137042,    -0.216522038567816,    -0.433981408072893 ]
  - # (1, 30)
    - [     0.053528069492653,     0.008715598411730,     0.025247880931666 ]
    - [    -0.005714919678780,     0.002067921871139,    -0.001291760429693 ]
    - [     0.036086219433314,     0.008235574739024,     0.023011077498193 ]
  - # (1, 31)
    - [    -0.000995642150741,     0.001741308883156,     0.001269215815369 ]
    - [     0.013372901777933,    -0.013522652368221,     0.015306083504851 ]
    - [    -0.007466933013477,     0.007626647379597,    -0.015556953180475 ]
  - # (1, 32)
    - [     0.003865263263022,     0.003765958059095,    -0.017708188600583 ]
    - [     0.023711145928900,    -0.009458162457736,    -0.002298834193567 ]
    - [    -0.002727947491188,     0.010869408138514,    -0.017275731286407 ]
  - # (1, 33)
    - [    -0.088009226188923,    -0.069018907802305,     0.064878192870360 ]
    - [    -0.066600423268588,    -0.377476166594644,     0.158604535584131 ]
    - [     0.063061732195639,     0.157007799739697,    -0.184049536066134 ]
  - # (1, 34)
    - [    -0.015842297586240,     0.002608750406811,     0.008392491873189 ]
    - [    -0.000229759935757,     0.001986007240131,     0.006223642831709 ]
    - [     0.006260581050567,     0.004349600082003,    -0.006964917235479 ]
  - # (1, 35)
    - [    -0.088009227665787,    -0.069018907829969,    -0.064878197130506 ]
    - [    -0.066600420032274,    -0.377476140075301,    -0.158604536432098 ]
    - [    -0.063061744826060,    -0.157007805407730,    -0.184049562441895 ]
  - # (1, 36)
    - [    -0.015842303194403,     0.002608754030941,    -0.008392502733695 ]
    - [    -0.000229754851037,     0.001986007937693,    -0.006223632007766 ]
    - [    -0.006260583980934,    -0.004349596510538,    -0.006964919312370 ]
  - # (1, 37)
    - [    -0.389962454618946,    -0.027563614373086,     0.165613800787543 ]
    - [    -0.029982086829000,    -0.075522948135477,     0.044007396163482 ]
    - [     0.163797328608423,     0.042410663275052,    -0.184049526748541 ]
  - # (1, 38)
    - [    -0.389962442805631,    -0.027563609200117,    -0.165613790951119 ]
    - [    -0.029982102405863,    -0.075522940729383,    -0.044007400829420 ]
    - [    -0.163797333920912,    -0.042410668178063,    -0.184049546347056 ]
  - # (1, 39)
    - [     0.001995432611536,    -0.002535830586495,     0.007248310307372 ]
    - [     0.000302669846215,    -0.015851733987332,     0.007525279667727 ]
    - [     0.005116394115286,     0.005651228751912,    -0.006964908092786 ]
  - # (1, 40)
    - [     0.001995433687809,    -0.002535832293876,    -0.007248306882515 ]