phonopy:
  version: "2.37.1"
  frequency_unit_conversion_factor: 15.633302
  symmetry_tolerance: 1.00000e-05

space_group:
  type: "R-3m"
  number: 166
  Hall_symbol: "-R 3 2\""

primitive_matrix:
- [ -1.000000000000000,  0.000000000000000, -0.000000000000000 ]
- [  0.000000000000000,  0.000000000000000, -1.000000000000000 ]
- [ -0.000000000000000, -1.000000000000000,  0.000000000000000 ]

supercell_matrix:
- [   2,   0,   0 ]
- [   0,   2,   0 ]
- [   0,   0,   2 ]

primitive_cell:
  lattice:
  - [    -5.044880440041909,     0.000000000000000,    -0.000000000000000 ] # a
  - [    -3.956510689085926,    -1.375769871706495,    -2.811422988930501 ] # b
  - [    -3.956510716765272,    -3.129990898204977,     0.000000000000001 ] # c
  points:
  - symbol: Li # 1
    coordinates: [  0.000000002028796,  0.000000005000359,  0.000000001545761 ]
    mass: 6.940000
  - symbol: Sn # 2
    coordinates: [  0.499999997998380,  0.499999994887613,  0.499999998630163 ]
    mass: 118.710000
  reciprocal_lattice: # without 2pi
  - [    -0.198220753075308,     0.250563838469150,     0.156342304294573 ] # a*
  - [     0.000000000000000,    -0.000000000000000,    -0.355691763188012 ] # b*
  - [    -0.000000000000000,    -0.319489746942552,     0.156342311311150 ] # c*

unit_cell:
  lattice:
  - [     5.044880440041909,     0.000000000000000,     0.000000000000000 ] # a
  - [     3.956510716765273,     3.129990898204977,     0.000000000000000 ] # b
  - [     3.956510689085926,     1.375769871706495,     2.811422988930501 ] # c
  points:
  - symbol: Li # 1
    coordinates: [  0.999999997971204,  0.999999998454239,  0.999999994999641 ]
    mass: 6.940000
    reduced_to: 1
  - symbol: Sn # 2
    coordinates: [  0.500000002001620,  0.500000001369837,  0.500000005112387 ]
    mass: 118.710000
    reduced_to: 2

supercell:
  lattice:
  - [    10.089760880083817,     0.000000000000000,     0.000000000000000 ] # a
  - [     7.913021433530545,     6.259981796409955,     0.000000000000000 ] # b
  - [     7.913021378171853,     2.751539743412990,     5.622845977861003 ] # c
  points:
  - symbol: Li # 1
    coordinates: [  0.499999998985602,  0.499999999227120,  0.499999997499821 ]
    mass: 6.940000
    reduced_to: 1
  - symbol: Li # 2
    coordinates: [  0.999999998985602,  0.499999999227120,  0.499999997499821 ]
    mass: 6.940000
    reduced_to: 1
  - symbol: Li # 3
    coordinates: [  0.499999998985602,  0.999999999227120,  0.499999997499821 ]
    mass: 6.940000
    reduced_to: 1
  - symbol: Li # 4
    coordinates: [  0.999999998985602,  0.999999999227120,  0.499999997499821 ]
    mass: 6.940000
    reduced_to: 1
  - symbol: Li # 5
    coordinates: [  0.499999998985602,  0.499999999227120,  0.999999997499821 ]
    mass: 6.940000
    reduced_to: 1
  - symbol: Li # 6
    coordinates: [  0.999999998985602,  0.499999999227120,  0.999999997499821 ]
    mass: 6.940000
    reduced_to: 1
  - symbol: Li # 7
    coordinates: [  0.499999998985602,  0.999999999227120,  0.999999997499821 ]
    mass: 6.940000
    reduced_to: 1
  - symbol: Li # 8
    coordinates: [  0.999999998985602,  0.999999999227120,  0.999999997499821 ]
    mass: 6.940000
    reduced_to: 1
  - symbol: Sn # 9
    coordinates: [  0.250000001000810,  0.250000000684919,  0.250000002556194 ]
    mass: 118.710000
    reduced_to: 9
  - symbol: Sn # 10
    coordinates: [  0.750000001000810,  0.250000000684919,  0.250000002556194 ]
    mass: 118.710000
    reduced_to: 9
  - symbol: Sn # 11
    coordinates: [  0.250000001000810,  0.750000000684919,  0.250000002556194 ]
    mass: 118.710000
    reduced_to: 9
  - symbol: Sn # 12
    coordinates: [  0.750000001000810,  0.750000000684919,  0.250000002556194 ]
    mass: 118.710000
    reduced_to: 9
  - symbol: Sn # 13
    coordinates: [  0.250000001000810,  0.250000000684919,  0.750000002556193 ]
    mass: 118.710000
    reduced_to: 9
  - symbol: Sn # 14
    coordinates: [  0.750000001000810,  0.250000000684919,  0.750000002556193 ]
    mass: 118.710000
    reduced_to: 9
  - symbol: Sn # 15
    coordinates: [  0.250000001000810,  0.750000000684919,  0.750000002556193 ]
    mass: 118.710000
    reduced_to: 9
  - symbol: Sn # 16
    coordinates: [  0.750000001000810,  0.750000000684919,  0.750000002556193 ]
    mass: 118.710000
    reduced_to: 9

displacements:
- atom:    1
  displacement:
    [   0.0100000000000000,  0.0000000000000000,  0.0000000000000000 ]
  forces:
  - [  -0.0306527372449636, -0.0056253601796925, -0.0035100122913718 ]
  - [  -0.0010470508132130, -0.0004609876777977, -0.0002878655795939 ]
  - [  -0.0010679522529244, -0.0004359210433904, -0.0005069316830486 ]
  - [   0.0003102630726062, -0.0014393231831491, -0.0011369714047760 ]
  - [  -0.0010677367681637, -0.0006467979401350, -0.0001687239855528 ]
  - [   0.0003097405424342, -0.0016543203964829, -0.0007935576140881 ]
  - [  -0.0014574404340237,  0.0005804696120322,  0.0003619978670031 ]
  - [  -0.0027326052077115, -0.0005687773227692, -0.0003549318644218 ]
  - [   0.0001124754198827, -0.0000442856980953, -0.0000279443338513 ]
  - [   0.0034760797861964,  0.0033550586085767,  0.0020932380575687 ]
  - [   0.0074519095942378, -0.0008181072771549,  0.0033001229166985 ]
  - [   0.0076590953394771,  0.0026925876736641, -0.0023185089230537 ]
  - [   0.0074524125084281,  0.0026052456814796, -0.0021849672775716 ]
  - [   0.0076586240902543, -0.0008993099909276,  0.0034380960278213 ]
  - [   0.0034802192822099,  0.0034047933295369,  0.0021244478411973 ]
  - [   0.0001146988943219, -0.0000449544750154, -0.0000274989870377 ]
- atom:    9
  displacement:
    [   0.0100000000000000,  0.0000000000000000,  0.0000000000000000 ]
  forces:
  - [   0.0001095095649362, -0.0000484779011458, -0.0000303774722852 ]
  - [   0.0034680829849094,  0.0043302685953677,  0.0027018184773624 ]
  - [   0.0076504163444042, -0.0018266526749358,  0.0038912596646696 ]
  - [   0.0074541261419654,  0.0026033027097583, -0.0031935884617269 ]
  - [   0.0076503837481141,  0.0026924824342132, -0.0033511440269649 ]
  - [   0.0074539971537888, -0.0017243837937713,  0.0037416564300656 ]
  - [   0.0034814777318388,  0.0042598578147590,  0.0026579245459288 ]
  - [   0.0001156664220616, -0.0000408913474530, -0.0000255268532783 ]
  - [  -0.0357638746500015, -0.0061243954114616, -0.0038214647211134 ]
  - [   0.0004197815433145,  0.0003660155925900,  0.0002283749636263 ]
  - [   0.0007198806852102, -0.0000140499323606,  0.0002081245183945 ]
  - [  -0.0004370845854282, -0.0032653305679560,  0.0007927585393190 ]
  - [   0.0007203753339127,  0.0001817902084440, -0.0001037450565491 ]
  - [  -0.0004371344693936, -0.0007234048098326, -0.0032812557183206 ]
  - [  -0.0007761833257973, -0.0002952436916530, -0.0001841244520620 ]
  - [  -0.0018294164910913, -0.0003708912990987, -0.0002307038230356 ]

force_constants:
  format: "full"
  shape: [ 16, 16 ]
  elements:
  - # (1, 1)
    - [     3.065137087133082,     0.562497329927227,     0.350976927898701 ]
    - [     0.562497329927227,     1.643071019069924,     0.122042747429052 ]
    - [     0.350976927898701,     0.122042747429052,     1.523627812928581 ]
  - # (1, 2)
    - [     0.104568441413056,     0.046124200926379,     0.028779744073612 ]
    - [     0.046124191271950,    -0.006637602550873,     0.045320635267468 ]
    - [     0.028779742567187,     0.045320636084920,    -0.050992894667289 ]
  - # (1, 3)
    - [     0.106647808429811,     0.043495737141012,     0.050689117154516 ]
    - [     0.043495731659166,    -0.008716976914553,    -0.017687487099074 ]
    - [     0.050689114545807,    -0.017687488961984,    -0.050992891473810 ]
  - # (1, 4)
    - [    -0.031136830926879,     0.143924302536620,     0.113663076172347 ]
    - [     0.143924271298285,    -0.394996017442468,     0.039523259101264 ]
    - [     0.113663073006287,     0.039523257541134,     0.068274742666199 ]
  - # (1, 5)
    - [     0.106647811192333,     0.064648337255566,     0.016788667349769 ]
    - [     0.064648318445012,    -0.056791539083579,     0.005837805670917 ]
    - [     0.016788664756637,     0.005837812212367,    -0.002918323468938 ]
  - # (1, 6)
    - [    -0.031136823878650,     0.165355646394902,     0.079315839972171 ]
    - [     0.165355641485116,     0.009979352444793,    -0.158651445117511 ]
    - [     0.079315836446643,    -0.158651444343785,    -0.336700664906694 ]
  - # (1, 7)
    - [     0.145607403342136,    -0.058060472840680,    -0.036227545739340 ]
    - [    -0.058060489415947,    -0.166764849313042,     0.173634236739455 ]
    - [    -0.036227531096237,     0.173634251233354,    -0.336700698841147 ]
  - # (1, 8)
    - [     0.273123884712229,     0.056840639212396,     0.035466395913494 ]
    - [     0.056840627774048,     0.129423364265256,     0.012332478799904 ]
    - [     0.035466390112353,     0.012332480290963,     0.117353587933158 ]
  - # (1, 9)
    - [    -0.011308752404694,     0.004464112281423,     0.002785436810404 ]
    - [     0.004464105939134,    -0.022594630986835,     0.000968559064410 ]
    - [     0.002785436267737,     0.000968560606904,    -0.023542541047210 ]
  - # (1, 10)
    - [    -0.347646494414564,    -0.337928085261844,    -0.210854268044848 ]
    - [    -0.429529880334945,    -0.436782636956123,    -0.276418825146485 ]
    - [    -0.268010329469448,    -0.276418859353290,    -0.166251567057320 ]
  - # (1, 11)
    - [    -0.755387053992950,     0.085880543007361,    -0.336863398212452 ]
    - [     0.177482361004708,    -0.029042118335903,     0.085964822212731 ]
    - [    -0.381688751780482,     0.050503546898236,    -0.166251559559735 ]
  - # (1, 12)
    - [    -0.755387089896352,    -0.264829430303652,     0.225206118049261 ]
    - [    -0.264829397831326,    -0.085863988958869,     0.078309328473607 ]
    - [     0.327187535863504,     0.113770626105140,    -0.109429667420765 ]
  - # (1, 13)
    - [    -0.755387089896352,    -0.264829430303652,     0.225206118049261 ]
    - [    -0.264829397831326,    -0.085863988958869,     0.078309328473607 ]
    - [     0.327187535863504,     0.113770626105140,    -0.109429667420765 ]
  - # (1, 14)
    - [    -0.755387053992950,     0.085880543007361,    -0.336863398212452 ]
    - [     0.177482361004709,    -0.029042118335903,     0.085964822212731 ]
    - [    -0.381688751780482,     0.050503546898236,    -0.166251559559735 ]
  - # (1, 15)
    - [    -0.347646494414564,    -0.337928085261844,    -0.210854268044848 ]
    - [    -0.429529880334945,    -0.436782636956123,    -0.276418825146485 ]
    - [    -0.268010329469448,    -0.276418859353290,    -0.166251567057320 ]
  - # (1, 16)
    - [    -0.011308752404694,     0.004464112281423,     0.002785436810404 ]
    - [     0.004464105939134,    -0.022594630986834,     0.000968559064410 ]
    - [     0.002785436267737,     0.000968560606904,    -0.023542541047210 ]
  - # (2, 1)
    - [     0.104568441413056,     0.046124191271950,     0.028779742567187 ]
    - [     0.046124200926379,    -0.006637602550873,     0.045320636084920 ]
    - [     0.028779744073612,     0.045320635267468,    -0.050992894667289 ]
  - # (2, 2)
    - [     3.065137082042842,     0.562497338362583,     0.350976930508997 ]
    - [     0.562497338362583,     1.643071031978726,     0.122042749354648 ]
    - [     0.350976930508997,     0.122042749354648,     1.523627808349947 ]
  - # (2, 3)
    - [    -0.031136825924443,     0.143924281800626,     0.113663066284778 ]
    - [     0.143924285973209,    -0.394996048234319,     0.039523265091832 ]
    - [     0.113663065182494,     0.039523262411471,     0.068274744052445 ]
  - # (2, 4)
    - [     0.106647805493661,     0.043495748985765,     0.050689130467048 ]
    - [     0.043495739094237,    -0.008716958390071,    -0.017687486450654 ]
    - [     0.050689119452465,    -0.017687489018626,    -0.050992901086970 ]
  - # (2, 5)
    - [    -0.031136822724990,     0.165355651178700,     0.079315833253148 ]
    - [     0.165355640172052,     0.009979373198805,    -0.158651423965997 ]
    - [     0.079315836371924,    -0.158651444361110,    -0.336700683595148 ]
  - # (2, 6)
    - [     0.106647805379854,     0.064648326757291,     0.016788668036529 ]
    - [     0.064648331501934,    -0.056791547025337,     0.005837805251178 ]
    - [     0.016788666017426,     0.005837805207452,    -0.002918321307373 ]
  - # (2, 7)
    - [     0.273123879458671,     0.056840646445909,     0.035466394076050 ]
    - [     0.056840636207541,     0.129423378168712,     0.012332479755888 ]
    - [     0.035466401059030,     0.012332483378889,     0.117353585599370 ]
  - # (2, 8)
    - [     0.145607405019884,    -0.058060490042855,    -0.036227522334734 ]
    - [    -0.058060479956276,    -0.166764840160057,     0.173634220939135 ]
    - [    -0.036227534438324,     0.173634242318450,    -0.336700685247997 ]
  - # (2, 9)
    - [    -0.347646492048532,    -0.337928087085060,    -0.210854260938386 ]
    - [    -0.429529906755502,    -0.436782677646035,    -0.276418849136268 ]
    - [    -0.268010310063555,    -0.276418847963749,    -0.166251555055151 ]
  - # (2, 10)
    - [    -0.011308755381028,     0.004464117709240,     0.002785432884368 ]
    - [     0.004464115691690,    -0.022594611248009,     0.000968564422846 ]
    - [     0.002785432437553,     0.000968562840153,    -0.023542551979534 ]
  - # (2, 11)
    - [    -0.755387062794757,    -0.264829430096892,     0.225206107256507 ]
    - [    -0.264829424177302,    -0.085864010002985,     0.078309338611620 ]
    - [     0.327187504066741,     0.113770617777390,    -0.109429657470881 ]
  - # (2, 12)
    - [    -0.755387074854950,     0.085880552092727,    -0.336863400631990 ]
    - [     0.177482369100285,    -0.029042094595764,     0.085964823071328 ]
    - [    -0.381688740554551,     0.050503545066885,    -0.166251561542928 ]
  - # (2, 13)
    - [    -0.755387074854950,     0.085880552092727,    -0.336863400631990 ]
    - [     0.177482369100285,    -0.029042094595764,     0.085964823071328 ]
    - [    -0.381688740554551,     0.050503545066885,    -0.166251561542928 ]
  - # (2, 14)
    - [    -0.755387062794757,    -0.264829430096892,     0.225206107256507 ]
    - [    -0.264829424177302,    -0.085864010002985,     0.078309338611620 ]
    - [     0.327187504066741,     0.113770617777390,    -0.109429657470881 ]
  - # (2, 15)
    - [    -0.011308755381028,     0.004464117709240,     0.002785432884368 ]
    - [     0.004464115691690,    -0.022594611248009,     0.000968564422846 ]
    - [     0.002785432437553,     0.000968562840153,    -0.023542551979534 ]
  - # (2, 16)
    - [    -0.347646492048532,    -0.337928087085060,    -0.210854260938386 ]
    - [    -0.429529906755502,    -0.436782677646035,    -0.276418849136268 ]
    - [    -0.268010310063555,    -0.276418847963749,    -0.166251555055151 ]
  - # (3, 1)
    - [     0.106647808429811,     0.043495731659166,     0.050689114545807 ]
    - [     0.043495737141012,    -0.008716976914553,    -0.017687488961984 ]
    - [     0.050689117154516,    -0.017687487099074,    -0.050992891473810 ]
  - # (3, 2)
    - [    -0.031136825924443,     0.143924285973209,     0.113663065182494 ]
    - [     0.143924281800626,    -0.394996048234319,     0.039523262411471 ]
    - [     0.113663066284778,     0.039523265091832,     0.068274744052445 ]
  - # (3, 3)
    - [     3.065137076943304,     0.562497330010745,     0.350976929666230 ]
    - [     0.562497330010745,     1.643071023936013,     0.122042747002531 ]
    - [     0.350976929666230,     0.122042747002531,     1.523627813185304 ]
  - # (3, 4)
    - [     0.104568433853635,     0.046124202805234,     0.028779754893146 ]
    - [     0.046124190026428,    -0.006637591706077,     0.045320629630954 ]
    - [     0.028779745825134,     0.045320636160550,    -0.050992898320043 ]
  - # (3, 5)
    - [     0.145607397989905,    -0.058060476614920,    -0.036227539691752 ]
    - [    -0.058060486680139,    -0.166764847981828,     0.173634234663071 ]
    - [    -0.036227528096641,     0.173634251985222,    -0.336700697337405 ]
  - # (3, 6)
    - [     0.273123872380365,     0.056840634723004,     0.035466396602625 ]
    - [     0.056840635295064,     0.129423369357357,     0.012332478325493 ]
    - [     0.035466395685806,     0.012332480962129,     0.117353587029779 ]
  - # (3, 7)
    - [     0.106647806354787,     0.064648335631477,     0.016788660461001 ]
    - [     0.064648321274568,    -0.056791535548703,     0.005837805457870 ]
    - [     0.016788666133278,     0.005837812896887,    -0.002918324715957 ]
  - # (3, 8)
    - [    -0.031136833169256,     0.165355654976839,     0.079315854416678 ]
    - [     0.165355637532070,     0.009979357080105,    -0.158651439961331 ]
    - [     0.079315845956421,    -0.158651454357252,    -0.336700684675283 ]
  - # (3, 9)
    - [    -0.755387058349554,     0.085880540530418,    -0.336863401003739 ]
    - [     0.177482362036909,    -0.029042113674010,     0.085964822321724 ]
    - [    -0.381688748330201,     0.050503547852095,    -0.166251556879601 ]
  - # (3, 10)
    - [    -0.755387056593693,    -0.264829423260656,     0.225206097223091 ]
    - [    -0.264829419143640,    -0.085863995863360,     0.078309337522076 ]
    - [     0.327187505293014,     0.113770620743937,    -0.109429662166808 ]
  - # (3, 11)
    - [    -0.011308758237866,     0.004464109360038,     0.002785438760510 ]
    - [     0.004464110472298,    -0.022594630782638,     0.000968556665985 ]
    - [     0.002785437193694,     0.000968561089432,    -0.023542543470621 ]
  - # (3, 12)
    - [    -0.347646495247941,    -0.337928076212177,    -0.210854253017976 ]
    - [    -0.429529876565754,    -0.436782634673990,    -0.276418830793822 ]
    - [    -0.268010313461268,    -0.276418856006876,    -0.166251561355485 ]
  - # (3, 13)
    - [    -0.347646495247941,    -0.337928076212177,    -0.210854253017976 ]
    - [    -0.429529876565754,    -0.436782634673990,    -0.276418830793822 ]
    - [    -0.268010313461268,    -0.276418856006876,    -0.166251561355485 ]
  - # (3, 14)
    - [    -0.011308758237866,     0.004464109360038,     0.002785438760510 ]
    - [     0.004464110472298,    -0.022594630782638,     0.000968556665985 ]
    - [     0.002785437193694,     0.000968561089432,    -0.023542543470621 ]
  - # (3, 15)
    - [    -0.755387056593693,    -0.264829423260656,     0.225206097223091 ]
    - [    -0.264829419143640,    -0.085863995863360,     0.078309337522076 ]
    - [     0.327187505293014,     0.113770620743936,    -0.109429662166808 ]
  - # (3, 16)
    - [    -0.755387058349554,     0.085880540530418,    -0.336863401003739 ]
    - [     0.177482362036909,    -0.029042113674010,     0.085964822321724 ]
    - [    -0.381688748330201,     0.050503547852095,    -0.166251556879601 ]
  - # (4, 1)
    - [    -0.031136830926879,     0.143924271298285,     0.113663073006287 ]
    - [     0.143924302536620,    -0.394996017442468,     0.039523257541134 ]
    - [     0.113663076172347,     0.039523259101264,     0.068274742666199 ]
  - # (4, 2)
    - [     0.106647805493661,     0.043495739094237,     0.050689119452465 ]
    - [     0.043495748985765,    -0.008716958390071,    -0.017687489018626 ]
    - [     0.050689130467048,    -0.017687486450654,    -0.050992901086970 ]
  - # (4, 3)
    - [     0.104568433853635,     0.046124190026428,     0.028779745825134 ]
    - [     0.046124202805234,    -0.006637591706077,     0.045320636160550 ]
    - [     0.028779754893146,     0.045320629630954,    -0.050992898320043 ]
  - # (4, 4)
    - [     3.065137208370966,     0.562497242856269,     0.350976848860977 ]
    - [     0.562497242856269,     1.643070808170431,     0.122042751330520 ]
    - [     0.350976848860977,     0.122042751330520,     1.523627912014921 ]
  - # (4, 5)
    - [     0.273123881086073,     0.056840637886461,     0.035466397549781 ]
    - [     0.056840639658502,     0.129423375739039,     0.012332477760205 ]
    - [     0.035466409417083,     0.012332482528783,     0.117353589510234 ]
  - # (4, 6)
    - [     0.145607399667653,    -0.058060487446957,    -0.036227532028333 ]
    - [    -0.058060483590606,    -0.166764838828844,     0.173634241251134 ]
    - [    -0.036227515697540,     0.173634220681934,    -0.336700683744254 ]
  - # (4, 7)
    - [    -0.031136832015596,     0.165355642772009,     0.079315834497516 ]
    - [     0.165355653207635,     0.009979377834117,    -0.158651434877030 ]
    - [     0.079315859081841,    -0.158651438307363,    -0.336700703363737 ]
  - # (4, 8)
    - [     0.106647805931344,     0.064648326574486,     0.016788670369799 ]
    - [     0.064648335772774,    -0.056791525992603,     0.005837801130222 ]
    - [     0.016788676616105,     0.005837801984063,    -0.002918326555736 ]
  - # (4, 9)
    - [    -0.755387088557352,    -0.264829396796271,     0.225206133755831 ]
    - [    -0.264829429589489,    -0.085863988537034,     0.078309348033232 ]
    - [     0.327187525301907,     0.113770603424951,    -0.109429668297636 ]
  - # (4, 10)
    - [    -0.755387087103096,     0.085880554475233,    -0.336863400512670 ]
    - [     0.177482383115948,    -0.029042089867200,     0.085964827935074 ]
    - [    -0.381688796355892,     0.050503555245827,    -0.166251584343320 ]
  - # (4, 11)
    - [    -0.347646495245497,    -0.337928059776039,    -0.210854258609988 ]
    - [    -0.429529898151528,    -0.436782637091378,    -0.276418855242726 ]
    - [    -0.268010300031678,    -0.276418826863473,    -0.166251561038772 ]
  - # (4, 12)
    - [    -0.011308764824484,     0.004464120566468,     0.002785446600014 ]
    - [     0.004464123508972,    -0.022594599196150,     0.000968558635366 ]
    - [     0.002785451180160,     0.000968557942945,    -0.023542551880579 ]
  - # (4, 13)
    - [    -0.011308764824484,     0.004464120566468,     0.002785446600014 ]
    - [     0.004464123508972,    -0.022594599196150,     0.000968558635366 ]
    - [     0.002785451180160,     0.000968557942945,    -0.023542551880579 ]
  - # (4, 14)
    - [    -0.347646495245497,    -0.337928059776039,    -0.210854258609988 ]
    - [    -0.429529898151528,    -0.436782637091378,    -0.276418855242726 ]
    - [    -0.268010300031678,    -0.276418826863473,    -0.166251561038772 ]
  - # (4, 15)
    - [    -0.755387087103096,     0.085880554475233,    -0.336863400512670 ]
    - [     0.177482383115948,    -0.029042089867200,     0.085964827935074 ]
    - [    -0.381688796355892,     0.050503555245827,    -0.166251584343320 ]
  - # (4, 16)
    - [    -0.755387088557352,    -0.264829396796271,     0.225206133755831 ]
    - [    -0.264829429589489,    -0.085863988537034,     0.078309348033232 ]
    - [     0.327187525301907,     0.113770603424951,    -0.109429668297636 ]
  - # (5, 1)
    - [     0.106647811192333,     0.064648318445012,     0.016788664756637 ]
    - [     0.064648337255566,    -0.056791539083579,     0.005837812212367 ]
    - [     0.016788667349769,     0.005837805670917,    -0.002918323468938 ]
  - # (5, 2)
    - [    -0.031136822724990,     0.165355640172052,     0.079315836371924 ]
    - [     0.165355651178700,     0.009979373198805,    -0.158651444361110 ]
    - [     0.079315833253148,    -0.158651423965997,    -0.336700683595148 ]
  - # (5, 3)
    - [     0.145607397989905,    -0.058060486680139,    -0.036227528096641 ]
    - [    -0.058060476614920,    -0.166764847981828,     0.173634251985222 ]
    - [    -0.036227539691752,     0.173634234663071,    -0.336700697337405 ]
  - # (5, 4)
    - [     0.273123881086073,     0.056840639658502,     0.035466409417083 ]
    - [     0.056840637886461,     0.129423375739039,     0.012332482528783 ]
    - [     0.035466397549781,     0.012332477760205,     0.117353589510234 ]
  - # (5, 5)
    - [     3.065137107558640,     0.562497266682085,     0.350977051031270 ]
    - [     0.562497266682085,     1.643070841396074,     0.122042678151707 ]
    - [     0.350977051031270,     0.122042678151707,     1.523627976525424 ]
  - # (5, 6)
    - [     0.104568435808760,     0.046124189498425,     0.028779746176278 ]
    - [     0.046124203220891,    -0.006637597220818,     0.045320642305883 ]
    - [     0.028779742625445,     0.045320635223148,    -0.050992903803412 ]
  - # (5, 7)
    - [     0.106647810531075,     0.043495741418549,     0.050689112872781 ]
    - [     0.043495740390348,    -0.008716952123271,    -0.017687478544858 ]
    - [     0.050689118529482,    -0.017687479510201,    -0.050992907647994 ]
  - # (5, 8)
    - [    -0.031136830139013,     0.143924282587134,     0.113663068036473 ]
    - [     0.143924289192956,    -0.394995991968262,     0.039523279184319 ]
    - [     0.113663076032521,     0.039523254186020,     0.068274740828006 ]
  - # (5, 9)
    - [    -0.755387056579367,    -0.264829415406974,     0.225206102536016 ]
    - [    -0.264829421001969,    -0.085863996956914,     0.078309342525178 ]
    - [     0.327187503285602,     0.113770613052340,    -0.109429659593234 ]
  - # (5, 10)
    - [    -0.755387081393807,     0.085880560102907,    -0.336863452166882 ]
    - [     0.177482381472739,    -0.029042094131414,     0.085964843519117 ]
    - [    -0.381688804056727,     0.050503560133182,    -0.166251611061173 ]
  - # (5, 11)
    - [    -0.347646496853082,    -0.337928059985130,    -0.210854271994221 ]
    - [    -0.429529906908427,    -0.436782638086383,    -0.276418861577147 ]
    - [    -0.268010313391931,    -0.276418824692963,    -0.166251570040180 ]
  - # (5, 12)
    - [    -0.011308760825136,     0.004464119398388,     0.002785441342184 ]
    - [     0.004464121841614,    -0.022594601803370,     0.000968563801695 ]
    - [     0.002785440823224,     0.000968560418007,    -0.023542554810797 ]
  - # (5, 13)
    - [    -0.011308760825136,     0.004464119398388,     0.002785441342184 ]
    - [     0.004464121841614,    -0.022594601803370,     0.000968563801695 ]
    - [     0.002785440823224,     0.000968560418007,    -0.023542554810797 ]
  - # (5, 14)
    - [    -0.347646496853082,    -0.337928059985130,    -0.210854271994221 ]
    - [    -0.429529906908427,    -0.436782638086383,    -0.276418861577147 ]
    - [    -0.268010313391931,    -0.276418824692963,    -0.166251570040180 ]
  - # (5, 15)
    - [    -0.755387081393807,     0.085880560102907,    -0.336863452166882 ]
    - [     0.177482381472739,    -0.029042094131414,     0.085964843519117 ]
    - [    -0.381688804056727,     0.050503560133182,    -0.166251611061173 ]
  - # (5, 16)
    - [    -0.755387056579367,    -0.264829415406974,     0.225206102536016 ]
    - [    -0.264829421001969,    -0.085863996956914,     0.078309342525178 ]
    - [     0.327187503285602,     0.113770613052340,    -0.109429659593234 ]
  - # (6, 1)
    - [    -0.031136823878650,     0.165355641485116,     0.079315836446643 ]
    - [     0.165355646394902,     0.009979352444793,    -0.158651444343785 ]
    - [     0.079315839972171,    -0.158651445117511,    -0.336700664906694 ]
  - # (6, 2)
    - [     0.106647805379854,     0.064648331501934,     0.016788666017426 ]
    - [     0.064648326757291,    -0.056791547025337,     0.005837805207452 ]
    - [     0.016788668036529,     0.005837805251178,    -0.002918321307373 ]
  - # (6, 3)
    - [     0.273123872380365,     0.056840635295064,     0.035466395685806 ]
    - [     0.056840634723004,     0.129423369357357,     0.012332480962129 ]
    - [     0.035466396602625,     0.012332478325493,     0.117353587029779 ]
  - # (6, 4)
    - [     0.145607399667653,    -0.058060483590606,    -0.036227515697540 ]
    - [    -0.058060487446957,    -0.166764838828844,     0.173634220681934 ]
    - [    -0.036227532028333,     0.173634241251134,    -0.336700683744254 ]
  - # (6, 5)
    - [     0.104568435808760,     0.046124203220891,     0.028779742625445 ]
    - [     0.046124189498425,    -0.006637597220818,     0.045320635223148 ]
    - [     0.028779746176278,     0.045320642305883,    -0.050992903803412 ]
  - # (6, 6)
    - [     3.065137075267812,     0.562497330808312,     0.350976930163881 ]
    - [     0.562497330808312,     1.643071020244170,     0.122042747175575 ]
    - [     0.350976930163881,     0.122042747175575,     1.523627809324102 ]
  - # (6, 7)
    - [    -0.031136825136577,     0.143924295241651,     0.113663061045603 ]
    - [     0.143924270477369,    -0.394996022760112,     0.039523260839151 ]
    - [     0.113663065312029,     0.039523283392093,     0.068274742214252 ]
  - # (6, 8)
    - [     0.106647804070862,     0.043495739723886,     0.050689121465635 ]
    - [     0.043495734286005,    -0.008716971455841,    -0.017687488416252 ]
    - [     0.050689118716462,    -0.017687490086657,    -0.050992901616559 ]
  - # (6, 9)
    - [    -0.755387059187300,     0.085880541215231,    -0.336863401213323 ]
    - [     0.177482362149662,    -0.029042115519932,     0.085964823726564 ]
    - [    -0.381688747622966,     0.050503546620300,    -0.166251558810202 ]
  - # (6, 10)
    - [    -0.755387057431439,    -0.264829422575842,     0.225206097013507 ]
    - [    -0.264829419030887,    -0.085863997709282,     0.078309338926916 ]
    - [     0.327187506000249,     0.113770619512141,    -0.109429664097409 ]
  - # (6, 11)
    - [    -0.011308759075613,     0.004464110044851,     0.002785438550926 ]
    - [     0.004464110585051,    -0.022594632628559,     0.000968558070825 ]
    - [     0.002785437900929,     0.000968559857637,    -0.023542545401222 ]
  - # (6, 12)
    - [    -0.347646496085687,    -0.337928075527364,    -0.210854253227560 ]
    - [    -0.429529876453001,    -0.436782636519912,    -0.276418829388982 ]
    - [    -0.268010312754033,    -0.276418857238672,    -0.166251563286086 ]
  - # (6, 13)
    - [    -0.347646496085687,    -0.337928075527364,    -0.210854253227560 ]
    - [    -0.429529876453001,    -0.436782636519912,    -0.276418829388982 ]
    - [    -0.268010312754033,    -0.276418857238672,    -0.166251563286086 ]
  - # (6, 14)
    - [    -0.011308759075613,     0.004464110044851,     0.002785438550926 ]