8
Lattice="4.218269622408543 0.002376451519501348 -0.00164677843478194 -2.112547681567254 4.626712736032148 -0.43070760052333595 0.004661887476309018 -0.9280330167343126 8.473086090228332" Properties=species:S:1:pos:R:3:forces:R:3 structure_index=0 total_energy=-23.576629638671875 stress="-0.02091396227478981 -0.0021491472143679857 -0.0008393604075536132 -0.0021492824889719486 -0.003932591062039137 -0.0186343714594841 -0.000839285203255713 -0.01863434910774231 -0.008011034689843655" pbc="T T T"
Li       4.02519642      -0.56498675       7.56895386      -0.00024987       0.00242724       0.01134312
Li       1.91473428       1.22127431       6.53720612      -0.00064691       0.00703243      -0.00102865
Li       4.02057726      -0.07878230       2.05552148       0.00126248      -0.04193900       0.00414776
Ga       4.02399595       0.07782776       4.70043405      -0.00015251       0.03636573       0.01852418
Ga       1.91052618       1.51041456       0.92002116      -0.00004358      -0.02077636      -0.00474339
Ga       1.91308317       1.59111924       3.52481362      -0.00044858       0.01126081      -0.00175215
Sn      -0.20006898       3.18234989       0.01606948       0.00038899      -0.01074656      -0.01232756
Sn      -0.19626305       2.97226044       5.25674889      -0.00011000       0.01637572      -0.01416330
10
Lattice="3.295597920442706 -0.0023367633948566807 0.0010339047707226042 0.002102625124747405 3.2956142445412944 0.0008772984524450644 -0.005664454046269617 -0.004387705312452171 17.986363672167837" Properties=species:S:1:pos:R:3:forces:R:3 structure_index=1 total_energy=-30.93893051147461 stress="-0.0016390862874686718 -0.0007472729193978012 -0.0001415820443071425 -0.0007472250727005303 -0.0014475838979706168 -0.0001875009766081348 -0.00014159125566948205 -0.0001876295282272622 0.0322176069021225" pbc="T T T"
Li       2.79914310       2.11352821      11.95494222       0.00028533       0.00018049      -0.02086172
Li       2.80019812       2.11477586       8.97943319      -0.00024131      -0.00061219       0.02364189
Li       2.80259633       2.11535257       1.48432554      -0.00008697       0.00016956      -0.00265132
Li       2.80171332       2.11492156       5.24622274      -0.00052536       0.00031630      -0.00197871
Li       2.79769220       2.11125692      15.69708218       0.00038805       0.00041638       0.00229731
Ga       1.15087298       0.46766362      10.46739920      -0.00014164      -0.00047014      -0.00113852
Sn       1.14989446       0.46592003      13.80911909      -0.00047543      -0.00018375       0.00068108
Sn       1.14838897       0.46405769      17.60387330       0.00010073       0.00053936      -0.02518076
Sn       1.15331380       0.46918366       3.34561699      -0.00000646      -0.00092919       0.01968548
Sn       1.15164223       0.46785373       7.12528677       0.00070305       0.00057318       0.00550527
12
Lattice="4.051807436769156 -0.0010143704463653964 1.1916070848091487 1.2944479091103918 6.88643174989115 3.088564463332764 -0.04986307512599076 0.19393063538696112 7.654837111668075" Properties=species:S:1:pos:R:3:forces:R:3 structure_index=2 total_energy=-34.31706237792969 stress="-0.003756017191335559 -0.009070221334695816 -0.002474141540005803 -0.009070177562534809 -0.01472702156752348 0.03270228952169418 -0.002474196022376418 0.03270244598388672 0.009268324822187424" pbc="T T T"
Li       1.62238478       3.03139512       9.12619529      -0.00272602      -0.00984552       0.00996707
Li       4.16187928       1.71059626       7.97541968       0.00363755       0.00803957      -0.01169634
Li       2.29195659       6.36147596       6.85490916       0.00079438       0.01247475      -0.00521909
Li       4.83741842       5.07184424       5.67961685      -0.00081225      -0.01195735       0.00373055
Li       0.89089862       2.27381853       4.12738711       0.00084119       0.00036513      -0.00043092
Li       1.51361427       5.81378640       9.49898950       0.00022212       0.00130466      -0.00016343
Ga       3.36444921       1.14739076       3.20566124      -0.00903974       0.01810565       0.02219852
Ga       3.23273423       3.84448374       3.64907805      -0.00047685      -0.00400565       0.00511166
Ga       2.47054996       3.39940779       6.23976913       0.00820898      -0.01748099      -0.02172464
Ga       2.60169510       0.70239143       5.79606149       0.00060740       0.00435416      -0.00351748
Sn       4.02283653       4.59566157       8.44961222      -0.00371379       0.00666563       0.01190148
Sn       3.10678649       6.83840416       4.08405070       0.00245703      -0.00802005      -0.01015740
7
Lattice="4.3967219440904755 0.00037564042042859266 1.3796344174318127 1.9794079603396133 3.9232544706809382 1.3774617053383784 -0.12038801599782191 -0.06788446291740576 8.069510182962391" Properties=species:S:1:pos:R:3:forces:R:3 structure_index=3 total_energy=-20.872722625732422 stress="0.030897965654730797 -0.008471340872347355 0.025528352707624435 -0.008471273817121983 0.03810972720384598 0.013852762058377266 0.025528190657496452 0.013852872885763645 -0.03339027613401413" pbc="T T T"
Li       2.10979351       2.43627350       2.03285889       0.00031909      -0.00010352      -0.00088378
Li       3.13659775       0.36804355       6.45267873       0.00747059       0.00431282      -0.02479110
Li       4.00827874       0.90007233       3.68056602      -0.00316006      -0.00170968       0.01030341
Ga       4.41720448       3.85547897       2.37266232       0.00126055       0.00031063      -0.00471507
Ga       1.17526773       1.86444733       5.00635635      -0.00766433      -0.00373963       0.02129271
Sn       4.75217695       1.36190808       8.99791989       0.00017696      -0.00033420       0.00307355
Sn       3.54124502       3.31938366       5.15995782       0.00159720       0.00126360      -0.00427970
16
Lattice="4.49335994844651 0.0008890841445506452 -0.0006193785185298724 -2.2476149036934987 6.054255824309759 -0.0781767682369109 0.0021277743182113434 0.031590628482063954 12.87815255254454" Properties=species:S:1:pos:R:3:forces:R:3 structure_index=4 total_energy=-50.04182052612305 stress="0.0004136298957746476 0.0005453485646285117 3.727297007571906e-05 0.000545317365322262 -0.008565941825509071 0.0016894383588805795 3.728212686837651e-05 0.0016894842265173793 -0.01840333268046379" pbc="T T T"
Li       0.55459641       2.34239516       7.60060531      -0.00003272      -0.00354914      -0.00036378
Li       2.80071059       0.19765627       3.22909024       0.00016665       0.02319197       0.00183992
Li       2.80143176       0.26617546       7.63719140       0.00012695      -0.00152060      -0.01191941
Li       0.55342100       4.29446648       1.06476852       0.00000399       0.00777229       0.00045556
Li       0.55582553       2.28162540      11.91782397      -0.00010245      -0.02915746      -0.02012975
Li       0.55482348       4.35821821       9.82705911      -0.00001770      -0.00964920      -0.00198094
Li       0.55401947       4.28890029       5.30218907      -0.00030500       0.01208878       0.01212738
Ga       0.55399051       0.27262629       1.12550887       0.00023283       0.00747410       0.01708687
Ga       2.80146939       2.25121046       9.76872660      -0.00023741       0.00127587       0.00464477
Sn       0.55468036       0.29895280       5.40472800      -0.00027651       0.01506416       0.00530045
Sn       2.80098405       4.27991495       7.58966960      -0.00004265      -0.01681277      -0.00212657
Sn       2.80231965       4.33969454      11.84841368      -0.00085436       0.00788278       0.00594222
Sn       0.55486713       0.40191373       9.76525234       0.00069078      -0.00886093      -0.01313422
Sn       2.80096037       2.24780079       5.37397172       0.00019152      -0.00691594       0.00584416
Sn       2.80003682       4.25041073       3.12921343       0.00049621      -0.01014187       0.00175010
Sn       2.80044788       2.02990129       1.02749493      -0.00004012       0.01185795      -0.00533677
12
Lattice="4.392336179758378 -0.00040991561281058104 -1.3062482490628018 -0.7688170848417754 5.684300376076294 -2.5884939375873 -0.042657649796418465 0.276078717175749 7.86412683600261" Properties=species:S:1:pos:R:3:forces:R:3 structure_index=5 total_energy=-32.99934005737305 stress="-0.0074378931894898415 0.00047966837882995605 -0.003977533895522356 0.0004795909335371107 -0.01945277862250805 0.006700655911117792 -0.003977670334279537 0.006700681056827307 -0.009832911193370819" pbc="T T T"
Li       2.80796157       1.60472967       3.69633168      -0.00846093       0.01809193      -0.02498035
Li       0.39769955       3.06037178       3.62848707       0.00128532      -0.00644989       0.00626276
Li       1.17766872       2.66723893       6.23704642       0.00150209      -0.01197168       0.00503659
Li       0.78810826       5.48858046       4.92638281      -0.00111151       0.01168307      -0.00419344
Li      -0.39650160       3.61510564       0.96580845       0.00749498      -0.02953399       0.02420065
Li       1.62817141       4.83613081      -0.26510523       0.00243798      -0.00024919       0.00930622
Ga       2.43302378       4.72069464       2.43320146       0.01075454      -0.02138058       0.04110456
Ga       0.00721309       0.41952279       2.32547364      -0.01019498       0.03212640      -0.03633558
Ga       3.18423675       4.01875961       4.94702563       0.00476924      -0.01125271       0.01468701
Ga       0.77496823       0.25389012       4.90053656      -0.00518422       0.01129777      -0.02091675
Ga       3.62666235       1.14470800      -1.57440207      -0.00455447       0.00209892      -0.02032254
Sn       2.02028817       2.10642373       1.05474547       0.00126199       0.00553999       0.00615095
12
Lattice="4.326905072617422 0.0068173082136787876 0.9894960939988903 1.7956497239014353 6.380706239836643 2.059331472159088 0.038637476455072366 -0.13460469381251264 9.785156281862431" Properties=species:S:1:pos:R:3:forces:R:3 structure_index=6 total_energy=-38.21570587158203 stress="-0.01309096161276102 -0.0023140613920986652 -0.0012611745623871684 -0.0023140383418649435 -0.013029300607740879 0.00795301329344511 -0.0012610224075615406 0.007953100837767124 -0.011560135520994663" pbc="T T T"
Li       2.93115581       4.35618379       7.51719952      -0.00770927      -0.00015425       0.03804583
Li       3.95832211       5.58372306       3.02159576      -0.00493950       0.00291627       0.01859612
Ga       4.61177842       3.77254258      10.13222493      -0.00467332       0.01750217       0.01150696
Ga       4.20719758       1.18083814       1.95985004      -0.00089923      -0.01269515       0.00221862
Ga       1.56446697       0.55866355       3.56933726      -0.00618994       0.00389839       0.01992725
Ga       2.57153749       1.65394857       9.11107522       0.00769029      -0.00308219      -0.03060969
Ga       5.65216765       5.13451453       5.56745329       0.00913167      -0.01677133      -0.03205283
Sn       1.92934084       3.18395001       1.94754822       0.00675317       0.01720653      -0.01769853
Sn       2.31995439       5.93387141      10.18250843      -0.00574943      -0.04031603       0.02699960
Sn       3.24292001       0.05682006       6.18618361       0.00470451      -0.03223826      -0.01900114
Sn       0.88435445       2.34667471       6.52956506      -0.00282433       0.04144364       0.00568047
Sn       3.56344809       2.95531185       4.76288182       0.00470540       0.02229021      -0.02361269
6
Lattice="4.610501051589159 0.006430730799642584 -0.0021383563498001694 -2.311169637716778 3.9893709179705334 -0.002995793884353307 0.002476263741089019 0.0068245020199349405 6.400324506078899" Properties=species:S:1:pos:R:3:forces:R:3 structure_index=7 total_energy=-17.795774459838867 stress="-0.02376003935933113 -0.00012033966049784794 4.340258237789385e-05 -0.000120274125947617 -0.023917613551020622 -7.330951484618708e-05 4.35175170423463e-05 -7.331568485824391e-05 -0.025153873488307" pbc="T T T"
Li       0.97816466       1.15101075       2.15259363       0.00017591       0.00018433       0.00051394
Ga      -1.32872959       2.48057775       3.55732256       0.00009837      -0.00068541       0.04152341
Ga      -1.32922215       2.47707519       0.74862000      -0.00029767       0.00013273      -0.04200698
Ga       0.97415497       3.81118088       0.74550821      -0.00053394      -0.00036364      -0.03960091
Ga       0.97463977       3.81450508       3.55554553      -0.00008503       0.00007247       0.03914195
Sn       0.97905197       1.15406909       5.35313232       0.00064237       0.00065953       0.00042858
18
Lattice="7.088067447268853 -0.25778590051493144 2.844987361190291 -0.1600766332508438 6.007938976790496 3.075257691496875 0.3648185586975813 -0.13364411496497328 7.632189663372598" Properties=species:S:1:pos:R:3:forces:R:3 structure_index=8 total_energy=-49.61498260498047 stress="0.00577584421262145 -8.935710866353475e-06 0.0013783890753984451 -8.825129953038413e-06 0.006937494035810232 -0.00030125127523206174 0.001378426211886108 -0.0003010793589055538 0.006518061738461256" pbc="T T T"
Li       3.92823713       1.12616149       2.52081816       0.03387614       0.00315033       0.00525056
Li       7.18053730       0.18047387      10.38710556       0.01762284       0.00167230       0.00602046
Li       6.37866157       2.99287767       9.26039447      -0.00364481       0.02509085      -0.00544932
Li       5.63663225       2.44469984       4.79062933       0.00167758       0.00313962      -0.00217297
Li       5.18186652       5.01960399      11.49280074      -0.02340769      -0.01982952       0.01820674
Li       3.35406794       0.36448592       5.36909673      -0.01184561      -0.01355947      -0.00079721
Li       0.28915254       3.96449571       3.76312813       0.03647261       0.01212712      -0.03438055
Li       6.28966137      -0.17313038       5.74053733      -0.02405198      -0.01150638      -0.00643549
Li       1.83903969       5.17731353       6.03663059       0.01452915      -0.01926239      -0.02708515
Li       3.49033098       3.70676719       9.28541051      -0.02134363       0.01356588       0.03026418
Li       2.20409873       2.49553431       7.05006896       0.00281308       0.01686089       0.00777994
Ga       4.93774776       1.57055078       7.47695066       0.00162558       0.01871297      -0.00849530
Ga       0.53987593       1.33833192       4.83119968      -0.02523870       0.00428678       0.00432446
Ga       1.16893390       1.74291189       2.05327908      -0.00549388      -0.00060795       0.01577057
Ga       2.77920508      -0.06567082       7.99848778      -0.00306865      -0.00257742      -0.01211218
Sn       4.64512540       4.47392505       6.80229081       0.00863587      -0.02633141       0.01400330
Sn       2.89331242       3.02900338       4.32089885       0.00663035      -0.01004281       0.01229970
Sn       0.80081689       4.53463017       8.56882291      -0.00578824       0.00511060      -0.01699174
7
Lattice="4.475917576803638 -0.009361371822181955 1.2124067665103127 2.0664761409154804 3.974862207851238 1.2171910742657062 0.2615961672052992 0.16709354048448366 8.020053748235204" Properties=species:S:1:pos:R:3:forces:R:3 structure_index=9 total_energy=-20.78388214111328 stress="0.03728613257408142 0.0032030243892222643 0.01900688000023365 0.003203060245141387 0.03189405798912048 0.008368776179850101 0.01900688000023365 0.00836867094039917 -0.047899067401885986" pbc="T T T"
Li       3.41026633       1.18558447       5.70376184       0.00623752       0.00314077      -0.02983865
Li       5.25411155       2.30488004       7.77721123      -0.00630218      -0.00339444       0.03005031
Li       4.20124162       1.66167153       2.73069827       0.00017109      -0.00007197      -0.00036068
Ga       3.48408551       3.95200490       5.40721340      -0.00639373      -0.00387095       0.02317184
Ga       2.77123822       3.52270676       8.07709075       0.00600989       0.00383030      -0.02188753
Sn       2.66753718       0.73793097       8.48318199      -0.01500303      -0.00973828       0.04678918
Sn       1.52092084       2.76167543       3.78531409       0.01528042       0.01010457      -0.04792447
12
Lattice="4.447409072915054 -0.0017333617201425303 0.0014077542285141622 0.002304089661321708 6.421298554622093 0.007743595012540218 -0.002168602929484866 -0.00908644734051463 8.218517469427685" Properties=species:S:1:pos:R:3:forces:R:3 structure_index=10 total_energy=-35.134342193603516 stress="0.02370985597372055 -0.0003885610494762659 3.625953468144871e-05 -0.0003884967300109565 0.013048527762293816 -0.00010632968769641593 3.633772939792834e-05 -0.00010610415483824909 0.020949838683009148" pbc="T T T"
Li       0.31195221       1.09220509       0.84682656      -0.00007514      -0.00598983      -0.03560944
Li       0.31081946       4.29455934       8.03186699      -0.00003758      -0.00657418       0.03508859
Li       2.53445887       1.01398007       4.07875525       0.00005583      -0.00559657       0.04373418
Li       2.53541405       4.22516849       4.79923636       0.00000819      -0.00828194      -0.04207619
Ga       0.31192579       2.86596725       3.10486017      -0.00009163       0.02591360       0.01380241
Ga       0.31273140       5.52070018       3.26142737       0.00020587      -0.02508503       0.00373573
Ga       0.31192921       6.07303098       5.77764597       0.00006258       0.02590929      -0.01396957
Ga       2.53602336       2.81647168       1.79031902       0.00001756       0.00352964       0.01176027
Ga       0.31078676       2.30667555       5.61963265       0.00004286      -0.02391329      -0.00402679
Ga       2.53519741       6.02066499       7.09328081       0.00017967       0.00374453      -0.01204630
Sn       2.53704951       5.62724302       1.62795462      -0.00042500       0.00753743      -0.01061681
Sn       2.53405902       2.40979867       7.25478512       0.00005679       0.00880636       0.01022387
8
Lattice="4.166480948173405 -0.0074998721866432845 -0.00012630579128506146 -2.072627008379507 5.974528910887858 -0.0030024418888848115 0.0008435773137867205 0.002198553335523292 6.780659870063187" Properties=species:S:1:pos:R:3:forces:R:3 structure_index=11 total_energy=-23.921689987182617 stress="-0.008282859809696674 0.005819887388497591 -1.133942168962676e-05 0.005819898098707199 -0.03836352005600929 -0.00014691091200802475 -1.1377679584256839e-05 -0.00014699318853672594 0.03145016357302666" pbc="T T T"
Li      -0.15523138       4.28122250       1.55070663       0.00121848       0.00727958       0.00023312
Li      -0.15054023       5.29532323       4.94303030      -0.00100893      -0.00810971      -0.00138863
Ga       1.92835088       3.53885361       3.59262939      -0.00104752      -0.00576430      -0.01212725
Ga       4.00502315       0.05371776       2.90245106       0.00122219       0.00669950       0.01202610
Ga       4.00530384       0.05398867       0.20325180       0.00048868       0.00555924      -0.01105532
Ga       1.92846203       3.53966178       6.29168205      -0.00073589      -0.00590256       0.01141048
Sn      -0.15808942       1.99664404       4.94199743       0.00179970       0.03699430       0.00095761
Sn       1.92523995       1.60405412       1.55241880      -0.00193672      -0.03675608      -0.00005612
10
Lattice="3.012079329853919 -0.004478187643908643 0.0031504440755829506 0.011256952891164148 7.912590990002983 0.006028400781732826 -0.008931745352041654 -0.005605865830422471 7.907210649312352" Properties=species:S:1:pos:R:3:forces:R:3 structure_index=12 total_energy=-28.90841293334961 stress="-0.018438730388879776 -0.001962490612640977 -0.0014326978707686067 -0.0019623825792223215 0.012076866813004017 5.766638059867546e-05 -0.001432733959518373 5.794508251710795e-05 0.01012831088155508" pbc="T T T"
Li       1.05802332       1.87506910       5.15878024       0.00088159       0.02959429       0.03021014
Li       1.06261652       5.82868194       6.29662958       0.00009280       0.03155051      -0.02970756
Li       1.06857934       6.96682981       2.34681184       0.00082379      -0.02784374      -0.03028592
Li       1.06613476       3.01852787       1.20842664      -0.00228186      -0.03587496       0.03013361
Ga       2.56493560       3.48831639       6.77834213       0.00049708       0.00636518       0.00783254
Ga       2.57473697       5.35043118       0.72933418      -0.00014770      -0.00396830      -0.00967993
Ga       2.57238263       7.44742476       4.68444725       0.00064061       0.00783847      -0.00539893
Ga       2.56730966       1.39308199       2.82181537      -0.00102780      -0.00933896       0.00591755
Sn       2.55992373       0.45949413       7.70536198      -0.00017966       0.00244966       0.00013933
Sn       2.56919207       4.41992629       3.75448200       0.00070117      -0.00077212       0.00083917
11
Lattice="4.056171394563272 -0.0012381208883967942 -1.1382879956144272 -0.34453277935858445 6.274726378805343 -1.238337014722931 -0.005528607849852074 -0.28990409532798367 7.768680958003621" Properties=species:S:1:pos:R:3:forces:R:3 structure_index=13 total_energy=-31.202857971191406 stress="0.006115845870226622 0.0058769299648702145 0.002415507100522518 0.0058767893351614475 -0.0036110510118305683 0.0031132984440773726 0.0024154309649020433 0.003113225568085909 -0.006103226915001869" pbc="T T T"
Li       1.84887507       1.44617802       3.51867702       0.00822521       0.00086704       0.03091623
Li       2.05305811       4.22407688       4.24160626      -0.00815064      -0.01552969      -0.03028512
Li       1.07278044       2.09578817       0.75665876       0.00602809      -0.00129835       0.01976061
Li      -0.25487551       5.93909590       3.80993729      -0.00612867      -0.00624525      -0.02212244
Li       2.82612753       3.77727541      -0.79571096      -0.00001787       0.01427850       0.00125012
Li       3.35880773       0.39620441       1.10844288       0.00020829       0.01021278      -0.00076863
Ga       0.50601344       5.43842318      -1.26751429       0.00306093      -0.01502191       0.00893187
Ga       3.61135901       3.04577191       2.00286729      -0.00383652      -0.00058292      -0.01672681
Ga       0.27236168       2.60036183       5.69338776      -0.00094877      -0.00028663      -0.00354912
Sn       1.27726285       4.90317835       1.47727205       0.00146781       0.03306875       0.00794579
Sn       2.60422479       0.74658189       6.20784773       0.00009212      -0.01946233       0.00464750
4
Lattice="4.362350763189656 -0.0006847118110732708 0.0018207304991776448 0.0015588812296462237 4.540802878487236 -0.0003486426027844279 -0.000878445744119789 0.00020142067989285562 4.538305326708983" Properties=species:S:1:pos:R:3:forces:R:3 structure_index=14 total_energy=-13.074100494384766 stress="0.04545795917510986 0.002928532427176833 0.003591004991903901 0.002928509609773755 -0.043182000517845154 -0.0006183591904118657 0.00359105272218585 -0.0006183562218211591 -0.05204183608293533" pbc="T T T"
Li       1.56015470       0.67059544       3.74212056      -0.00015428       0.00009245      -0.00006682
Ga       1.56134787       2.94143078       1.47235697      -0.00019267      -0.00088022       0.00155133
Sn       3.74071292       0.66994742       1.47438100       0.00152458       0.00074291       0.00043825
Sn       3.74297044       2.94045194       3.74382861      -0.00117763       0.00004485      -0.00192277
16
Lattice="5.75064221626916 0.00011691322865340958 -0.022527999714584232 0.0016265951690818566 5.636372278016948 -1.6206846244351266e-05 0.03419658959686144 0.0008953785583427611 9.321207463891906" Properties=species:S:1:pos:R:3:forces:R:3 structure_index=15 total_energy=-45.971981048583984 stress="-0.009822141379117966 -0.00025191029999405146 -0.0003545363142620772 -0.0002519833797123283 0.008139128796756268 -3.81226564059034e-05 -0.00035449236747808754 -3.7928533856756985e-05 -0.01353324856609106" pbc="T T T"
Li       1.51107003       2.65721407       6.12778757      -0.01117791       0.00110328       0.00134050
Li       4.46167705       2.65414800       1.45404170       0.00882752       0.00162137       0.00228633
Li       4.46700602       5.47225457       1.45800152       0.00808484       0.00301067      -0.00164903
Li       1.50921375       5.47569608       6.12953554      -0.01178263      -0.00063282      -0.00168693
Ga       4.54078760       4.07437192       6.21184397       0.00653174      -0.00130604      -0.03929459
Ga       0.12547083       1.25673967       8.46168726      -0.01161837      -0.00156828      -0.00183008
Ga       2.98603554       4.04858179       8.44764819       0.00616599       0.00156688       0.00468482
Ga       4.53921949       1.25712818       6.02330314       0.00749696      -0.00073073       0.03666966
Ga       2.98842159       1.24855211       3.78568057      -0.00170150       0.00478036       0.00099116
Ga       1.41877973       4.06717601       1.37221382      -0.00598379      -0.00088193       0.04018583
Ga       1.41249221       1.24999104       1.56301938       0.00258353       0.00025311      -0.03394133
Ga       0.11374989       4.07124083       8.46733565       0.00060151       0.00049780      -0.00572232
Ga       0.11527370       1.24957014       3.81125689      -0.00440345      -0.00133090       0.00348388
Ga       0.12129664       4.06745039       3.81016967      -0.00903859      -0.00082911      -0.00101757
Sn       2.99361439       4.06854962       3.78557329       0.00541264      -0.00772725       0.00100399
Sn       2.99793144       1.23156130       8.45955840       0.01000149       0.00217360      -0.00550442
4
Lattice="4.0557640071698655 0.0016633618251026584 -0.0008600881161017438 -0.0018187308823323118 4.055426976298406 -0.0009627503759195118 0.0010337478636273697 0.0011598305361186722 4.448935375873453" Properties=species:S:1:pos:R:3:forces:R:3 structure_index=16 total_energy=-11.800254821777344 stress="0.026603886857628822 -0.0014569428749382496 0.0002935340744443238 -0.0014570008497685194 0.024867136031389236 0.00033492001239210367 0.0002934899821411818 0.00033507804619148374 0.10188659280538559" pbc="T T T"
Li       1.03128002       1.39911653       1.27458927      -0.00023103      -0.00005784       0.00121826
Li       3.05814057       3.42745594       1.27365179       0.00000755       0.00034261       0.00125484
Ga       3.05949734       1.40044822       3.49806619       0.00000987       0.00069339       0.00078641
Sn       1.03068145       3.42756976       3.49965661       0.00021362      -0.00097816      -0.00325951
14
Lattice="5.661536399376507 0.19556875469754875 -0.2311306318293943 -0.432878983743195 5.325176376799466 -1.3144506684839208 -0.009391922596450277 -0.011252316219151962 9.101073222775177" Properties=species:S:1:pos:R:3:forces:R:3 structure_index=17 total_energy=-41.17997741699219 stress="0.016158070415258408 -0.003571104258298874 -0.0006641811924055219 -0.003570809029042721 0.018782051280140877 0.0019921441562473774 -0.0006640726933255792 0.0019922570791095495 0.027397068217396736" pbc="T T T"
Li       5.17508351       2.68067996       2.03692225       0.00594226      -0.01672463       0.00541864
Li       2.02134710       4.23616171       6.54362100      -0.02720825      -0.00079427       0.02227528
Ga       3.66765051       3.12301538       4.43501128      -0.02047439      -0.00115514       0.01020217
Ga       4.08723945       0.67413386       0.28048605       0.03984214      -0.01210401      -0.02594441
Ga       2.76810962       1.46835147       6.66752876       0.02808343      -0.01953256      -0.01865892
Ga       2.31718860       2.10479606       2.23350163       0.00554430       0.00995046      -0.01238178
Ga       5.25096578       0.27333752       6.61385968       0.02745798      -0.02676661       0.00276335
Ga       5.08986317       3.25690591       6.85171234      -0.01795326      -0.00650138       0.02206630
Ga       1.02879073       1.47942475      -0.26462372       0.02809106       0.01511058      -0.03027029
Ga       3.43593852       3.38131610      -0.10666942      -0.01291499       0.02287658       0.01048960
Ga       0.82215331       2.16440130       4.77768613      -0.01183467       0.00147246       0.00644658
Ga       1.16750679       4.71035925       3.59003386      -0.00609158      -0.00361955      -0.00455438
Sn       3.82321308       5.46772589       2.32070996      -0.01619866       0.00367680       0.00671731
Sn       0.79055112       4.57028313       0.45492666      -0.02228538       0.03411126       0.00543052
12
Lattice="4.371572571236771 7.34824128832873e-05 0.0018620867088265324 -0.00011090000042235329 6.122490953265302 0.0032376109290914593 -0.0040805388802022426 -0.004305824700860219 9.171174665723452" Properties=species:S:1:pos:R:3:forces:R:3 structure_index=18 total_energy=-37.02491760253906 stress="0.0096169114112854 -5.937795776844723e-06 -6.067546200938523e-05 -5.940226856182562e-06 0.021111542358994484 0.00020596028480213135 -6.0697970184264705e-05 0.00020599433628376573 0.02471393160521984" pbc="T T T"
Li       0.60379236       4.52502728       7.68165133      -0.00038862      -0.01204363      -0.01695214
Li       0.60457854       1.60646139       4.86529296       0.00030228       0.00224719       0.01216100
Li       2.79282955       3.02430346       0.28174740       0.00005813      -0.00202322       0.01145137
Li       2.79105946       6.22352758       3.09714484       0.00049015       0.01553779      -0.01639147
Ga       0.60338755       1.51603284       7.93469190       0.00012955      -0.02845514      -0.01020679
Ga       0.60626073       4.62833950       1.63365045       0.00002116       0.03773382       0.00508208
Ga       2.79015764      -0.00011330       6.21766449      -0.00051754      -0.03504355       0.00644059