phonopy:
  version: "2.37.1"
  frequency_unit_conversion_factor: 15.633302
  symmetry_tolerance: 1.00000e-05

space_group:
  type: "P1"
  number: 1
  Hall_symbol: "P 1"

primitive_matrix:
- [ -1.000000000000000, -1.000000000000000,  0.000000000000000 ]
- [  0.000000000000000, -1.000000000000000,  0.000000000000000 ]
- [  0.000000000000000,  0.000000000000000,  1.000000000000000 ]

supercell_matrix:
- [   3,   0,   0 ]
- [   0,   2,   0 ]
- [   0,   0,   1 ]

primitive_cell:
  lattice:
  - [    -4.694401861484391,     0.000000000000000,     0.000000000000000 ] # a
  - [    -2.346803827989204,    -4.862054661616981,     0.000000000000000 ] # b
  - [    -2.346720614376850,    -1.110704581007238,    10.363736916238640 ] # c
  points:
  - symbol: Li # 1
    coordinates: [  0.651724561121621,  0.966259677422939,  0.531298618898659 ]
    mass: 6.940000
  - symbol: Li # 2
    coordinates: [  0.868333151634224,  0.847255868405789,  0.217532131179240 ]
    mass: 6.940000
  - symbol: Li # 3
    coordinates: [  0.112735685342283,  0.662972114189334,  0.909671137348057 ]
    mass: 6.940000
  - symbol: Li # 4
    coordinates: [  0.405591848244933,  0.148765258878870,  0.840157242848769 ]
    mass: 6.940000
  - symbol: Li # 5
    coordinates: [  0.022662378312153,  0.081748987235549,  0.674437765222037 ]
    mass: 6.940000
  - symbol: Li # 6
    coordinates: [  0.729073287095688,  0.580264428028139,  0.760114477538158 ]
    mass: 6.940000
  - symbol: Li # 7
    coordinates: [  0.945693379846324,  0.461375961414650,  0.446359264042437 ]
    mass: 6.940000
  - symbol: Li # 8
    coordinates: [  0.191890832214898,  0.278660097165417,  0.137451518394721 ]
    mass: 6.940000
  - symbol: Li # 9
    coordinates: [  0.574766206385018,  0.345822561522900,  0.303233655798224 ]
    mass: 6.940000
  - symbol: Li # 10
    coordinates: [  0.484661174207612,  0.764386585047854,  0.067938049048262 ]
    mass: 6.940000
  - symbol: Sn # 11
    coordinates: [  0.265071915705092,  0.905817417865843,  0.365131925044032 ]
    mass: 118.710000
  - symbol: Sn # 12
    coordinates: [  0.332323307017621,  0.521794682287572,  0.612519469648246 ]
    mass: 118.710000
  - symbol: Sn # 13
    coordinates: [  0.798760260811180,  0.213677692362644,  0.988798657479006 ]
    mass: 118.710000
  reciprocal_lattice: # without 2pi
  - [    -0.213019683765164,     0.102819783834120,    -0.037215849973254 ] # a*
  - [    -0.000000000000000,    -0.205674363946256,    -0.022042575962432 ] # b*
  - [    -0.000000000000000,    -0.000000000000000,     0.096490291878514 ] # c*

unit_cell:
  lattice:
  - [     4.694401861484391,     0.000000000000000,     0.000000000000000 ] # a
  - [    -2.347598033495187,     4.862054661616981,     0.000000000000000 ] # b
  - [    -2.346720614376851,    -1.110704581007238,    10.363736916238640 ] # c
  points:
  - symbol: Li # 1
    coordinates: [  0.382015761455440,  0.033740322577061,  0.531298618898659 ]
    mass: 6.940000
    reduced_to: 1
  - symbol: Li # 2
    coordinates: [  0.284410979959987,  0.152744131594211,  0.217532131179240 ]
    mass: 6.940000
    reduced_to: 2
  - symbol: Li # 3
    coordinates: [  0.224292200468383,  0.337027885810666,  0.909671137348057 ]
    mass: 6.940000
    reduced_to: 3
  - symbol: Li # 4
    coordinates: [  0.445642892876198,  0.851234741121130,  0.840157242848769 ]
    mass: 6.940000
    reduced_to: 4
  - symbol: Li # 5
    coordinates: [  0.895588634452299,  0.918251012764451,  0.674437765222037 ]
    mass: 6.940000
    reduced_to: 5
  - symbol: Li # 6
    coordinates: [  0.690662284876173,  0.419735571971861,  0.760114477538158 ]
    mass: 6.940000
    reduced_to: 6
  - symbol: Li # 7
    coordinates: [  0.592930658739027,  0.538624038585350,  0.446359264042437 ]
    mass: 6.940000
    reduced_to: 7
  - symbol: Li # 8
    coordinates: [  0.529449070619685,  0.721339902834583,  0.137451518394721 ]
    mass: 6.940000
    reduced_to: 8
  - symbol: Li # 9
    coordinates: [  0.079411232092082,  0.654177438477100,  0.303233655798224 ]
    mass: 6.940000
    reduced_to: 9
  - symbol: Li # 10
    coordinates: [  0.750952240744535,  0.235613414952146,  0.067938049048262 ]
    mass: 6.940000
    reduced_to: 10
  - symbol: Sn # 11
    coordinates: [  0.829110666429065,  0.094182582134157,  0.365131925044032 ]
    mass: 118.710000
    reduced_to: 11
  - symbol: Sn # 12
    coordinates: [  0.145882010694807,  0.478205317712428,  0.612519469648246 ]
    mass: 118.710000
    reduced_to: 12
  - symbol: Sn # 13
    coordinates: [  0.987562046826177,  0.786322307637356,  0.988798657479006 ]
    mass: 118.710000
    reduced_to: 13

supercell:
  lattice:
  - [    14.083205584453175,     0.000000000000000,     0.000000000000000 ] # a
  - [    -4.695196066990373,     9.724109323233963,     0.000000000000000 ] # b
  - [    -2.346720614376851,    -1.110704581007238,    10.363736916238640 ] # c
  points:
  - symbol: Li # 1
    coordinates: [  0.127338587151813,  0.016870161288530,  0.531298618898659 ]
    mass: 6.940000
    reduced_to: 1
  - symbol: Li # 2
    coordinates: [  0.460671920485147,  0.016870161288530,  0.531298618898659 ]
    mass: 6.940000
    reduced_to: 1
  - symbol: Li # 3
    coordinates: [  0.794005253818480,  0.016870161288530,  0.531298618898659 ]
    mass: 6.940000
    reduced_to: 1
  - symbol: Li # 4
    coordinates: [  0.127338587151813,  0.516870161288530,  0.531298618898659 ]
    mass: 6.940000
    reduced_to: 1
  - symbol: Li # 5
    coordinates: [  0.460671920485147,  0.516870161288530,  0.531298618898659 ]
    mass: 6.940000
    reduced_to: 1
  - symbol: Li # 6
    coordinates: [  0.794005253818480,  0.516870161288530,  0.531298618898659 ]
    mass: 6.940000
    reduced_to: 1
  - symbol: Li # 7
    coordinates: [  0.094803659986662,  0.076372065797105,  0.217532131179240 ]
    mass: 6.940000
    reduced_to: 7
  - symbol: Li # 8
    coordinates: [  0.428136993319996,  0.076372065797105,  0.217532131179240 ]
    mass: 6.940000
    reduced_to: 7
  - symbol: Li # 9
    coordinates: [  0.761470326653329,  0.076372065797105,  0.217532131179240 ]
    mass: 6.940000
    reduced_to: 7
  - symbol: Li # 10
    coordinates: [  0.094803659986662,  0.576372065797105,  0.217532131179240 ]
    mass: 6.940000
    reduced_to: 7
  - symbol: Li # 11
    coordinates: [  0.428136993319996,  0.576372065797105,  0.217532131179240 ]
    mass: 6.940000
    reduced_to: 7
  - symbol: Li # 12
    coordinates: [  0.761470326653329,  0.576372065797105,  0.217532131179240 ]
    mass: 6.940000
    reduced_to: 7
  - symbol: Li # 13
    coordinates: [  0.074764066822794,  0.168513942905333,  0.909671137348057 ]
    mass: 6.940000
    reduced_to: 13
  - symbol: Li # 14
    coordinates: [  0.408097400156128,  0.168513942905333,  0.909671137348057 ]
    mass: 6.940000
    reduced_to: 13
  - symbol: Li # 15
    coordinates: [  0.741430733489461,  0.168513942905333,  0.909671137348057 ]
    mass: 6.940000
    reduced_to: 13
  - symbol: Li # 16
    coordinates: [  0.074764066822794,  0.668513942905333,  0.909671137348057 ]
    mass: 6.940000
    reduced_to: 13
  - symbol: Li # 17
    coordinates: [  0.408097400156128,  0.668513942905333,  0.909671137348057 ]
    mass: 6.940000
    reduced_to: 13
  - symbol: Li # 18
    coordinates: [  0.741430733489461,  0.668513942905333,  0.909671137348057 ]
    mass: 6.940000
    reduced_to: 13
  - symbol: Li # 19
    coordinates: [  0.148547630958732,  0.425617370560565,  0.840157242848769 ]
    mass: 6.940000
    reduced_to: 19
  - symbol: Li # 20
    coordinates: [  0.481880964292066,  0.425617370560565,  0.840157242848769 ]
    mass: 6.940000
    reduced_to: 19
  - symbol: Li # 21
    coordinates: [  0.815214297625399,  0.425617370560565,  0.840157242848769 ]
    mass: 6.940000
    reduced_to: 19
  - symbol: Li # 22
    coordinates: [  0.148547630958732,  0.925617370560565,  0.840157242848769 ]
    mass: 6.940000
    reduced_to: 19
  - symbol: Li # 23
    coordinates: [  0.481880964292066,  0.925617370560565,  0.840157242848769 ]
    mass: 6.940000
    reduced_to: 19
  - symbol: Li # 24
    coordinates: [  0.815214297625399,  0.925617370560565,  0.840157242848769 ]
    mass: 6.940000
    reduced_to: 19
  - symbol: Li # 25
    coordinates: [  0.298529544817433,  0.459125506382226,  0.674437765222037 ]
    mass: 6.940000
    reduced_to: 25
  - symbol: Li # 26
    coordinates: [  0.631862878150766,  0.459125506382226,  0.674437765222037 ]
    mass: 6.940000
    reduced_to: 25
  - symbol: Li # 27
    coordinates: [  0.965196211484100,  0.459125506382226,  0.674437765222037 ]
    mass: 6.940000
    reduced_to: 25
  - symbol: Li # 28
    coordinates: [  0.298529544817433,  0.959125506382226,  0.674437765222037 ]
    mass: 6.940000
    reduced_to: 25
  - symbol: Li # 29
    coordinates: [  0.631862878150766,  0.959125506382226,  0.674437765222037 ]
    mass: 6.940000
    reduced_to: 25
  - symbol: Li # 30
    coordinates: [  0.965196211484100,  0.959125506382226,  0.674437765222037 ]
    mass: 6.940000
    reduced_to: 25
  - symbol: Li # 31
    coordinates: [  0.230220761625391,  0.209867785985931,  0.760114477538158 ]
    mass: 6.940000
    reduced_to: 31
  - symbol: Li # 32
    coordinates: [  0.563554094958724,  0.209867785985931,  0.760114477538158 ]
    mass: 6.940000
    reduced_to: 31
  - symbol: Li # 33
    coordinates: [  0.896887428292058,  0.209867785985931,  0.760114477538158 ]
    mass: 6.940000
    reduced_to: 31
  - symbol: Li # 34
    coordinates: [  0.230220761625391,  0.709867785985930,  0.760114477538158 ]
    mass: 6.940000
    reduced_to: 31
  - symbol: Li # 35
    coordinates: [  0.563554094958724,  0.709867785985930,  0.760114477538158 ]
    mass: 6.940000
    reduced_to: 31
  - symbol: Li # 36
    coordinates: [  0.896887428292058,  0.709867785985930,  0.760114477538158 ]
    mass: 6.940000
    reduced_to: 31
  - symbol: Li # 37
    coordinates: [  0.197643552913009,  0.269312019292675,  0.446359264042437 ]
    mass: 6.940000
    reduced_to: 37
  - symbol: Li # 38
    coordinates: [  0.530976886246342,  0.269312019292675,  0.446359264042437 ]
    mass: 6.940000
    reduced_to: 37
  - symbol: Li # 39
    coordinates: [  0.864310219579676,  0.269312019292675,  0.446359264042437 ]
    mass: 6.940000
    reduced_to: 37
  - symbol: Li # 40
    coordinates: [  0.197643552913009,  0.769312019292675,  0.446359264042437 ]
    mass: 6.940000
    reduced_to: 37
  - symbol: Li # 41
    coordinates: [  0.530976886246342,  0.769312019292675,  0.446359264042437 ]
    mass: 6.940000
    reduced_to: 37
  - symbol: Li # 42
    coordinates: [  0.864310219579676,  0.769312019292675,  0.446359264042437 ]
    mass: 6.940000
    reduced_to: 37
  - symbol: Li # 43
    coordinates: [  0.176483023539895,  0.360669951417292,  0.137451518394721 ]
    mass: 6.940000
    reduced_to: 43
  - symbol: Li # 44
    coordinates: [  0.509816356873228,  0.360669951417292,  0.137451518394721 ]
    mass: 6.940000
    reduced_to: 43
  - symbol: Li # 45
    coordinates: [  0.843149690206562,  0.360669951417292,  0.137451518394721 ]
    mass: 6.940000
    reduced_to: 43
  - symbol: Li # 46
    coordinates: [  0.176483023539895,  0.860669951417292,  0.137451518394721 ]
    mass: 6.940000
    reduced_to: 43
  - symbol: Li # 47
    coordinates: [  0.509816356873228,  0.860669951417292,  0.137451518394721 ]
    mass: 6.940000
    reduced_to: 43
  - symbol: Li # 48
    coordinates: [  0.843149690206562,  0.860669951417292,  0.137451518394721 ]
    mass: 6.940000
    reduced_to: 43
  - symbol: Li # 49
    coordinates: [  0.026470410697361,  0.327088719238550,  0.303233655798224 ]
    mass: 6.940000
    reduced_to: 49
  - symbol: Li # 50
    coordinates: [  0.359803744030694,  0.327088719238550,  0.303233655798224 ]
    mass: 6.940000
    reduced_to: 49
  - symbol: Li # 51
    coordinates: [  0.693137077364027,  0.327088719238550,  0.303233655798224 ]
    mass: 6.940000
    reduced_to: 49
  - symbol: Li # 52
    coordinates: [  0.026470410697361,  0.827088719238550,  0.303233655798224 ]
    mass: 6.940000
    reduced_to: 49
  - symbol: Li # 53
    coordinates: [  0.359803744030694,  0.827088719238550,  0.303233655798224 ]
    mass: 6.940000
    reduced_to: 49
  - symbol: Li # 54
    coordinates: [  0.693137077364027,  0.827088719238550,  0.303233655798224 ]
    mass: 6.940000
    reduced_to: 49
  - symbol: Li # 55
    coordinates: [  0.250317413581512,  0.117806707476073,  0.067938049048262 ]
    mass: 6.940000
    reduced_to: 55
  - symbol: Li # 56
    coordinates: [  0.583650746914845,  0.117806707476073,  0.067938049048262 ]
    mass: 6.940000
    reduced_to: 55
  - symbol: Li # 57
    coordinates: [  0.916984080248178,  0.117806707476073,  0.067938049048262 ]
    mass: 6.940000
    reduced_to: 55
  - symbol: Li # 58
    coordinates: [  0.250317413581512,  0.617806707476073,  0.067938049048262 ]
    mass: 6.940000
    reduced_to: 55
  - symbol: Li # 59
    coordinates: [  0.583650746914845,  0.617806707476073,  0.067938049048262 ]
    mass: 6.940000
    reduced_to: 55
  - symbol: Li # 60
    coordinates: [  0.916984080248178,  0.617806707476073,  0.067938049048262 ]
    mass: 6.940000
    reduced_to: 55
  - symbol: Sn # 61
    coordinates: [  0.276370222143022,  0.047091291067078,  0.365131925044032 ]
    mass: 118.710000
    reduced_to: 61
  - symbol: Sn # 62
    coordinates: [  0.609703555476355,  0.047091291067078,  0.365131925044032 ]
    mass: 118.710000
    reduced_to: 61
  - symbol: Sn # 63
    coordinates: [  0.943036888809688,  0.047091291067078,  0.365131925044032 ]
    mass: 118.710000
    reduced_to: 61
  - symbol: Sn # 64
    coordinates: [  0.276370222143022,  0.547091291067078,  0.365131925044032 ]
    mass: 118.710000
    reduced_to: 61
  - symbol: Sn # 65
    coordinates: [  0.609703555476355,  0.547091291067078,  0.365131925044032 ]
    mass: 118.710000
    reduced_to: 61
  - symbol: Sn # 66
    coordinates: [  0.943036888809688,  0.547091291067078,  0.365131925044032 ]
    mass: 118.710000
    reduced_to: 61
  - symbol: Sn # 67
    coordinates: [  0.048627336898269,  0.239102658856214,  0.612519469648246 ]
    mass: 118.710000
    reduced_to: 67
  - symbol: Sn # 68
    coordinates: [  0.381960670231602,  0.239102658856214,  0.612519469648246 ]
    mass: 118.710000
    reduced_to: 67
  - symbol: Sn # 69
    coordinates: [  0.715294003564936,  0.239102658856214,  0.612519469648246 ]
    mass: 118.710000
    reduced_to: 67
  - symbol: Sn # 70
    coordinates: [  0.048627336898269,  0.739102658856214,  0.612519469648246 ]
    mass: 118.710000
    reduced_to: 67
  - symbol: Sn # 71
    coordinates: [  0.381960670231602,  0.739102658856214,  0.612519469648246 ]
    mass: 118.710000
    reduced_to: 67
  - symbol: Sn # 72
    coordinates: [  0.715294003564936,  0.739102658856214,  0.612519469648246 ]
    mass: 118.710000
    reduced_to: 67
  - symbol: Sn # 73
    coordinates: [  0.329187348942059,  0.393161153818678,  0.988798657479006 ]
    mass: 118.710000
    reduced_to: 73
  - symbol: Sn # 74
    coordinates: [  0.662520682275392,  0.393161153818678,  0.988798657479006 ]
    mass: 118.710000
    reduced_to: 73
  - symbol: Sn # 75
    coordinates: [  0.995854015608725,  0.393161153818678,  0.988798657479006 ]
    mass: 118.710000
    reduced_to: 73
  - symbol: Sn # 76
    coordinates: [  0.329187348942059,  0.893161153818678,  0.988798657479006 ]
    mass: 118.710000
    reduced_to: 73
  - symbol: Sn # 77
    coordinates: [  0.662520682275392,  0.893161153818678,  0.988798657479006 ]
    mass: 118.710000
    reduced_to: 73
  - symbol: Sn # 78
    coordinates: [  0.995854015608725,  0.893161153818678,  0.988798657479006 ]
    mass: 118.710000
    reduced_to: 73

displacements:
- atom:    1
  displacement:
    [   0.0100000000000000,  0.0000000000000000,  0.0000000000000000 ]
  forces:
  - [  -0.0214964225888252, -0.0090138800442219, -0.0050982553511858 ]
  - [  -0.0001313699176535, -0.0088902860879898, -0.0053929872810841 ]
  - [  -0.0001242475991603, -0.0090323686599731, -0.0050553940236568 ]
  - [   0.0003640281502157, -0.0089201554656029, -0.0054167723283172 ]
  - [   0.0002669868990779, -0.0091197602450848, -0.0050990972667933 ]
  - [   0.0002669418463483, -0.0088453665375710, -0.0051566902548075 ]
  - [   0.0023595308884978,  0.0172907840460539, -0.0090336576104164 ]
  - [   0.0019620826933533,  0.0172735359519720, -0.0088932877406478 ]
  - [   0.0019522523507476,  0.0172920562326908, -0.0091894306242466 ]
  - [   0.0023157559335232,  0.0172395966947079, -0.0090197715908289 ]
  - [   0.0022998815402389,  0.0172794777899981, -0.0090333651751280 ]
  - [   0.0023154371883720,  0.0173274148255587, -0.0090548917651176 ]
  - [  -0.0060964799486101, -0.0100879371166229, -0.0018874304369092 ]
  - [  -0.0060914498753846, -0.0103476624935865, -0.0018262262456119 ]
  - [  -0.0060704499483109, -0.0102158561348915, -0.0018599578179419 ]
  - [  -0.0061023989692330, -0.0102260783314705, -0.0018727295100689 ]
  - [  -0.0060719954781234, -0.0102189332246780, -0.0018537039868534 ]
  - [  -0.0060737468302250, -0.0102061890065670, -0.0018490701913834 ]
  - [   0.0005550728528760, -0.0066623017191887,  0.0103798909112811 ]
  - [   0.0005513357464224, -0.0063230544328690,  0.0105060152709484 ]
  - [   0.0004092440067325, -0.0064937323331833,  0.0104405693709850 ]
  - [   0.0006817188113928, -0.0064926594495773,  0.0104287341237068 ]
  - [   0.0003340491093695, -0.0065334066748619,  0.0103708412498236 ]
  - [   0.0003253608010709, -0.0064568594098091,  0.0105180824175477 ]
  - [   0.0034594852477312, -0.0236266143620014,  0.0087912585586309 ]
  - [   0.0032020988874137, -0.0239294879138470,  0.0087045412510633 ]
  - [   0.0031350357457995, -0.0232898537069559,  0.0088607175275683 ]
  - [   0.0073362695984542, -0.0248308442533016,  0.0111385853961110 ]
  - [   0.0036027592141181, -0.0236142389476299,  0.0087867714464664 ]
  - [   0.0072925146669149, -0.0224218368530273,  0.0064823962748051 ]
  - [  -0.0027330229058862, -0.0172585621476173,  0.0089275632053614 ]
  - [  -0.0023351637646556, -0.0170743204653263,  0.0088324621319771 ]
  - [  -0.0023381258361042, -0.0174460522830486,  0.0090186540037394 ]
  - [  -0.0022390964441001, -0.0170252546668053,  0.0088787619024515 ]
  - [  -0.0022866334766150, -0.0172368157655001,  0.0089272493496537 ]
  - [  -0.0022473558783531, -0.0175055805593729,  0.0089593846350908 ]
  - [  -0.0005600082222372,  0.0092301666736603,  0.0052181780338287 ]
  - [  -0.0000435861293226,  0.0091110505163670,  0.0052464455366135 ]
  - [  -0.0000469894148409,  0.0093509890139103,  0.0051792729645967 ]
  - [   0.0004912168369628,  0.0091531723737717,  0.0052750213071704 ]
  - [   0.0001737899146974,  0.0092286802828312,  0.0052160471677780 ]
  - [   0.0005036972579546,  0.0093195699155331,  0.0051461653783917 ]
  - [  -0.0005501655396074,  0.0062703005969524, -0.0104055711999536 ]
  - [  -0.0005012959591113,  0.0062885768711567, -0.0104099316522479 ]
  - [  -0.0004973570466973,  0.0062520466744900, -0.0103837996721268 ]
  - [  -0.0004048848059028,  0.0063131153583527, -0.0105332843959332 ]
  - [  -0.0005234014242887,  0.0062689110636711, -0.0104005457833409 ]
  - [  -0.0004055290482938,  0.0062302090227604, -0.0102611742913723 ]
  - [  -0.0033316058106720,  0.0240519735962152, -0.0088717862963676 ]
  - [  -0.0033407243900001,  0.0234143100678921, -0.0089361555874348 ]
  - [  -0.0034529762342572,  0.0237514637410641, -0.0088973194360733 ]
  - [  -0.0041633276268840,  0.0237348321825266, -0.0088928462937474 ]
  - [  -0.0034799161367118,  0.0239360965788364, -0.0089826611801982 ]
  - [  -0.0034822765737772,  0.0235479641705751, -0.0088267568498850 ]
  - [   0.0057196151465178,  0.0097478590905666,  0.0021758447401226 ]
  - [   0.0056125028058887,  0.0098249297589064,  0.0019551850855350 ]
  - [   0.0057390211150050,  0.0099033303558826,  0.0017416034825146 ]
  - [   0.0056281452998519,  0.0098229870200157,  0.0019544740207493 ]
  - [   0.0056301974691451,  0.0098297633230686,  0.0019607623107731 ]
  - [   0.0056099137291312,  0.0098270196467638,  0.0019520032219589 ]
  - [   0.0092817191034555,  0.0064134001731873,  0.0402837879955769 ]
  - [   0.0025597885251045,  0.0053623393177986,  0.0445758439600468 ]
  - [   0.0090715996921062,  0.0043710321187973,  0.0486795790493488 ]
  - [   0.0025862124748528,  0.0054364800453186,  0.0446033738553524 ]
  - [   0.0025703101418912,  0.0052591077983379,  0.0445393100380898 ]
  - [   0.0025493339635432,  0.0053994245827198,  0.0445939041674137 ]
  - [  -0.0009471401572227, -0.0057847090065479, -0.0450272783637047 ]
  - [  -0.0009357482194901, -0.0043787285685539, -0.0442472174763680 ]
  - [  -0.0025760307908058, -0.0050875246524811, -0.0446335002779961 ]
  - [  -0.0018919857684523, -0.0050874836742878, -0.0446378812193871 ]
  - [  -0.0026134010404348, -0.0050553232431412, -0.0446708872914314 ]
  - [  -0.0026332093402743, -0.0051102936267853, -0.0446001030504704 ]
  - [  -0.0000619105994701, -0.0001087635755539,  0.0001915059983730 ]
  - [   0.0000304058194160, -0.0000853808596730,  0.0001784041523933 ]
  - [   0.0000440031290054, -0.0000528246164322,  0.0001021325588226 ]
  - [  -0.0000044256448746, -0.0001105195842683,  0.0002432919573039 ]
  - [  -0.0000418871641159, -0.0000804262235761,  0.0001251695211977 ]
  - [   0.0001384541392326, -0.0000660410150886,  0.0001217101234943 ]
- atom:    1
  displacement:
    [  -0.0100000000000000,  0.0000000000000000,  0.0000000000000000 ]
  forces:
  - [   0.0218644775450230, -0.0091291479766369, -0.0051568066701293 ]
  - [   0.0004900137428194, -0.0090339593589306, -0.0050549134612083 ]
  - [   0.0004973427276127, -0.0088908076286316, -0.0053928745910525 ]
  - [   0.0000032829120755, -0.0090124197304249, -0.0050286883488297 ]
  - [   0.0000981544144452, -0.0088115409016609, -0.0053466297686100 ]
  - [   0.0000980030745268, -0.0090786367654800, -0.0052932035177946 ]
  - [   0.0022429246455431,  0.0172784980386496, -0.0090419752523303 ]
  - [   0.0026406974066049,  0.0172970350831747, -0.0091887619346380 ]
  - [   0.0026416166219860,  0.0172795988619328, -0.0088918749243021 ]
  - [   0.0022846662905067,  0.0173239205032587, -0.0090536978095770 ]
  - [   0.0022999211214483,  0.0172853693366051, -0.0090390257537365 ]
  - [   0.0022855196148157,  0.0172361284494400, -0.0090161189436913 ]
  - [  -0.0060533853247762, -0.0103461500257254, -0.0018329410813749 ]
  - [  -0.0060607474297285, -0.0100858304649591, -0.0018929708749056 ]
  - [  -0.0060799969360232, -0.0102183297276497, -0.0018551256507635 ]
  - [  -0.0060485405847430, -0.0102077014744282, -0.0018431097269058 ]
  - [  -0.0060797506012022, -0.0102154798805714, -0.0018624514341354 ]
  - [  -0.0060776472091675, -0.0102273151278496, -0.0018679518252611 ]
  - [   0.0002665393403731, -0.0063243806362152,  0.0104986140504479 ]
  - [   0.0002711245615501, -0.0066654123365879,  0.0103726768866181 ]
  - [   0.0004133915936109, -0.0064958631992340,  0.0104422541335225 ]
  - [   0.0001415517181158, -0.0064945667982101,  0.0104449428617954 ]
  - [   0.0004936587065458, -0.0064584091305733,  0.0105162868276238 ]
  - [   0.0004908833652735, -0.0065356232225895,  0.0103696538135409 ]
  - [   0.0036913980729878, -0.0236050728708506,  0.0087778186425567 ]
  - [   0.0039421156980097, -0.0233054831624031,  0.0088661797344685 ]
  - [   0.0040225866250694, -0.0239458736032248,  0.0087096486240625 ]
  - [  -0.0001463166117901, -0.0224210098385811,  0.0064744008705020 ]
  - [   0.0035483820829540, -0.0236162841320038,  0.0087841870263219 ]
  - [  -0.0001802767510526, -0.0248299762606621,  0.0111302267760038 ]
  - [  -0.0018106743227690, -0.0172671284526587,  0.0089168874546885 ]
  - [  -0.0022122741211206, -0.0174408759921789,  0.0090143801644444 ]
  - [  -0.0022023678757250, -0.0170697048306465,  0.0088292714208364 ]
  - [  -0.0023043216206133, -0.0174836479127407,  0.0089640393853188 ]
  - [  -0.0022568791173398, -0.0172743052244186,  0.0089167496189475 ]
  - [  -0.0022969683632255, -0.0170028619468212,  0.0088835703209043 ]
  - [   0.0008381846710108,  0.0092136971652508,  0.0052123330533504 ]
  - [   0.0003173928707838,  0.0093461126089096,  0.0051812455058098 ]
  - [   0.0003311832260806,  0.0091054141521454,  0.0052481666207314 ]
  - [  -0.0002074784715660,  0.0093005783855915,  0.0051465099677444 ]
  - [   0.0001044917735271,  0.0092315003275871,  0.0052101360633969 ]
  - [  -0.0002314549055882,  0.0091333277523518,  0.0052753752097487 ]
  - [  -0.0004784371121787,  0.0062710009515285, -0.0103944763541222 ]
  - [  -0.0005271267145872,  0.0062514990568161, -0.0103897843509912 ]
  - [  -0.0005305036320351,  0.0062888078391552, -0.0104159032925963 ]
  - [  -0.0006227341946214,  0.0062287561595440, -0.0102629568427801 ]
  - [  -0.0005055721849203,  0.0062710642814636, -0.0103997420519590 ]
  - [  -0.0006226045079529,  0.0063118487596512, -0.0105361808091402 ]
  - [  -0.0035959645174444,  0.0234288200736046, -0.0089308358728886 ]
  - [  -0.0035875958856195,  0.0240652691572905, -0.0088665112853050 ]
  - [  -0.0034753573127091,  0.0237342864274979, -0.0089085381478071 ]
  - [  -0.0027640799526125,  0.0237627550959587, -0.0088869603350759 ]
  - [  -0.0034486628137529,  0.0235520619899035, -0.0088220592588186 ]
  - [  -0.0034450332168490,  0.0239389054477215, -0.0089779654517770 ]
  - [   0.0055403388105333,  0.0099020246416330,  0.0017433008179069 ]
  - [   0.0056456821039319,  0.0098259318619967,  0.0019556488841772 ]
  - [   0.0055176196619868,  0.0097462534904480,  0.0021777884103358 ]
  - [   0.0056308144703507,  0.0098301619291306,  0.0019573736935854 ]
  - [   0.0056284829042852,  0.0098235607147217,  0.0019502602517605 ]
  - [   0.0056484076194465,  0.0098252780735493,  0.0019585136324167 ]
  - [  -0.0038193315267563,  0.0043595843017101,  0.0486985705792904 ]
  - [   0.0027151778340340,  0.0053672119975090,  0.0445804372429848 ]
  - [  -0.0039914064109325,  0.0064005255699158,  0.0403034724295139 ]
  - [   0.0026874034665525,  0.0052959099411964,  0.0445553362369537 ]
  - [   0.0027045670431107,  0.0054722465574741,  0.0446190983057022 ]
  - [   0.0027194465510547,  0.0053310431540012,  0.0445659235119820 ]
  - [  -0.0042837932705879, -0.0043082199990749, -0.0442089885473251 ]
  - [  -0.0041178241372108, -0.0057148672640324, -0.0449897423386574 ]
  - [  -0.0025662407279015, -0.0050880461931229, -0.0446368865668774 ]
  - [  -0.0032507909927517, -0.0050258375704288, -0.0446561276912689 ]
  - [  -0.0025282902643085, -0.0051192753016949, -0.0446000136435032 ]
  - [  -0.0025107841938734, -0.0050638467073441, -0.0446708835661411 ]
  - [   0.0001054145395756, -0.0000593001022935,  0.0001261923462152 ]
  - [   0.0000136755406857, -0.0000751670449972,  0.0001347325742245 ]
  - [   0.0000018365681171, -0.0001114262267947,  0.0002130512148142 ]
  - [   0.0000518411397934, -0.0000602318905294,  0.0000831831712276 ]
  - [   0.0000889971852303, -0.0000892179086804,  0.0002003554254770 ]
  - [  -0.0000979974865913, -0.0001066168770194,  0.0002049410250038 ]
- atom:    1
  displacement:
    [  -0.0043480903246908,  0.0090052268449124,  0.0000000000000000 ]
  forces:
  - [   0.0097476365044713, -0.0286109857261181, -0.0015380010008812 ]
  - [   0.0002543557784520, -0.0089597962796688, -0.0052535142749548 ]
  - [   0.0003853943780996, -0.0088950842618942, -0.0054041612893343 ]
  - [   0.0001454385928810, -0.0089652314782143, -0.0051520569249988 ]
  - [   0.0002506540622562, -0.0088779143989086, -0.0052303876727819 ]
  - [   0.0000095117138699, -0.0089934542775154, -0.0053133433684707 ]
  - [   0.0022779866121709,  0.0174399483948946, -0.0091822510585189 ]
  - [   0.0023934803903103,  0.0172285549342632, -0.0090824132785201 ]
  - [   0.0025024821516126,  0.0172301419079304, -0.0089521389454603 ]
  - [   0.0023182604927570,  0.0173168312758207, -0.0090581066906452 ]
  - [   0.0022820164449513,  0.0172786489129066, -0.0090257693082094 ]
  - [   0.0022876199800521,  0.0172852277755737, -0.0090485494583845 ]
  - [  -0.0061011384241283, -0.0103098340332508, -0.0016855192370713 ]
  - [  -0.0060334242880344, -0.0101923514157534, -0.0017167334444821 ]
  - [  -0.0060779214836657, -0.0102132260799408, -0.0018644877709448 ]
  - [  -0.0060619264841080, -0.0101171210408211, -0.0016807373613119 ]
  - [  -0.0061037470586598, -0.0101739950478077, -0.0018686121329665 ]
  - [  -0.0060523189604282, -0.0102150812745094, -0.0018901564180851 ]
  - [   0.0002127515035681, -0.0062695443630219,  0.0105901062488556 ]
  - [   0.0004985018167645, -0.0064270012080669,  0.0105334268882871 ]
  - [   0.0003965488867834, -0.0064896009862423,  0.0104481074959040 ]
  - [   0.0002941447310150, -0.0065108463168144,  0.0100749526172876 ]
  - [   0.0005026808939874, -0.0065128766000271,  0.0105448430404067 ]
  - [   0.0003890241496265, -0.0065510571002960,  0.0104720015078783 ]
  - [   0.0036180657334626, -0.0239251423627138,  0.0085815470665693 ]
  - [   0.0034715235233307, -0.0237506385892630,  0.0087649673223495 ]
  - [   0.0040452862158418, -0.0247525013983250,  0.0087619265541434 ]
  - [   0.0005301384953782, -0.0230760425329208,  0.0069877868518233 ]
  - [   0.0035650399513543, -0.0236176066100597,  0.0087849330157042 ]
  - [   0.0033714892342687, -0.0241241957992315,  0.0090050799772143 ]
  - [  -0.0020655884873122, -0.0160218328237534,  0.0107548013329506 ]
  - [  -0.0024423277936876, -0.0172073151916265,  0.0087899807840586 ]
  - [  -0.0020327328238636, -0.0170856527984142,  0.0087203085422516 ]
  - [  -0.0020529897883534, -0.0173219051212072,  0.0091085154563189 ]
  - [  -0.0022538234479725, -0.0172448698431253,  0.0089327692985535 ]
  - [  -0.0025267335586250, -0.0171394683420658,  0.0090628908947110 ]
  - [   0.0004604446003214,  0.0153028406202793,  0.0029659718275070 ]
  - [   0.0001116491039284,  0.0092644356191158,  0.0053610298782587 ]
  - [   0.0003357149253134,  0.0090928189456463,  0.0053902342915535 ]
  - [  -0.0000705374986865,  0.0093611627817154,  0.0050996216014028 ]