# Thermal properties / unit cell (natom)

unit:
  temperature:   K
  free_energy:   kJ/mol
  entropy:       J/K/mol
  heat_capacity: J/K/mol

natom: 4    
cutoff_frequency: 0.00000
num_modes: 150528
num_integrated_modes: 145936

zero_point_energy:      15.3482997

thermal_properties:
- temperature:         0.0000000
  free_energy:        15.3482997
  entropy:             0.0000000
  heat_capacity:       0.0000000
  energy:             15.3482997

- temperature:        10.0000000
  free_energy:        15.3446741
  entropy:             1.0670698
  heat_capacity:       2.1497954
  energy:             15.3553448

- temperature:        20.0000000
  free_energy:        15.3197207
  entropy:             4.2282393
  heat_capacity:       7.8929320
  energy:             15.4042855

- temperature:        30.0000000
  free_energy:        15.2565973
  entropy:             8.4597935
  heat_capacity:      13.0457533
  energy:             15.5103912

- temperature:        40.0000000
  free_energy:        15.1503610
  entropy:            12.7711398
  heat_capacity:      17.0338657
  energy:             15.6612065

- temperature:        50.0000000
  free_energy:        15.0014865
  entropy:            16.9956543
  heat_capacity:      21.0518803
  energy:             15.8512692

- temperature:        60.0000000
  free_energy:        14.8104137
  entropy:            21.2292275
  heat_capacity:      25.6272477
  energy:             16.0841673

- temperature:        70.0000000
  free_energy:        14.5765842
  entropy:            25.5559717
  heat_capacity:      30.7027470
  energy:             16.3655022

- temperature:        80.0000000
  free_energy:        14.2988947
  entropy:            30.0011618
  heat_capacity:      36.0083904
  energy:             16.6989877

- temperature:        90.0000000
  free_energy:        13.9762206
  entropy:            34.5478324
  heat_capacity:      41.2734120
  energy:             17.0855256

- temperature:       100.0000000
  free_energy:        13.6077216
  entropy:            39.1593432
  heat_capacity:      46.3011919
  energy:             17.5236559

- temperature:       110.0000000
  free_energy:        13.1929549
  entropy:            43.7946371
  heat_capacity:      50.9757736
  energy:             18.0103650

- temperature:       120.0000000
  free_energy:        12.7318755
  entropy:            48.4161503
  heat_capacity:      55.2444113
  energy:             18.5418136

- temperature:       130.0000000
  free_energy:        12.2247819
  entropy:            52.9929311
  heat_capacity:      59.0967723
  energy:             19.1138629

- temperature:       140.0000000
  free_energy:        11.6722461
  entropy:            57.5011730
  heat_capacity:      62.5479586
  energy:             19.7224103

- temperature:       150.0000000
  free_energy:        11.0750452
  entropy:            61.9235629
  heat_capacity:      65.6265860
  energy:             20.3635796

- temperature:       160.0000000
  free_energy:        10.4341011
  entropy:            66.2482115
  heat_capacity:      68.3671226
  energy:             21.0338149

- temperature:       170.0000000
  free_energy:         9.7504324
  entropy:            70.4675409
  heat_capacity:      70.8052913
  energy:             21.7299143

- temperature:       180.0000000
  free_energy:         9.0251158
  entropy:            74.5772891
  heat_capacity:      72.9755021
  energy:             22.4490279

- temperature:       190.0000000
  free_energy:         8.2592580
  entropy:            78.5756819
  heat_capacity:      74.9095567
  energy:             23.1886375

- temperature:       200.0000000
  free_energy:         7.4539734
  entropy:            82.4627719
  heat_capacity:      76.6361165
  energy:             23.9465277

- temperature:       210.0000000
  free_energy:         6.6103691
  entropy:            86.2399248
  heat_capacity:      78.1806083
  energy:             24.7207533

- temperature:       220.0000000
  free_energy:         5.7295338
  entropy:            89.9094273
  heat_capacity:      79.5653659
  energy:             25.5096078

- temperature:       230.0000000
  free_energy:         4.8125297
  entropy:            93.4741901
  heat_capacity:      80.8098847
  energy:             26.3115935

- temperature:       240.0000000
  free_energy:         3.8603881
  entropy:            96.9375279
  heat_capacity:      81.9311215
  energy:             27.1253948

- temperature:       250.0000000
  free_energy:         2.8741054
  entropy:           100.3029952
  heat_capacity:      82.9437975
  energy:             27.9498542

- temperature:       260.0000000
  free_energy:         1.8546422
  entropy:           103.5742671
  heat_capacity:      83.8606856
  energy:             28.7839516

- temperature:       270.0000000
  free_energy:         0.8029217
  entropy:           106.7550521
  heat_capacity:      84.6928717
  energy:             29.6267858

- temperature:       280.0000000
  free_energy:        -0.2801695
  entropy:           109.8490303
  heat_capacity:      85.4499864
  energy:             30.4775589

- temperature:       290.0000000
  free_energy:        -1.3937816
  entropy:           112.8598100
  heat_capacity:      86.1404077
  energy:             31.3355633

- temperature:       300.0000000
  free_energy:        -2.5371001
  entropy:           115.7908978
  heat_capacity:      86.7714366
  energy:             32.2001692

- temperature:       310.0000000
  free_energy:        -3.7093452
  entropy:           118.6456794
  heat_capacity:      87.3494480
  energy:             33.0708154

- temperature:       320.0000000
  free_energy:        -4.9097702
  entropy:           121.4274073
  heat_capacity:      87.8800195
  energy:             33.9470001

- temperature:       330.0000000
  free_energy:        -6.1376602
  entropy:           124.1391947
  heat_capacity:      88.3680423
  energy:             34.8282740

- temperature:       340.0000000
  free_energy:        -7.3923309
  entropy:           126.7840130
  heat_capacity:      88.8178153
  energy:             35.7142335

- temperature:       350.0000000
  free_energy:        -8.6731267
  entropy:           129.3646920
  heat_capacity:      89.2331255
  energy:             36.6045155

- temperature:       360.0000000
  free_energy:        -9.9794199
  entropy:           131.8839230
  heat_capacity:      89.6173164
  energy:             37.4987924

- temperature:       370.0000000
  free_energy:       -11.3106089
  entropy:           134.3442618
  heat_capacity:      89.9733472
  energy:             38.3967680

- temperature:       380.0000000
  free_energy:       -12.6661169
  entropy:           136.7481346
  heat_capacity:      90.3038426
  energy:             39.2981742

- temperature:       390.0000000
  free_energy:       -14.0453910
  entropy:           139.0978425
  heat_capacity:      90.6111357
  energy:             40.2027675

- temperature:       400.0000000
  free_energy:       -15.4479005
  entropy:           141.3955677
  heat_capacity:      90.8973054
  energy:             41.1103265

- temperature:       410.0000000
  free_energy:       -16.8731360
  entropy:           143.6433792
  heat_capacity:      91.1642077
  energy:             42.0206494

- temperature:       420.0000000
  free_energy:       -18.3206083
  entropy:           145.8432388
  heat_capacity:      91.4135033
  energy:             42.9335520

- temperature:       430.0000000
  free_energy:       -19.7898472
  entropy:           147.9970069
  heat_capacity:      91.6466811
  energy:             43.8488658

- temperature:       440.0000000
  free_energy:       -21.2804007
  entropy:           150.1064479
  heat_capacity:      91.8650788
  energy:             44.7664364

- temperature:       450.0000000
  free_energy:       -22.7918340
  entropy:           152.1732358
  heat_capacity:      92.0699003
  energy:             45.6861221

- temperature:       460.0000000
  free_energy:       -24.3237285
  entropy:           154.1989593
  heat_capacity:      92.2622316
  energy:             46.6077928

- temperature:       470.0000000
  free_energy:       -25.8756813
  entropy:           156.1851271
  heat_capacity:      92.4430537
  energy:             47.5313284

- temperature:       480.0000000
  free_energy:       -27.4473040
  entropy:           158.1331718
  heat_capacity:      92.6132547
  energy:             48.4566185

- temperature:       490.0000000
  free_energy:       -29.0382222
  entropy:           160.0444551
  heat_capacity:      92.7736397
  energy:             49.3835608

- temperature:       500.0000000
  free_energy:       -30.6480749
  entropy:           161.9202717
  heat_capacity:      92.9249400
  energy:             50.3120610

- temperature:       510.0000000
  free_energy:       -32.2765135
  entropy:           163.7618531
  heat_capacity:      93.0678211
  energy:             51.2420315

- temperature:       520.0000000
  free_energy:       -33.9232017
  entropy:           165.5703713
  heat_capacity:      93.2028890
  energy:             52.1733914

- temperature:       530.0000000
  free_energy:       -35.5878145
  entropy:           167.3469426
  heat_capacity:      93.3306971
  energy:             53.1060651

- temperature:       540.0000000
  free_energy:       -37.2700377
  entropy:           169.0926304
  heat_capacity:      93.4517512
  energy:             54.0399828

- temperature:       550.0000000
  free_energy:       -38.9695675
  entropy:           170.8084486
  heat_capacity:      93.5665140
  energy:             54.9750792

- temperature:       560.0000000
  free_energy:       -40.6861103
  entropy:           172.4953639
  heat_capacity:      93.6754099
  energy:             55.9112935

- temperature:       570.0000000
  free_energy:       -42.4193815
  entropy:           174.1542994
  heat_capacity:      93.7788284
  energy:             56.8485691

- temperature:       580.0000000
  free_energy:       -44.1691059
  entropy:           175.7861362
  heat_capacity:      93.8771274
  energy:             57.7868530

- temperature:       590.0000000
  free_energy:       -45.9350167
  entropy:           177.3917160
  heat_capacity:      93.9706365
  energy:             58.7260957

- temperature:       600.0000000
  free_energy:       -47.7168554
  entropy:           178.9718437
  heat_capacity:      94.0596593
  energy:             59.6662508

- temperature:       610.0000000
  free_energy:       -49.5143714
  entropy:           180.5272889
  heat_capacity:      94.1444760
  energy:             60.6072749

- temperature:       620.0000000
  free_energy:       -51.3273214
  entropy:           182.0587880
  heat_capacity:      94.2253452
  energy:             61.5491272

- temperature:       630.0000000
  free_energy:       -53.1554696
  entropy:           183.5670461
  heat_capacity:      94.3025065
  energy:             62.4917694

- temperature:       640.0000000
  free_energy:       -54.9985871
  entropy:           185.0527387
  heat_capacity:      94.3761814
  energy:             63.4351657

- temperature:       650.0000000
  free_energy:       -56.8564514
  entropy:           186.5165130
  heat_capacity:      94.4465754
  energy:             64.3792821

- temperature:       660.0000000
  free_energy:       -58.7288464
  entropy:           187.9589898
  heat_capacity:      94.5138790
  energy:             65.3240869

- temperature:       670.0000000
  free_energy:       -60.6155622
  entropy:           189.3807644
  heat_capacity:      94.5782694
  energy:             66.2695500

- temperature:       680.0000000
  free_energy:       -62.5163946
  entropy:           190.7824083
  heat_capacity:      94.6399112
  energy:             67.2156431

- temperature:       690.0000000
  free_energy:       -64.4311450
  entropy:           192.1644704
  heat_capacity:      94.6989577
  energy:             68.1623396

- temperature:       700.0000000
  free_energy:       -66.3596205
  entropy:           193.5274779
  heat_capacity:      94.7555517
  energy:             69.1096141

- temperature:       710.0000000
  free_energy:       -68.3016328
  entropy:           194.8719375
  heat_capacity:      94.8098263
  energy:             70.0574429

- temperature:       720.0000000
  free_energy:       -70.2569990
  entropy:           196.1983365
  heat_capacity:      94.8619058
  energy:             71.0058033

- temperature:       730.0000000
  free_energy:       -72.2255409
  entropy:           197.5071437
  heat_capacity:      94.9119064
  energy:             71.9546741

- temperature:       740.0000000
  free_energy:       -74.2070847
  entropy:           198.7988103
  heat_capacity:      94.9599367
  energy:             72.9040349

- temperature:       750.0000000
  free_energy:       -76.2014614
  entropy:           200.0737706
  heat_capacity:      95.0060983
  energy:             73.8538666

- temperature:       760.0000000
  free_energy:       -78.2085059
  entropy:           201.3324431
  heat_capacity:      95.0504864
  energy:             74.8041509

- temperature:       770.0000000
  free_energy:       -80.2280573
  entropy:           202.5752311
  heat_capacity:      95.0931903
  energy:             75.7548707

- temperature:       780.0000000
  free_energy:       -82.2599588
  entropy:           203.8025234
  heat_capacity:      95.1342936
  energy:             76.7060094

- temperature:       790.0000000
  free_energy:       -84.3040574
  entropy:           205.0146947
  heat_capacity:      95.1738751
  energy:             77.6575515

- temperature:       800.0000000
  free_energy:       -86.3602035
  entropy:           206.2121070
  heat_capacity:      95.2120085
  energy:             78.6094821

- temperature:       810.0000000
  free_energy:       -88.4282515
  entropy:           207.3951093
  heat_capacity:      95.2487633
  energy:             79.5617870

- temperature:       820.0000000
  free_energy:       -90.5080588
  entropy:           208.5640387
  heat_capacity:      95.2842049
  energy:             80.5144530

- temperature:       830.0000000
  free_energy:       -92.5994864
  entropy:           209.7192210
  heat_capacity:      95.3183949
  energy:             81.4674670

- temperature:       840.0000000
  free_energy:       -94.7023985
  entropy:           210.8609706
  heat_capacity:      95.3513913
  energy:             82.4208169

- temperature:       850.0000000
  free_energy:       -96.8166621
  entropy:           211.9895919
  heat_capacity:      95.3832487
  energy:             83.3744910

- temperature:       860.0000000
  free_energy:       -98.9421475
  entropy:           213.1053788
  heat_capacity:      95.4140188
  energy:             84.3284782

- temperature:       870.0000000
  free_energy:      -101.0787278
  entropy:           214.2086158
  heat_capacity:      95.4437502
  energy:             85.2827679

- temperature:       880.0000000
  free_energy:      -103.2262789
  entropy:           215.2995782
  heat_capacity:      95.4724891
  energy:             86.2373499

- temperature:       890.0000000
  free_energy:      -105.3846794
  entropy:           216.3785325
  heat_capacity:      95.5002790
  energy:             87.1922145

- temperature:       900.0000000
  free_energy:      -107.5538104
  entropy:           217.4457365
  heat_capacity:      95.5271611
  energy:             88.1473525

- temperature:       910.0000000
  free_energy:      -109.7335558
  entropy:           218.5014403
  heat_capacity:      95.5531743
  energy:             89.1027549

- temperature:       920.0000000
  free_energy:      -111.9238017
  entropy:           219.5458857
  heat_capacity:      95.5783555
  energy:             90.0584132

- temperature:       930.0000000
  free_energy:      -114.1244367
  entropy:           220.5793076
  heat_capacity:      95.6027397
  energy:             91.0143193

- temperature:       940.0000000
  free_energy:      -116.3353518
  entropy:           221.6019333
  heat_capacity:      95.6263602
  energy:             91.9704654

- temperature:       950.0000000
  free_energy:      -118.5564402
  entropy:           222.6139834
  heat_capacity:      95.6492483
  energy:             92.9268441

- temperature:       960.0000000
  free_energy:      -120.7875970
  entropy:           223.6156719
  heat_capacity:      95.6714339
  energy:             93.8834481

- temperature:       970.0000000
  free_energy:      -123.0287197
  entropy:           224.6072064
  heat_capacity:      95.6929454
  energy:             94.8402705

- temperature:       980.0000000
  free_energy:      -125.2797079
  entropy:           225.5887885
  heat_capacity:      95.7138098
  energy:             95.7973048

- temperature:       990.0000000
  free_energy:      -127.5404630
  entropy:           226.5606138
  heat_capacity:      95.7340526
  energy:             96.7545446

- temperature:      1000.0000000
  free_energy:      -129.8108883
  entropy:           227.5228722
  heat_capacity:      95.7536983
  energy:             97.7119839
