# Tetrahedron method
       -1.1340376341        0.0000000000
       -1.0659953808        0.0000000000
       -0.9979531276        0.0000000000
       -0.9299108744        0.0000000000
       -0.8618686211        0.0000000000
       -0.7938263679        0.0000000000
       -0.7257841147        0.0000000000
       -0.6577418614        0.0000000000
       -0.5896996082        0.0000000000
       -0.5216573550        0.0000000000
       -0.4536151017        0.0000000000
       -0.3855728485        0.0000000000
       -0.3175305953        0.0000000000
       -0.2494883421        0.0000000000
       -0.1814460888        0.0000000000
       -0.1134038356        0.0000000000
       -0.0453615824        0.0000000000
        0.0226806709        0.0007815831
        0.0907229241        0.0171476306
        0.1587651773        0.0829941769
        0.2268074306        0.1645164745
        0.2948496838        0.2864910834
        0.3628919370        0.4797301714
        0.4309341903        0.7720065369
        0.4989764435        1.0380262888
        0.5670186967        1.7607942318
        0.6350609500        1.7713939561
        0.7031032032        2.1495386612
        0.7711454564        2.9831871154
        0.8391877097        4.0855229675
        0.9072299629        5.2492953337
        0.9752722161        5.5846085368
        1.0433144694        9.2607994621
        1.1113567226        7.8700322930
        1.1793989758        9.1275379285
        1.2474412291        6.5599136031
        1.3154834823        5.4627909477
        1.3835257355        6.5519528767
        1.4515679887        4.8986313282
        1.5196102420        5.9461786927
        1.5876524952        5.2326059976
        1.6556947484        4.3138591037
        1.7237370017        3.4717094437
        1.7917792549        3.7642558071
        1.8598215081        4.1177531760
        1.9278637614        2.3510178692
        1.9959060146        2.2722394024
        2.0639482678        2.8823064691
        2.1319905211        4.0723234317
        2.2000327743        2.2252766615
        2.2680750275        2.4417969892
        2.3361172808        1.6520800571
        2.4041595340        1.0211725606
        2.4722017872        1.0276288446
        2.5402440405        1.1937835342
        2.6082862937        1.8512427332
        2.6763285469        3.3538931940
        2.7443708002        3.7347162179
        2.8124130534        8.0475993048
        2.8804553066       13.3492031275
        2.9484975599        6.7367001536
        3.0165398131       11.7859789180
        3.0845820663       15.3662799180
        3.1526243195        4.4797097513
        3.2206665728        3.0578619261
        3.2887088260        7.0151528901
        3.3567510792       11.8262488111
        3.4247933325        9.6043758124
        3.4928355857        0.0000000000
        3.5608778389        0.0000000000
        3.6289200922        0.0000000000
        3.6969623454        0.0000000000
        3.7650045986        0.0000000000
        3.8330468519        0.0000000000
        3.9010891051        0.0000000000
        3.9691313583        0.0000000000
        4.0371736116        0.0000000000
        4.1052158648        0.0000000000
        4.1732581180        0.0000000000
        4.2413003713        0.0000000000
        4.3093426245        0.0000000000
        4.3773848777        0.0000000000
        4.4454271310        0.0000000000
        4.5134693842        0.0000000000
        4.5815116374        0.0000000000
        4.6495538906        0.0000000000
        4.7175961439        0.0000000000
        4.7856383971        0.0000000000
        4.8536806503        0.0000000000
        4.9217229036        0.0000000000
        4.9897651568        0.0000000000
        5.0578074100        0.0000000000
        5.1258496633        0.0000000000
        5.1938919165        0.0000000000
        5.2619341697        2.0482819600
        5.3299764230        1.8562005334
        5.3980186762        2.5878915270
        5.4660609294        9.1294920913
        5.5341031827        6.7551833607
        5.6021454359        4.3150423204
        5.6701876891        8.0072709119
        5.7382299424       12.8472392300
        5.8062721956        4.2510752481
        5.8743144488        7.3494674551
        5.9423567021        3.7005128373
        6.0103989553        9.0909169848
        6.0784412085        2.2616939407
        6.1464834618        2.1483345987
        6.2145257150        0.0000000000
        6.2825679682        1.5133738563
        6.3506102214        5.8070758723
        6.4186524747        3.2598030801
        6.4866947279        0.0000000000
        6.5547369811        0.0000000000
        6.6227792344        0.0000000000
        6.6908214876        0.0000000000
        6.7588637408        0.0000000000
        6.8269059941        0.0000000000
        6.8949482473        0.0000000000
        6.9629905005        0.0000000000
        7.0310327538        0.0000000000
        7.0990750070        0.0000000000
        7.1671172602        0.0000000000
        7.2351595135        0.0000000000
        7.3032017667        0.0000000000
        7.3712440199        0.0000000000
        7.4392862732        1.9744344846
        7.5073285264        1.3828998630
        7.5753707796        1.2585622445
        7.6434130329        1.4182299784
        7.7114552861        3.7481607089
        7.7794975393        1.8607633122
        7.8475397926        0.0000000000
        7.9155820458        0.0000000000
        7.9836242990        0.0000000000
        8.0516665522        0.0000000000
        8.1197088055        0.0000000000
        8.1877510587        0.0000000000
        8.2557933119        0.0000000000
        8.3238355652        0.0000000000
        8.3918778184        1.8071146831
        8.4599200716        1.8042199478
        8.5279623249        4.2466770558
        8.5960045781        4.7036591304
        8.6640468313        0.6371550250
        8.7320890846        0.0000000000
        8.8001313378        0.0000000000
        8.8681735910        0.0000000000
        8.9362158443        0.0000000000
        9.0042580975        0.0000000000
        9.0723003507        0.0000000000
        9.1403426040        3.1607960198
        9.2083848572        2.5345918388
        9.2764271104        2.1302244715
        9.3444693637        2.1216043235
        9.4125116169        2.2522545619
        9.4805538701        2.5964027618
        9.5485961233        6.4484041290
        9.6166383766        6.4731182768
        9.6846806298        8.4879571776
        9.7527228830        9.7877887524
        9.8207651363        5.5019644137
        9.8888073895        3.9541768951
        9.9568496427        3.5630157235
       10.0248918960        4.6343169988
       10.0929341492        5.8378692882
       10.1609764024        4.3075148503
       10.2290186557        3.7489805959
       10.2970609089        3.0642468455
       10.3651031621        3.3689304122
       10.4331454154        5.9139753410
       10.5011876686        9.0678419088
       10.5692299218        7.4006201602
       10.6372721751        4.7205865449
       10.7053144283        9.0470632720
       10.7733566815        1.4401323593
       10.8413989348        4.4717791762
       10.9094411880        4.4870851649
       10.9774834412        3.5763751364
       11.0455256945        3.8931004119
       11.1135679477        3.2212944473
       11.1816102009        2.7386054359
       11.2496524541        1.0632667317
       11.3176947074        0.6615221110
       11.3857369606        0.0000000000
       11.4537792138        0.0000000000
       11.5218214671        0.0000000000
       11.5898637203        0.0000000000
       11.6579059735        0.0000000000
       11.7259482268        0.0000000000
       11.7939904800        0.0000000000
       11.8620327332        0.0000000000
       11.9300749865        0.0000000000
       11.9981172397        0.0000000000
       12.0661594929        0.0000000000
       12.1342017462        0.0000000000
       12.2022439994        0.0000000000
       12.2702862526        0.0000000000
       12.3383285059        0.0000000000
       12.4063707591        0.0000000000
       12.4744130123        0.0000000000
