# Thermal properties / unit cell (natom)

unit:
  temperature:   K
  free_energy:   kJ/mol
  entropy:       J/K/mol
  heat_capacity: J/K/mol

natom: 16   
cutoff_frequency: 0.00000
num_modes: 171072
num_integrated_modes: 171071

zero_point_energy:      62.2576709

thermal_properties:
- temperature:         0.0000000
  free_energy:        62.2576709
  entropy:             0.0000000
  heat_capacity:       0.0000000
  energy:             62.2576709

- temperature:        10.0000000
  free_energy:        62.2559806
  entropy:             0.5217806
  heat_capacity:       1.5678373
  energy:             62.2611984

- temperature:        20.0000000
  free_energy:        62.2354251
  entropy:             4.3708202
  heat_capacity:      12.3117566
  energy:             62.3228415

- temperature:        30.0000000
  free_energy:        62.1543198
  entropy:            12.4645069
  heat_capacity:      29.5598531
  energy:             62.5282550

- temperature:        40.0000000
  free_energy:        61.9753445
  entropy:            23.8087917
  heat_capacity:      50.9022298
  energy:             62.9276962

- temperature:        50.0000000
  free_energy:        61.6696100
  entropy:            37.7166874
  heat_capacity:      74.9916894
  energy:             63.5554444

- temperature:        60.0000000
  free_energy:        61.2143220
  entropy:            53.6333921
  heat_capacity:     100.5246263
  energy:             64.4323255

- temperature:        70.0000000
  free_energy:        60.5918763
  entropy:            71.0715151
  heat_capacity:     126.3467979
  energy:             65.5668824

- temperature:        80.0000000
  free_energy:        59.7892771
  entropy:            89.5957686
  heat_capacity:     151.4809919
  energy:             66.9569386

- temperature:        90.0000000
  free_energy:        58.7976212
  entropy:           108.8239564
  heat_capacity:     175.2075145
  energy:             68.5917773

- temperature:       100.0000000
  free_energy:        57.6115326
  entropy:           128.4338779
  heat_capacity:     197.0917514
  energy:             70.4549204

- temperature:       110.0000000
  free_energy:        56.2285425
  entropy:           148.1661502
  heat_capacity:     216.9438280
  energy:             72.5268190

- temperature:       120.0000000
  free_energy:        54.6484743
  entropy:           167.8207487
  heat_capacity:     234.7496373
  energy:             74.7869641

- temperature:       130.0000000
  free_energy:        52.8728855
  entropy:           187.2493618
  heat_capacity:     250.6045680
  energy:             77.2153026

- temperature:       140.0000000
  free_energy:        50.9045967
  entropy:           206.3461895
  heat_capacity:     264.6625765
  energy:             79.7930632

- temperature:       150.0000000
  free_energy:        48.7473114
  entropy:           225.0389764
  heat_capacity:     277.1017729
  energy:             82.5031578

- temperature:       160.0000000
  free_energy:        46.4053213
  entropy:           243.2811634
  heat_capacity:     288.1032752
  energy:             85.3303074

- temperature:       170.0000000
  free_energy:        43.8832827
  entropy:           261.0454370
  heat_capacity:     297.8393743
  energy:             88.2610070

- temperature:       180.0000000
  free_energy:        41.1860506
  entropy:           278.3186315
  heat_capacity:     306.4677128
  energy:             91.2834043

- temperature:       190.0000000
  free_energy:        38.3185576
  entropy:           295.0978021
  heat_capacity:     314.1291097
  energy:             94.3871400

- temperature:       200.0000000
  free_energy:        35.2857275
  entropy:           311.3872530
  heat_capacity:     320.9474636
  energy:             97.5631781

- temperature:       210.0000000
  free_energy:        32.0924142
  entropy:           327.1963164
  heat_capacity:     327.0307495
  energy:            100.8036407

- temperature:       220.0000000
  free_energy:        28.7433603
  entropy:           342.5377081
  heat_capacity:     332.4725172
  energy:            104.1016561

- temperature:       230.0000000
  free_energy:        25.2431695
  entropy:           357.4263203
  heat_capacity:     337.3535507
  energy:            107.4512231

- temperature:       240.0000000
  free_energy:        21.5962893
  entropy:           371.8783415
  heat_capacity:     341.7435035
  energy:            110.8470913

- temperature:       250.0000000
  free_energy:        17.8070018
  entropy:           385.9106220
  heat_capacity:     345.7024136
  energy:            114.2846573

- temperature:       260.0000000
  free_energy:        13.8794191
  entropy:           399.5402192
  heat_capacity:     349.2820620
  energy:            117.7598761

- temperature:       270.0000000
  free_energy:         9.8174832
  entropy:           412.7840774
  heat_capacity:     352.5271627
  energy:            121.2691841

- temperature:       280.0000000
  free_energy:         5.6249679
  entropy:           425.6588062
  heat_capacity:     355.4763919
  energy:            124.8094337

- temperature:       290.0000000
  free_energy:         1.3054837
  entropy:           438.1805318
  heat_capacity:     358.1632695
  energy:            128.3778379

- temperature:       300.0000000
  free_energy:        -3.1375179
  entropy:           450.3647998
  heat_capacity:     360.6169111
  energy:            131.9719221

- temperature:       310.0000000
  free_energy:        -7.7007372
  entropy:           462.2265185
  heat_capacity:     362.8626657
  energy:            135.5894835

- temperature:       320.0000000
  free_energy:       -12.3810207
  entropy:           473.7799285
  heat_capacity:     364.9226571
  energy:            139.2285565

- temperature:       330.0000000
  free_energy:       -17.1753534
  entropy:           485.0385928
  heat_capacity:     366.8162419
  energy:            142.8873822

- temperature:       340.0000000
  free_energy:       -22.0808531
  entropy:           496.0154015
  heat_capacity:     368.5603989
  energy:            146.5643834

- temperature:       350.0000000
  free_energy:       -27.0947628
  entropy:           506.7225852
  heat_capacity:     370.1700576
  energy:            150.2581421

- temperature:       360.0000000
  free_energy:       -32.2144447
  entropy:           517.1717362
  heat_capacity:     371.6583787
  energy:            153.9673803

- temperature:       370.0000000
  free_energy:       -37.4373740
  entropy:           527.3738328
  heat_capacity:     373.0369921
  energy:            157.6909441

- temperature:       380.0000000
  free_energy:       -42.7611326
  entropy:           537.3392671
  heat_capacity:     374.3161994
  energy:            161.4277889

- temperature:       390.0000000
  free_energy:       -48.1834033
  entropy:           547.0778735
  heat_capacity:     375.5051475
  energy:            165.1769673

- temperature:       400.0000000
  free_energy:       -53.7019650
  entropy:           556.5989581
  heat_capacity:     376.6119763
  energy:            168.9376182

- temperature:       410.0000000
  free_energy:       -59.3146868
  entropy:           565.9113274
  heat_capacity:     377.6439465
  energy:            172.7089574

- temperature:       420.0000000
  free_energy:       -65.0195237
  entropy:           575.0233167
  heat_capacity:     378.6075480
  energy:            176.4902693

- temperature:       430.0000000
  free_energy:       -70.8145116
  entropy:           583.9428175
  heat_capacity:     379.5085948
  energy:            180.2808999

- temperature:       440.0000000
  free_energy:       -76.6977634
  entropy:           592.6773035
  heat_capacity:     380.3523058
  energy:            184.0802502

- temperature:       450.0000000
  free_energy:       -82.6674646
  entropy:           601.2338560
  heat_capacity:     381.1433751
  energy:            187.8877706

- temperature:       460.0000000
  free_energy:       -88.7218698
  entropy:           609.6191872
  heat_capacity:     381.8860332
  energy:            191.7029563

- temperature:       470.0000000
  free_energy:       -94.8592988
  entropy:           617.8396628
  heat_capacity:     382.5841001
  energy:            195.5253427

- temperature:       480.0000000
  free_energy:      -101.0781337
  entropy:           625.9013228
  heat_capacity:     383.2410312
  energy:            199.3545013

- temperature:       490.0000000
  free_energy:      -107.3768151
  entropy:           633.8099015
  heat_capacity:     383.8599578
  energy:            203.1900367

- temperature:       500.0000000
  free_energy:      -113.7538396
  entropy:           641.5708458
  heat_capacity:     384.4437227
  energy:            207.0315832

- temperature:       510.0000000
  free_energy:      -120.2077572
  entropy:           649.1893327
  heat_capacity:     384.9949106
  energy:            210.8788025

- temperature:       520.0000000
  free_energy:      -126.7371679
  entropy:           656.6702858
  heat_capacity:     385.5158758
  energy:            214.7313807

- temperature:       530.0000000
  free_energy:      -133.3407201
  entropy:           664.0183897
  heat_capacity:     386.0087659
  energy:            218.5890265

- temperature:       540.0000000
  free_energy:      -140.0171077
  entropy:           671.2381051
  heat_capacity:     386.4755430
  energy:            222.4514690

- temperature:       550.0000000
  free_energy:      -146.7650684
  entropy:           678.3336813
  heat_capacity:     386.9180026
  energy:            226.3184563

- temperature:       560.0000000
  free_energy:      -153.5833811
  entropy:           685.3091689
  heat_capacity:     387.3377897
  energy:            230.1897535

- temperature:       570.0000000
  free_energy:      -160.4708644
  entropy:           692.1684315
  heat_capacity:     387.7364140
  energy:            234.0651416

- temperature:       580.0000000
  free_energy:      -167.4263746
  entropy:           698.9151560
  heat_capacity:     388.1152627
  energy:            237.9444159

- temperature:       590.0000000
  free_energy:      -174.4488041
  entropy:           705.5528632
  heat_capacity:     388.4756118
  energy:            241.8273852

- temperature:       600.0000000
  free_energy:      -181.5370797
  entropy:           712.0849168
  heat_capacity:     388.8186374
  energy:            245.7138704

- temperature:       610.0000000
  free_energy:      -188.6901610
  entropy:           718.5145325
  heat_capacity:     389.1454238
  energy:            249.6037038

- temperature:       620.0000000
  free_energy:      -195.9070392
  entropy:           724.8447859
  heat_capacity:     389.4569728
  energy:            253.4967281

- temperature:       630.0000000
  free_energy:      -203.1867353
  entropy:           731.0786205
  heat_capacity:     389.7542105
  energy:            257.3927956

- temperature:       640.0000000
  free_energy:      -210.5282996
  entropy:           737.2188548
  heat_capacity:     390.0379942
  energy:            261.2917675

- temperature:       650.0000000
  free_energy:      -217.9308095
  entropy:           743.2681888
  heat_capacity:     390.3091185
  energy:            265.1935133

- temperature:       660.0000000
  free_energy:      -225.3933690
  entropy:           749.2292107
  heat_capacity:     390.5683205
  energy:            269.0979101

- temperature:       670.0000000
  free_energy:      -232.9151076
  entropy:           755.1044027
  heat_capacity:     390.8162848
  energy:            273.0048422

- temperature:       680.0000000
  free_energy:      -240.4951789
  entropy:           760.8961461
  heat_capacity:     391.0536479
  energy:            276.9142005

- temperature:       690.0000000
  free_energy:      -248.1327600
  entropy:           766.6067272
  heat_capacity:     391.2810019
  energy:            280.8258818

- temperature:       700.0000000
  free_energy:      -255.8270502
  entropy:           772.2383417
  heat_capacity:     391.4988987
  energy:            284.7397890

- temperature:       710.0000000
  free_energy:      -263.5772706
  entropy:           777.7930995
  heat_capacity:     391.7078528
  energy:            288.6558300

- temperature:       720.0000000
  free_energy:      -271.3826628
  entropy:           783.2730287
  heat_capacity:     391.9083442
  energy:            292.5739178

- temperature:       730.0000000
  free_energy:      -279.2424883
  entropy:           788.6800801
  heat_capacity:     392.1008214
  energy:            296.4939702

- temperature:       740.0000000
  free_energy:      -287.1560277
  entropy:           794.0161307
  heat_capacity:     392.2857039
  energy:            300.4159089

- temperature:       750.0000000
  free_energy:      -295.1225803
  entropy:           799.2829873
  heat_capacity:     392.4633841
  energy:            304.3396602

- temperature:       760.0000000
  free_energy:      -303.1414626
  entropy:           804.4823901
  heat_capacity:     392.6342294
  energy:            308.2651538

- temperature:       770.0000000
  free_energy:      -311.2120088
  entropy:           809.6160156
  heat_capacity:     392.7985843
  energy:            312.1923232

- temperature:       780.0000000
  free_energy:      -319.3335691
  entropy:           814.6854796
  heat_capacity:     392.9567719
  energy:            316.1211050

- temperature:       790.0000000
  free_energy:      -327.5055097
  entropy:           819.6923403
  heat_capacity:     393.1090958
  energy:            320.0514391

- temperature:       800.0000000
  free_energy:      -335.7272122
  entropy:           824.6381007
  heat_capacity:     393.2558408
  energy:            323.9832683

- temperature:       810.0000000
  free_energy:      -343.9980729
  entropy:           829.5242112
  heat_capacity:     393.3972750
  energy:            327.9165382

- temperature:       820.0000000
  free_energy:      -352.3175023
  entropy:           834.3520722
  heat_capacity:     393.5336505
  energy:            331.8511969

- temperature:       830.0000000
  free_energy:      -360.6849247
  entropy:           839.1230360
  heat_capacity:     393.6652049
  energy:            335.7871951

- temperature:       840.0000000
  free_energy:      -369.0997777
  entropy:           843.8384088
  heat_capacity:     393.7921617
  energy:            339.7244857

- temperature:       850.0000000
  free_energy:      -377.5615118
  entropy:           848.4994536
  heat_capacity:     393.9147319
  energy:            343.6630238

- temperature:       860.0000000
  free_energy:      -386.0695898
  entropy:           853.1073909
  heat_capacity:     394.0331146
  energy:            347.6027664

- temperature:       870.0000000
  free_energy:      -394.6234865
  entropy:           857.6634014
  heat_capacity:     394.1474977
  energy:            351.5436727

- temperature:       880.0000000
  free_energy:      -403.2226885
  entropy:           862.1686274
  heat_capacity:     394.2580587
  energy:            355.4857036

- temperature:       890.0000000
  free_energy:      -411.8666935
  entropy:           866.6241744
  heat_capacity:     394.3649654
  energy:            359.4288217

- temperature:       900.0000000
  free_energy:      -420.5550100
  entropy:           871.0311125
  heat_capacity:     394.4683765
  energy:            363.3729913

- temperature:       910.0000000
  free_energy:      -429.2871572
  entropy:           875.3904783
  heat_capacity:     394.5684423
  energy:            367.3181781

- temperature:       920.0000000
  free_energy:      -438.0626643
  entropy:           879.7032758
  heat_capacity:     394.6653052
  energy:            371.2643494

- temperature:       930.0000000
  free_energy:      -446.8810707
  entropy:           883.9704781
  heat_capacity:     394.7590998
  energy:            375.2114740

- temperature:       940.0000000
  free_energy:      -455.7419251
  entropy:           888.1930284
  heat_capacity:     394.8499540
  energy:            379.1595216

- temperature:       950.0000000
  free_energy:      -464.6447855
  entropy:           892.3718412
  heat_capacity:     394.9379892
  energy:            383.1084636

- temperature:       960.0000000
  free_energy:      -473.5892190
  entropy:           896.5078036
  heat_capacity:     395.0233203
  energy:            387.0582724

- temperature:       970.0000000
  free_energy:      -482.5748016
  entropy:           900.6017763
  heat_capacity:     395.1060566
  energy:            391.0089214

- temperature:       980.0000000
  free_energy:      -491.6011174
  entropy:           904.6545945
  heat_capacity:     395.1863021
  energy:            394.9603852

- temperature:       990.0000000
  free_energy:      -500.6677590
  entropy:           908.6670692
  heat_capacity:     395.2641554
  energy:            398.9126395

- temperature:      1000.0000000
  free_energy:      -509.7743269
  entropy:           912.6399876
  heat_capacity:     395.3397104
  energy:            402.8656607
