6
Lattice="4.328468995412989 0.0049975268294453834 1.2574322061254675 1.972101870340225 3.852166057870042 1.2628919575032032 0.011924605176196215 -4.1352176675343375e-05 7.997694683031536" Properties=species:S:1:pos:R:3:forces:R:3 structure_index=0 total_energy=-18.440025329589844 stress="0.010680299252271652 -0.007927958853542805 -0.010395580902695656 -0.00792788714170456 0.023044677451252937 0.0029191956855356693 -0.010395701974630356 0.002919186605140567 -0.014054247178137302" pbc="T T T"
Li       1.32966424       0.82633613       8.36520942       0.01373336       0.00764299      -0.04345330
Li       0.44531107       0.28656471       3.35768235      -0.00384907      -0.00148259       0.00991492
Ga       2.05721015       1.27367658       5.86679733       0.00074675       0.00118848       0.00290740
Ga       2.78518372       1.72095304       3.37474608      -0.00115938      -0.00151569       0.01048087
Sn       5.97212127       3.66949453       8.52612927      -0.00442911      -0.00382194       0.01005321
Sn       5.14625455       3.16759507       3.32146314      -0.00504256      -0.00201124       0.01009688
9
Lattice="4.315717262290848 -0.00732236547637056 -0.0018861969764884167 -2.1519899558348534 4.7413062006201 -1.742248172466099 0.005818994750748746 0.042423740386458714 9.311908167665413" Properties=species:S:1:pos:R:3:forces:R:3 structure_index=1 total_energy=-27.978700637817383 stress="0.019624894484877586 -0.0003727759758476168 -5.985736061120406e-05 -0.0003724402340594679 0.009381268173456192 -0.003209335496649146 -5.9844056522706524e-05 -0.003209502901881933 0.016322562471032143" pbc="T T T"
Li      -1.02942935       3.39217809       3.73502629      -0.00071222       0.01162354      -0.00833569
Li       1.12823124       1.68631826       8.41942868       0.00082220      -0.01223511       0.00789225
Ga       3.27872651       0.09811425       0.68963138       0.00141891      -0.00549493      -0.03209281
Ga       1.12859395       1.81133610       5.39506490      -0.00406099      -0.01957585       0.00616733
Ga      -1.02994825       3.26495278       6.75877349       0.00434855       0.02135093      -0.00446333
Ga       3.28200024       0.18904096       3.89323951      -0.00159015       0.00415057       0.03264217
Sn       3.28334149       0.16432338       6.94754059      -0.00033082      -0.00070117       0.00034876
Sn      -1.03090845       3.30104617       0.47746885      -0.00295783      -0.01076147       0.00199156
Sn       1.12387301       1.73428531       2.36573080       0.00306236       0.01164348      -0.00415025
8
Lattice="4.404264218390539 0.0006405674735249175 0.0013503813077438886 -0.000548507528990732 4.386498425053421 0.00018449698474731538 -0.0029875839265776855 -0.0002811245336364639 8.895231958363818" Properties=species:S:1:pos:R:3:forces:R:3 structure_index=2 total_energy=-24.958908081054688 stress="-0.020764276385307312 0.0003482144675217569 -0.0006167735555209219 0.0003481981111690402 -0.02767188847064972 0.0004378905869089067 -0.0006168637191876769 0.00043792082578875124 -0.011803554370999336" pbc="T T T"
Li       1.52400688       2.36152439       4.05401025       0.00002061       0.00007790      -0.01393178
Li       1.52515588       0.16854811       1.86728922      -0.00023868      -0.00000746       0.00757032
Ga       3.72686284       0.16867171       3.98647524      -0.00038839       0.00003112      -0.00374879
Ga       3.72595774       2.36164601       6.16723849      -0.00039008       0.00003829       0.00365072
Ga       3.72372240       0.16944576       8.49273134       0.00033139      -0.00013058       0.01802930
Sn       1.52410827       0.16810083       6.06152276       0.00022216       0.00036724       0.02106666
Sn       3.72650230       2.36206289       2.03494166       0.00046703      -0.00006465       0.00085464
Sn       1.52125370       2.36224530       8.54835707      -0.00002405      -0.00031186      -0.03349106
8
Lattice="4.230291253878541 -0.010877836790048213 0.005800691084209276 0.012817653403599768 6.005608745502196 -0.05176542257497959 -0.00903749255009403 -0.0043473257390486885 6.005766502532286" Properties=species:S:1:pos:R:3:forces:R:3 structure_index=3 total_energy=-23.95793914794922 stress="0.009885920211672783 -0.007110585458576679 -0.0017642873572185636 -0.00711065623909235 0.01626965031027794 -0.002951303729787469 -0.0017642827006056905 -0.002951389877125621 0.014451924711465836" pbc="T T T"
Li       0.33565674       3.87939938       4.69264724      -0.00030328      -0.00171507      -0.00099232
Li       0.34001667       3.87962199       1.68906604       0.00006655       0.00093872       0.00055732
Li       0.33379571       0.87703858       1.71636843      -0.00033998      -0.00003080      -0.00070451
Ga       2.45667353       5.41909923       3.22616395      -0.00070586      -0.03335692      -0.03643740
Ga       0.32914058       0.87591815       4.71884978      -0.00017376       0.00051126      -0.00033813
Ga       2.45362615       2.33064722       0.15921463       0.00101987       0.03360165       0.03509393
Sn       2.46049348       5.34240402       0.21383348       0.00031155       0.00352351      -0.00105489
Sn       2.44987857       2.40760817       3.17085427       0.00012491      -0.00347234       0.00387600
12
Lattice="4.030614164852246 0.005328802391368707 1.1318324389151655 1.2381911618552224 7.058709820237327 3.301515245864886 -0.05007629536263071 0.01187924036640825 7.922973324727261" Properties=species:S:1:pos:R:3:forces:R:3 structure_index=4 total_energy=-34.856292724609375 stress="0.027469217777252197 -0.0023997770622372627 0.0032145085278898478 -0.002399606630206108 0.012712141498923302 0.008192266337573528 0.003214640775695443 0.008192194625735283 0.017630506306886673" pbc="T T T"
Li       2.88661211       0.33522840       3.00934785      -0.00136146       0.00473384       0.00808718
Li       0.38029705       1.53702099       4.18706191      -0.00500228       0.01055717       0.01731589
Li       4.24708555       4.51116903       5.88721186       0.00250291       0.01855320      -0.00493037
Li       3.60361945       1.00075663       8.19634693      -0.00332130      -0.01030293       0.01577921
Ga       2.52873327       6.33633252       4.25960565      -0.00249680       0.00115385       0.00275445
Ga       2.75016675       3.15463831       3.48044982      -0.00002589       0.00214759       0.01182077
Ga       3.36936005       6.76884424       9.00242798       0.00003948       0.01851222       0.00932203
Ga       1.78011599       5.78021110       6.92655243       0.00386534      -0.00970682      -0.01947920
Ga       1.14723079       2.06112643       1.45594339       0.00225921      -0.01685996      -0.01880989
Ga       3.46044297       3.90214073       8.69378895       0.01052497      -0.02093972      -0.02966012
Sn       1.91908137       2.72885192       6.44672123       0.00318657      -0.01246317      -0.01879478
Sn       0.95224208       5.14085947       9.88037276      -0.01017071       0.01461471       0.02659479
8
Lattice="4.262483705429493 -0.0006999652199048899 -0.001170342910803969 0.0006297590672088302 4.375756065659275 -0.0003923220732637636 0.003324828482533077 0.00032157642231988415 8.763220034666745" Properties=species:S:1:pos:R:3:forces:R:3 structure_index=5 total_energy=-24.735427856445312 stress="-0.019123949110507965 -0.00035695297992788255 0.0006289379089139402 -0.00035691753146238625 -0.03330494090914726 0.0005388967110775411 0.0006289700395427644 0.0005387921701185405 0.010781766846776009" pbc="T T T"
Li       3.96812292       0.84483157       4.56730252       0.00009789      -0.00024996       0.00015017
Li       1.83537599       3.03148724       0.18303576       0.00025104       0.00037504       0.00215126
Li       1.83737098       3.03327206       4.56751662      -0.00039649      -0.00019679       0.00055692
Ga       1.83861215       0.84582918       6.67700139      -0.00177519      -0.00035940      -0.00227538
Ga       1.83519949       0.84438858       2.46054406       0.00168429       0.00006016      -0.00101566
Sn       3.96652711       0.84369307       0.18597549      -0.00031935       0.00000274       0.00096013
Sn       3.96941348       3.03304924       6.63220391       0.00086718      -0.00029489      -0.01696888
Sn       3.96736583       3.03183306       2.50136974      -0.00040936       0.00066310       0.01644143
10
Lattice="6.121883777624657 0.02071053672023101 -0.9340496234536851 -2.2662738653705583 5.283332730515179 -1.0385653779714745 0.01604240384606987 -0.01512037742864924 6.822267610972332" Properties=species:S:1:pos:R:3:forces:R:3 structure_index=6 total_energy=-31.414308547973633 stress="0.013975388370454311 -0.0024280152283608913 0.00022328997147269547 -0.002427942119538784 -0.0039297002367675304 0.0013262550346553326 0.00022324675228446722 0.0013262388529255986 0.01781485043466091" pbc="T T T"
Li      -0.11550788       1.55270676       0.97402307      -0.00808826      -0.00649953      -0.00251580
Li       2.75306352       5.19612505       1.20806317       0.00901102       0.00606679       0.00206503
Ga       4.13368667       1.03758228       4.71086996      -0.01947921       0.00364033       0.00897832
Ga       1.93297018       0.51122327       2.87775771      -0.01589714       0.03076383      -0.01024875
Ga       2.97206211       0.95632253       0.33956335       0.01349525      -0.03187361       0.01034249
Ga       0.79318936       0.41149450       5.33172380       0.01819906      -0.00383524      -0.00846362
Sn       1.42080540       3.30792577      -0.82339289       0.01423071       0.00936774       0.04473353
Sn       1.21249285       3.44339944       3.00593311      -0.01793626      -0.01180366      -0.04454864
Sn       4.27680745       2.84273615       2.33274881      -0.00893315      -0.01147123       0.02284056
Sn      -1.64574719       3.90338700      -0.14968261       0.01539800       0.01564456      -0.02318309
11
Lattice="4.271540763583086 0.003452179671689316 -4.605320261362733e-05 -0.0034451603926621372 4.191286263905877 -0.000512935390859023 0.0009305465255396661 -0.00012254803124110716 11.881253781225885" Properties=species:S:1:pos:R:3:forces:R:3 structure_index=7 total_energy=-31.632198333740234 stress="-0.023871740326285362 -0.00019567155686672777 0.000279470143141225 -0.0001957100466825068 0.035713374614715576 0.00032905154512263834 0.00027956836856901646 0.00032900317455641925 0.02445596270263195" pbc="T T T"
Li       2.43486746       4.04007150       0.29344665       0.00093500      -0.00067680      -0.00247935
Li       2.43643894       4.03876130       8.31197910      -0.00029279       0.00022179      -0.01456328
Ga       0.30219700       1.94140080       8.21927640      -0.00010475      -0.00069935      -0.00880408
Ga       2.43689916       1.94475328       2.53940813       0.00170650      -0.00037349       0.01226631
Ga       2.43795038       1.94341815      10.23585324      -0.00005488       0.00031415      -0.01469818
Ga       0.30040546       4.03728228      10.21174368      -0.00002259       0.00009747      -0.01368904
Ga       2.43590205       4.04117621       4.60485339       0.00067416      -0.00084428       0.01663448
Ga       0.30123493       1.94219642       0.30785297      -0.00053942       0.00027294       0.01361024
Ga       0.30032574       4.03636679       6.31150862      -0.00043176       0.00066471       0.00411269
Ga       2.43766413       1.94450578       6.28204508       0.00038649       0.00077827       0.01365815
Sn       0.30019173       4.03821985       2.57037560      -0.00225596       0.00024459      -0.00604794
14
Lattice="5.444261051121217 -0.08476909554580037 -0.27377590911520916 -2.042494476529886 5.673222574874916 -3.1298702661047426 -0.05299137199636903 0.023778674497495073 7.7718361743584286" Properties=species:S:1:pos:R:3:forces:R:3 structure_index=8 total_energy=-38.041378021240234 stress="-0.010545950382947922 0.005656897556036711 -0.008880932815372944 0.005657004192471504 0.004479335620999336 4.0828010241966695e-05 -0.008880922570824623 4.051774521940388e-05 -0.0014376882463693619" pbc="T T T"
Li       3.83623729       4.07123923       0.45278557       0.01357184       0.00198983       0.01021360
Li       1.94847759       5.59208270       1.90951617      -0.00930382      -0.01925292       0.01060282
Li       1.56816697       4.80168229       4.70501372      -0.00959347       0.00963175      -0.01898078
Li       0.02918794       2.42417163       5.00708141      -0.00420455      -0.00232977      -0.01453588
Li       1.81246472       0.86707527       3.51561810       0.00474147       0.00603714       0.01376031
Li      -1.13545696       4.92416905      -1.86688636      -0.01338247       0.01275213      -0.00685140
Li      -0.32528566       1.74218322       0.01579741       0.00499786       0.01492582      -0.01671553
Li       3.31877420       3.10353048       3.12634537      -0.00806445       0.00895047      -0.00233799
Li       2.36091386       1.63088548       0.81092164       0.02546392      -0.01151677      -0.01256681
Ga       4.53466738       0.73893578       2.38253741       0.00093192      -0.00532259      -0.00253336
Ga       0.57718003       3.06711365       2.28393384       0.00026753       0.04587623      -0.00334292
Ga       1.06654099       4.16522642      -0.32713268       0.00464055      -0.02065438       0.00032227
Sn      -0.78856340       5.62123674       3.18346402       0.01711202      -0.04574254       0.00824254
Sn       2.81408587       2.47200237       5.87670456      -0.02717841       0.00465558       0.03472323
8
Lattice="4.330085087784415 0.00906997055469696 -0.010996965328317749 -0.00739366055598217 4.242623350393231 -0.008000364978898973 0.02494355281247823 0.01908677746547461 8.684956817464581" Properties=species:S:1:pos:R:3:forces:R:3 structure_index=9 total_energy=-24.29509735107422 stress="0.017504407092928886 0.006450358312577009 0.006855158135294914 0.006450349930673838 -0.048165615648031235 0.005111614242196083 0.006855216808617115 0.005111632402986288 0.015241861343383789" pbc="T T T"
Li       2.74053064       4.02113398       8.20410844      -0.00091834      -0.00021409      -0.01687269
Li       2.73073902       4.01259693       4.06169292      -0.00058032      -0.00059546      -0.00359381
Ga       0.56875948       4.01221570       6.28897066       0.00211718      -0.00025186       0.00037828
Ga       0.57942146       1.89491178       8.18083095       0.00092464       0.00067033      -0.00300562
Ga       2.73925746       1.89488957       6.26580090      -0.00060152       0.00116534       0.00457607
Ga       0.55774435       4.00342857       1.69325954      -0.00048348      -0.00128118       0.02754273
Sn       0.56937190       1.88658684       4.12464123      -0.00135983       0.00053817       0.00728716
Sn       2.72617370       1.88621586       1.66149591       0.00090168      -0.00003125      -0.01631211
7
Lattice="4.137700548309781 -0.0027744958996680264 0.0022242534581685255 -2.0661902091433038 4.6481498714808485 -0.4786075155010727 -0.004004224351045522 -0.08432276059019844 6.480595513792936" Properties=species:S:1:pos:R:3:forces:R:3 structure_index=10 total_energy=-20.107017517089844 stress="-0.052179716527462006 -0.002243138151243329 -0.0015643506776541471 -0.0022429993841797113 0.02099021151661873 -0.015751445665955544 -0.001564175938256085 -0.015751326456665993 0.049873702228069305" pbc="T T T"
Li       3.42976723       0.46183279       4.56490481       0.00113166      -0.03001229      -0.00000369
Li       1.36576360       3.68332403       1.42156544      -0.00036529       0.04742137       0.01229236
Li      -0.70583572       4.34216268       5.95540915      -0.00030226       0.00455280       0.00687888
Ga      -0.70557742       3.18175080       3.40105314       0.00047905      -0.01952219      -0.03898571
Ga       1.36323467       0.97218153       2.74316753      -0.00015571       0.00151699       0.00841021
Ga       1.36189965       2.49451518       5.03565455       0.00028061      -0.03587358       0.02577389
Sn      -0.70345968       1.73001365       0.76921520      -0.00106801       0.03191690      -0.01436595
4
Lattice="3.766253351160163 -0.022613450756620707 -1.6156696841345006 -0.6766793698721834 3.690413208434918 -1.6319363472462725 -0.059299244655952335 -0.05160888041503449 5.025066301158279" Properties=species:S:1:pos:R:3:forces:R:3 structure_index=11 total_energy=-11.26162052154541 stress="0.03921656310558319 0.0038782255724072456 -0.01617932878434658 0.003878226736560464 0.017219586297869682 -0.0269144419580698 -0.016179397702217102 -0.026914408430457115 -0.05068812519311905" pbc="T T T"
Li       3.33629666       0.54910511       0.19052901      -0.00061588       0.00009323       0.00205422
Ga       2.19663960       1.44933386       2.69700228       0.00004364       0.00268113       0.00502237
Ga       1.11473879       2.40616206       0.18449780       0.00038382      -0.00093199      -0.00153938
Ga      -0.02693877       3.31002477       2.69617763       0.00018842      -0.00184238      -0.00553721
3
Lattice="3.9268205171635664 -0.0006884361590759081 2.272669630806389 1.3055346782237798 3.703192760433823 2.273173930343805 -0.0027848008736064923 -0.002089704397915229 4.536717489692146" Properties=species:S:1:pos:R:3:forces:R:3 structure_index=12 total_energy=-9.425344467163086 stress="-0.04392275959253311 -0.006183532532304525 0.011255543678998947 -0.006183445919305086 -0.042955122888088226 0.009422322735190392 0.011255335994064808 0.009422355331480503 -0.03500272333621979" pbc="T T T"
Li       4.46445836       2.54817775       4.25920124      -0.00086852      -0.00106157       0.00050611
Ga       3.15330810       1.61986024       6.52644534      -0.00085414       0.00026250      -0.00005883
Sn       1.84550767       0.69462317       4.25628364       0.00172263       0.00079907      -0.00044729
14
Lattice="6.115560721887115 0.05172427274336106 -0.198358506613077 -1.7224908275429371 6.047600469972898 -2.096370298798801 0.08588931259506927 0.039216918551240286 7.418756712929479" Properties=species:S:1:pos:R:3:forces:R:3 structure_index=13 total_energy=-41.498992919921875 stress="-0.002252548933029175 -0.006017032079398632 -0.008657602593302727 -0.006017006002366543 0.0007184643764048815 -0.0032252080272883177 -0.008657548576593399 -0.003225556807592511 -0.0007076639449223876" pbc="T T T"
Li       2.25673006       3.63362217       1.34358374       0.00537911       0.02257934      -0.00079722
Li       0.77545987       0.89747244       1.44309128      -0.01142340       0.02094055      -0.01988165
Li      -0.69364602       5.01357436       4.05271162       0.00709759      -0.03774902       0.02005662
Li       2.23035068       5.26603838       3.93411922      -0.00252596       0.02027501       0.00125035
Ga       0.90301223       2.61250009       3.75093629       0.01303426       0.00139121      -0.00948138
Ga       2.37825037       0.09264986       3.81542193      -0.02205084       0.02663825       0.02546148
Ga       2.45272454       1.72092225       6.17526817      -0.01772218       0.01239132       0.03586670
Ga       3.83753420       6.06701691       1.51651765       0.00513378      -0.01871426       0.00710087
Ga      -0.61450381       3.57202486       1.54207535      -0.01411516      -0.00819250      -0.01329489
Ga       3.81054257       2.74506219       3.78599357      -0.00682225       0.00966891      -0.01342112
Ga       0.72397483       4.27419646      -1.01555684       0.01581765      -0.01972606      -0.01021910
Sn       5.62833021       1.68589527       6.02506842      -0.00408385      -0.03523165      -0.00700250
Sn       3.77300325       1.01471211       1.36703741      -0.00576921      -0.00598656      -0.00470625
Sn       3.78659825       4.33384103      -1.07138075       0.03805047       0.01171539      -0.01093193
16
Lattice="6.343936483316144 0.008794082145862714 -0.0016637695547011928 -0.010077201775586202 6.24509386597475 0.15257019776867414 -0.0001214202987953518 0.036852938781534325 8.893952787149404" Properties=species:S:1:pos:R:3:forces:R:3 structure_index=14 total_energy=-51.32369613647461 stress="-0.0046426840126514435 -0.001004207064397633 -3.848834694508696e-06 -0.0010041325585916638 0.006299585569649935 -0.002559468150138855 -3.7255940696923062e-06 -0.00255947164259851 0.020689895376563072" pbc="T T T"
Li       5.87951814       4.52085578       5.71043293       0.00059426      -0.00092511      -0.00453222
Li       2.71706874       1.37828972       1.18722546      -0.00198268      -0.00123488      -0.00308649
Li       5.88836610       1.38261345       1.18412330      -0.00220933      -0.00185239      -0.00108948
Li       5.88321959       4.50399657       1.26025274      -0.00186710      -0.00141160       0.00094757
Li       5.88445818       1.39384545       5.63081666      -0.00050941       0.00525270       0.00376512
Li       2.70676218       4.51528422       5.70814077       0.00101237      -0.00063276      -0.00145194
Ga       4.26937878       6.08452520       7.96830737       0.03750894       0.00971922      -0.00049493
Ga       1.14378871       2.94972120       3.44873828      -0.03400291      -0.00279970      -0.00138857
Sn       4.31106728       2.96752706       7.89277554       0.00027279      -0.00895716      -0.00006380
Sn       4.35453901       6.07100864       3.52314304       0.04510090      -0.00363986      -0.00365643
Sn       2.71333344       1.39224686       5.62494922      -0.00004946       0.00537469       0.01839308
Sn       2.71040379       4.49920120       1.26617626      -0.00414574      -0.00111124      -0.00858282
Sn       1.06556442       2.95939302       7.89248499      -0.04155775       0.00261400       0.00283781
Sn       4.40557556       2.94783549       3.44673281       0.03917951       0.00647579      -0.00116654
Sn       1.01615510       6.08338040       7.97027037      -0.03614607       0.00059327       0.00048166
Sn       1.10471410       6.07169091       3.52300775      -0.00119828      -0.00746495      -0.00091204
12
Lattice="4.25660500985582 -0.001095092953389807 -1.416438998237122 0.003033906583149983 6.442356419045921 0.0003043007247091013 -0.001101985092633138 -0.00014087898999141834 7.100636443849266" Properties=species:S:1:pos:R:3:forces:R:3 structure_index=15 total_energy=-33.38813781738281 stress="0.009547159075737 0.007111508399248123 0.008409769274294376 0.007111520040780306 -0.01937268115580082 0.0006828245241194963 0.00840984657406807 0.0006828528712503612 0.031951043754816055" pbc="T T T"
Li       1.01177875       3.45341720       1.84089366      -0.00539367       0.03701478      -0.01648159
Li       2.41742415       3.48333771       6.06466769      -0.00043209      -0.01236857      -0.00046374
Li       3.82311480       3.45404418       3.18712750       0.00582335       0.03433585       0.01659967
Li       3.82121194       0.11916679       3.18606308       0.00632272      -0.03410444       0.01847005
Li       1.01054484       0.12169822       1.84150699      -0.00610370      -0.03752066      -0.01741044
Li       2.41580909       0.09020114       6.06414690      -0.00059767       0.01282487      -0.00021125
Ga       0.28988819       5.00885085       6.77280374      -0.00025638      -0.00030943      -0.00002339
Ga       1.71269461       5.00781766       3.94711885       0.00165207       0.00058763       0.00432214
Ga       1.68974626       1.78775234       3.88257839      -0.01499791      -0.00075174      -0.04608537
Ga       3.14385308       1.78721527       1.14678091       0.01497786      -0.00037582       0.04388215
Ga       3.12362886       5.00787711       1.08037811      -0.00151555       0.00009371      -0.00276781
Sn       0.28789425       1.78709559       6.77195938       0.00052100       0.00057383       0.00016957
6
Lattice="3.1828226051789836 -0.022379700202096686 0.7012004280044949 -0.17371525795616607 5.051083013716983 0.9972868618328905 -0.004438522337741058 -0.3226815959966214 7.550197647773276" Properties=species:S:1:pos:R:3:forces:R:3 structure_index=16 total_energy=-18.520191192626953 stress="-0.059234369546175 0.002107778796926141 -0.0077988444827497005 0.0021076789125800133 -0.03436565771698952 -0.015991652384400368 -0.007798722945153713 -0.015991805121302605 -0.0325825996696949" pbc="T T T"
Li       2.25372019       1.14812785       6.95793081      -0.00321506       0.01653834       0.00449308
Li       1.67886870       2.91035940       2.07010894       0.00366192      -0.01827789      -0.00632726
Ga       1.20494753       0.87218713       4.18200721      -0.01036761       0.00011214      -0.00291529
Ga       2.72928527       3.18184668       4.84426886       0.01034843       0.00495517       0.00035808
Sn       0.14339075       0.38527347       1.40729648      -0.00339408       0.01716628      -0.01652483
Sn       0.60675442       3.69478594       6.91722927       0.00296640      -0.02049405       0.02091624
10
Lattice="2.958548208232593 0.0002121108517830006 -0.00017361309553805049 -1.480377605085704 6.9271261517910805 -2.2516820374005895 0.0005104779693123753 -0.005099665838528271 9.286796679147333" Properties=species:S:1:pos:R:3:forces:R:3 structure_index=17 total_energy=-29.32406997680664 stress="0.038242630660533905 4.888550392934121e-05 -9.084201883524656e-05 4.8853940825210884e-05 -0.028378650546073914 -0.009216307662427425 -9.081388998311013e-05 -0.009216126054525375 -0.018102217465639114" pbc="T T T"
Li       0.46777935       2.70203815      -0.15052436       0.00019962      -0.02156727       0.00478855
Li      -1.01182093       6.23031699       0.13111913      -0.00041332       0.02118983      -0.00500143
Li       0.46803651       2.89879251       4.76711564       0.00009906      -0.01322550      -0.00109034
Li      -1.01193175       6.02818365       4.50058219       0.00005622       0.01360083       0.00037352
Ga       1.94759448       1.52285948       6.96078016       0.00007722      -0.02641279       0.00042320
Ga       1.94758593       0.47736793       4.55757547      -0.00007887       0.02558381       0.00123001
Ga       1.94689414       1.79879765       2.24192477       0.00047884      -0.01498713      -0.00829856
Ga       1.94778047       0.20633940      -0.00988063      -0.00039095       0.01603836       0.00728217
Sn       0.46688382       4.51903594       2.25435989       0.00021010       0.03193488      -0.02931906
Sn       1.94798699       4.40827935       7.01292784      -0.00023790      -0.03215503       0.02961193
7
Lattice="4.282038157820629 -0.014134451125691618 0.004605757001417698 -2.1274382628454864 4.857056737286083 0.7989303233068847 -0.003975116724937201 -0.19513926646426893 6.802525978414052" Properties=species:S:1:pos:R:3:forces:R:3 structure_index=18 total_energy=-21.34330940246582 stress="0.04643867164850235 -9.30985770537518e-05 0.0011321005877107382 -9.317124204244465e-05 0.03561659902334213 0.01959342695772648 0.0011320151388645172 0.01959352008998394 0.01589859277009964" pbc="T T T"
Li       0.77665576       2.63144209       6.33541427      -0.00206560       0.02971015       0.01107577
Li       0.76866997       0.16660558       4.63796683       0.00148873      -0.02936657      -0.01120789
Ga      -1.36181787       3.51079993       1.34847563       0.00462155       0.02493114       0.03905413
Ga       0.78306845       4.33944059       3.62135026      -0.00356703      -0.02447712      -0.03924827
Ga       0.77444288       1.49677257       2.08529136       0.00008608      -0.00028685       0.00052217
Sn       2.91630496       2.34326037       4.06435015       0.00264853      -0.02693157       0.03898075
Sn       2.91085878       0.44080015       6.91367095      -0.00321228       0.02642081      -0.03917667
20
Lattice="7.502448924445377 0.07686794511395201 -1.463685629321964 -3.943193373873619 6.438402802510497 -1.4118116531919471 -0.0823261428125624 -0.12742322472201648 9.433541123092114" Properties=species:S:1:pos:R:3:forces:R:3 structure_index=19 total_energy=-64.67295837402344 stress="0.009305529296398163 -0.00021503899188246578 0.0006956441211514175 -0.00021533500694204122 0.008025107905268669 0.0013035153970122337 0.0006956127472221851 0.0013035363517701626 0.007931917905807495" pbc="T T T"
Li      -1.69498001       3.10815934       0.68839736      -0.00829995      -0.00131063       0.01133756
Li      -2.26253903       5.73687117      -0.82282208      -0.03059308      -0.00538710       0.00716196
Li       1.80482356       1.61751813       7.09278137       0.00378515      -0.01812444      -0.02823439
Li       1.21963530       4.27843556       5.53882876       0.01366115       0.00576089       0.00750055
Li       6.78226886       0.84647494       0.92564797       0.00730915      -0.00203951      -0.01041603
Ga      -0.22268787       3.62307119       3.10141649       0.00888433       0.00498192      -0.00571797
Ga       2.05885360       1.93672839       3.96319990       0.03417159       0.02460086      -0.00591189
Ga       2.68300811       4.49094243      -1.19625172      -0.00802625      -0.01089419       0.03292356
Ga       4.12395705       0.19595644       5.23844791      -0.01085030      -0.01320474       0.03472846
Ga      -0.24947421       3.60439465       7.83331689       0.00106558       0.00511654       0.00436315
Sn       4.37294696       2.40319688       1.91767295      -0.00306007       0.01568358      -0.02014739
Sn      -2.56019204       5.48939031       2.18669131       0.01421982       0.00886840       0.02142758
Sn       0.38992247       5.59482968       0.73247575      -0.01071212       0.00473637       0.00631956
Sn       2.64884647       5.00270658       2.95861315      -0.00792290       0.01605052      -0.02119910
Sn      -1.79106002       4.97921332       5.49812164      -0.02196512      -0.01853668       0.00209896
Sn       4.18620069       3.06135386       6.04169081       0.02008495      -0.00900116       0.01732596
Sn       4.18062225       0.56224949      -0.81433635      -0.00163239      -0.04568456       0.00195662