# Tetrahedron method
       -2.7086453347        0.0000000000
       -2.6316982764        0.0000000000
       -2.5547512182        0.0000000000
       -2.4778041599        0.0000000000
       -2.4008571016        0.0000000000
       -2.3239100434        0.0000000000
       -2.2469629851        0.0000000000
       -2.1700159268        0.0000000000
       -2.0930688686        0.0000000000
       -2.0161218103        0.0000000000
       -1.9391747520        0.0000000000
       -1.8622276938        0.0000000000
       -1.7852806355        0.0000000000
       -1.7083335772        0.0000000000
       -1.6313865190        0.0000000000
       -1.5544394607        0.0000000000
       -1.4774924024        0.0000000000
       -1.4005453442        0.0358666265
       -1.3235982859        0.1134214476
       -1.2466512276        0.1476720317
       -1.1697041694        0.1812286887
       -1.0927571111        0.1994273925
       -1.0158100528        0.2167648330
       -0.9388629946        0.2290650317
       -0.8619159363        0.2354891642
       -0.7849688780        0.2360048690
       -0.7080218198        0.2296049593
       -0.6310747615        0.2129754732
       -0.5541277032        0.1985951700
       -0.4771806450        0.1849951892
       -0.4002335867        0.1747041132
       -0.3232865284        0.1606214862
       -0.2463394702        0.1489087368
       -0.1693924119        0.1480377220
       -0.0924453536        0.1523193928
       -0.0154982954        0.1584330933
        0.0614487629        0.1661226711
        0.1383958212        0.1769726022
        0.2153428794        0.1954001175
        0.2922899377        0.2150790298
        0.3692369960        0.2523966616
        0.4461840542        0.3173711847
        0.5231311125        0.3754475114
        0.6000781708        0.4368810997
        0.6770252290        0.5217072682
        0.7539722873        0.6032594144
        0.8309193456        0.6969655245
        0.9078664038        0.7744819384
        0.9848134621        0.8549794895
        1.0617605204        0.9422597506
        1.1387075786        0.9458047127
        1.2156546369        1.0081629855
        1.2926016952        1.1156591341
        1.3695487535        1.0766498890
        1.4464958117        1.1707951171
        1.5234428700        1.3290529409
        1.6003899283        1.6908667235
        1.6773369865        2.2700957133
        1.7542840448        2.2844632556
        1.8312311031        2.4459954254
        1.9081781613        2.1877189870
        1.9851252196        1.9295026161
        2.0620722779        1.8728142964
        2.1390193361        3.0083556026
        2.2159663944        2.7633995201
        2.2929134527        1.1355259936
        2.3698605109        0.4539425093
        2.4468075692        0.0855524561
        2.5237546275        0.0000000000
        2.6007016857        0.0000000000
        2.6776487440        0.0000000000
        2.7545958023        0.0000000000
        2.8315428605        0.0000000000
        2.9084899188        0.0000000000
        2.9854369771        0.0000000000
        3.0623840353        0.0000000000
        3.1393310936        0.0000000000
        3.2162781519        0.0000000000
        3.2932252101        0.0000000000
        3.3701722684        0.0000000000
        3.4471193267        0.0000000000
        3.5240663849        0.0000000000
        3.6010134432        0.0000000000
        3.6779605015        0.0000000000
        3.7549075597        0.0000000000
        3.8318546180        0.0000000000
        3.9088016763        0.0000000000
        3.9857487345        0.0000000000
        4.0626957928        0.0000000000
        4.1396428511        0.0000000000
        4.2165899093        0.0000000000
        4.2935369676        0.0000000000
        4.3704840259        0.0000000000
        4.4474310841        0.0000000000
        4.5243781424        0.0000000000
        4.6013252007        0.0000000000
        4.6782722589        0.0000000000
        4.7552193172        0.0000000000
        4.8321663755        0.0000000000
        4.9091134337        0.0000000000
        4.9860604920        0.1576967383
        5.0630075503        0.4023264459
        5.1399546085        0.5955303346
        5.2169016668        0.6343254328
        5.2938487251        0.6758946545
        5.3707957834        0.7261574300
        5.4477428416        0.8007289649
        5.5246898999        0.8966692149
        5.6016369582        1.0311779035
        5.6785840164        1.3360775329
        5.7555310747        1.8406514347
        5.8324781330        2.4218564957
        5.9094251912        3.1120485769
        5.9863722495        2.4288057937
        6.0633193078        2.8502703784
        6.1402663660        2.8188274473
        6.2172134243        3.6427051926
        6.2941604826        2.6332526944
        6.3711075408        3.4862378629
        6.4480545991        2.2951298635
        6.5250016574        0.8008798993
        6.6019487156        0.5245293911
        6.6788957739        0.3572700274
        6.7558428322        0.3236581474
        6.8327898904        0.2851069436
        6.9097369487        0.2599748932
        6.9866840070        0.2295651956
        7.0636310652        0.2083300949
        7.1405781235        0.1880979282
        7.2175251818        0.1669409901
        7.2944722400        0.1519812799
        7.3714192983        0.1332005057
        7.4483663566        0.1191945604
        7.5253134148        0.0840801830
        7.6022604731        0.0592453274
        7.6792075314        0.0805411463
        7.7561545896        0.3083569251
        7.8331016479        1.2199383767
        7.9100487062        2.6456797347
        7.9869957644        3.8922987785
        8.0639428227        3.9401080846
        8.1408898810        3.5406774462
        8.2178369392        2.9718851206
        8.2947839975        2.5099631783
        8.3717310558        2.6721292460
        8.4486781140        2.4519788250
        8.5256251723        2.9293976897
        8.6025722306        3.1075601220
        8.6795192888        2.9929043978
        8.7564663471        2.4257457511
        8.8334134054        2.2243213991
        8.9103604636        2.0116742685
        8.9873075219        1.8695312205
        9.0642545802        2.0986098967
        9.1412016384        1.8827144813
        9.2181486967        1.6441073885
        9.2950957550        1.3646775237
        9.3720428133        1.3308460510
        9.4489898715        1.3483143846
        9.5259369298        1.4310548681
        9.6028839881        1.6828515096
        9.6798310463        1.8862513878
        9.7567781046        1.8888600728
        9.8337251629        1.4615120734
        9.9106722211        1.3408032044
        9.9876192794        1.3273648490
       10.0645663377        1.1899633866
       10.1415133959        1.0749078309
       10.2184604542        1.0189851393
       10.2954075125        0.9933338086
       10.3723545707        0.9641965455
       10.4493016290        0.9386748750
       10.5262486873        0.7889318521
       10.6031957455        0.7605830121
       10.6801428038        0.7941528733
       10.7570898621        0.7968364963
       10.8340369203        0.7896529051
       10.9109839786        0.7863318582
       10.9879310369        0.5909550514
       11.0648780951        0.4614958434
       11.1418251534        0.3660456484
       11.2187722117        0.2846051721
       11.2957192699        0.1984367481
       11.3726663282        0.0808071300
       11.4496133865        0.0000000000
       11.5265604447        0.0000000000
       11.6035075030        0.0000000000
       11.6804545613        0.0000000000
       11.7574016195        0.0000000000
       11.8343486778        0.0000000000
       11.9112957361        0.0000000000
       11.9882427943        0.0000000000
       12.0651898526        0.0000000000
       12.1421369109        0.0000000000
       12.2190839691        0.0000000000
       12.2960310274        0.0000000000
       12.3729780857        0.0000000000
       12.4499251439        0.0000000000
       12.5268722022        0.0000000000
       12.6038192605        0.0000000000
       12.6807663187        0.0000000000
