phonopy:
  version: "2.37.1"
  frequency_unit_conversion_factor: 15.633302
  symmetry_tolerance: 1.00000e-05

space_group:
  type: "P1"
  number: 1
  Hall_symbol: "P 1"

primitive_matrix:
- [ -1.000000000000000,  0.000000000000000, -0.000000000000000 ]
- [ -1.000000000000000, -1.000000000000000, -0.000000000000000 ]
- [  0.000000000000000,  0.000000000000000,  1.000000000000000 ]

supercell_matrix:
- [   3,   0,   0 ]
- [   0,   3,   0 ]
- [   0,   0,   1 ]

primitive_cell:
  lattice:
  - [    -2.497806299875398,    -4.327569210835856,     0.000000000000000 ] # a
  - [     2.500969809438995,    -4.327569210835856,     0.000000000000000 ] # b
  - [     0.003055005756853,    -0.005742308303404,    14.415799392161960 ] # c
  points:
  - symbol: Li # 1
    coordinates: [  0.513368074153759,  0.591635238909665,  0.193206334692450 ]
    mass: 6.940000
  - symbol: Li # 2
    coordinates: [  0.180242670766013,  0.257583849706512,  0.717738967577150 ]
    mass: 6.940000
  - symbol: Li # 3
    coordinates: [  0.513214536958983,  0.591022088983783,  0.578307105775629 ]
    mass: 6.940000
  - symbol: Li # 4
    coordinates: [  0.846570710986925,  0.924320700123525,  0.047910233949053 ]
    mass: 6.940000
  - symbol: Li # 5
    coordinates: [  0.846863352363236,  0.924229078209218,  0.827257247725868 ]
    mass: 6.940000
  - symbol: Sn # 6
    coordinates: [  0.513275826315151,  0.590976542609804,  0.994061149104945 ]
    mass: 118.710000
  - symbol: Sn # 7
    coordinates: [  0.846624422894510,  0.924339004881766,  0.458002762792037 ]
    mass: 118.710000
  - symbol: Sn # 8
    coordinates: [  0.846705299300744,  0.924905322913439,  0.244384787472264 ]
    mass: 118.710000
  - symbol: Sn # 9
    coordinates: [  0.513569802582568,  0.590904975141250,  0.783558592155398 ]
    mass: 118.710000
  - symbol: Sn # 10
    coordinates: [  0.179892658359177,  0.257750369974563,  0.522122913551120 ]
    mass: 118.710000
  - symbol: Sn # 11
    coordinates: [  0.179956137476576,  0.258287326839144,  0.308526530320060 ]
    mass: 118.710000
  - symbol: Sn # 12
    coordinates: [  0.180024748930085,  0.257573221011179,  0.918264468099600 ]
    mass: 118.710000
  reciprocal_lattice: # without 2pi
  - [    -0.200048967613626,    -0.115611421570883,    -0.000003657492513 ] # a*
  - [     0.200048967613625,    -0.115465183165117,    -0.000088388260206 ] # b*
  - [     0.000000000000000,    -0.000000000000000,     0.069368334893985 ] # c*

unit_cell:
  lattice:
  - [     4.998776109314394,     0.000000000000000,     0.000000000000000 ] # a
  - [    -2.500969809438995,     4.327569210835857,     0.000000000000000 ] # b
  - [     0.003055005756853,    -0.005742308303404,    14.415799392161960 ] # c
  points:
  - symbol: Li # 1
    coordinates: [  0.486631925846241,  0.894996686936577,  0.193206334692450 ]
    mass: 6.940000
    reduced_to: 1
  - symbol: Li # 2
    coordinates: [  0.819757329233987,  0.562173479527476,  0.717738967577150 ]
    mass: 6.940000
    reduced_to: 2
  - symbol: Li # 3
    coordinates: [  0.486785463041017,  0.895763374057234,  0.578307105775629 ]
    mass: 6.940000
    reduced_to: 3
  - symbol: Li # 4
    coordinates: [  0.153429289013075,  0.229108588889550,  0.047910233949053 ]
    mass: 6.940000
    reduced_to: 4
  - symbol: Li # 5
    coordinates: [  0.153136647636764,  0.228907569427547,  0.827257247725868 ]
    mass: 6.940000
    reduced_to: 5
  - symbol: Sn # 6
    coordinates: [  0.486724173684849,  0.895747631075046,  0.994061149104945 ]
    mass: 118.710000
    reduced_to: 6
  - symbol: Sn # 7
    coordinates: [  0.153375577105490,  0.229036572223724,  0.458002762792037 ]
    mass: 118.710000
    reduced_to: 7
  - symbol: Sn # 8
    coordinates: [  0.153294700699256,  0.228389377785817,  0.244384787472264 ]
    mass: 118.710000
    reduced_to: 8
  - symbol: Sn # 9
    coordinates: [  0.486430197417432,  0.895525222276182,  0.783558592155398 ]
    mass: 118.710000
    reduced_to: 9
  - symbol: Sn # 10
    coordinates: [  0.820107341640823,  0.562356971666260,  0.522122913551120 ]
    mass: 118.710000
    reduced_to: 10
  - symbol: Sn # 11
    coordinates: [  0.820043862523424,  0.561756535684280,  0.308526530320060 ]
    mass: 118.710000
    reduced_to: 11
  - symbol: Sn # 12
    coordinates: [  0.819975251069915,  0.562402030058736,  0.918264468099600 ]
    mass: 118.710000
    reduced_to: 12

supercell:
  lattice:
  - [    14.996328327943182,     0.000000000000000,     0.000000000000000 ] # a
  - [    -7.502909428316986,    12.982707632507569,     0.000000000000000 ] # b
  - [     0.003055005756853,    -0.005742308303404,    14.415799392161960 ] # c
  points:
  - symbol: Li # 1
    coordinates: [  0.162210641948747,  0.298332228978859,  0.193206334692450 ]
    mass: 6.940000
    reduced_to: 1
  - symbol: Li # 2
    coordinates: [  0.495543975282080,  0.298332228978859,  0.193206334692450 ]
    mass: 6.940000
    reduced_to: 1
  - symbol: Li # 3
    coordinates: [  0.828877308615414,  0.298332228978859,  0.193206334692450 ]
    mass: 6.940000
    reduced_to: 1
  - symbol: Li # 4
    coordinates: [  0.162210641948747,  0.631665562312192,  0.193206334692450 ]
    mass: 6.940000
    reduced_to: 1
  - symbol: Li # 5
    coordinates: [  0.495543975282080,  0.631665562312192,  0.193206334692450 ]
    mass: 6.940000
    reduced_to: 1
  - symbol: Li # 6
    coordinates: [  0.828877308615414,  0.631665562312192,  0.193206334692450 ]
    mass: 6.940000
    reduced_to: 1
  - symbol: Li # 7
    coordinates: [  0.162210641948747,  0.964998895645525,  0.193206334692450 ]
    mass: 6.940000
    reduced_to: 1
  - symbol: Li # 8
    coordinates: [  0.495543975282080,  0.964998895645525,  0.193206334692450 ]
    mass: 6.940000
    reduced_to: 1
  - symbol: Li # 9
    coordinates: [  0.828877308615414,  0.964998895645525,  0.193206334692450 ]
    mass: 6.940000
    reduced_to: 1
  - symbol: Li # 10
    coordinates: [  0.273252443077996,  0.187391159842492,  0.717738967577150 ]
    mass: 6.940000
    reduced_to: 10
  - symbol: Li # 11
    coordinates: [  0.606585776411329,  0.187391159842492,  0.717738967577150 ]
    mass: 6.940000
    reduced_to: 10
  - symbol: Li # 12
    coordinates: [  0.939919109744663,  0.187391159842492,  0.717738967577150 ]
    mass: 6.940000
    reduced_to: 10
  - symbol: Li # 13
    coordinates: [  0.273252443077996,  0.520724493175825,  0.717738967577150 ]
    mass: 6.940000
    reduced_to: 10
  - symbol: Li # 14
    coordinates: [  0.606585776411329,  0.520724493175825,  0.717738967577150 ]
    mass: 6.940000
    reduced_to: 10
  - symbol: Li # 15
    coordinates: [  0.939919109744663,  0.520724493175825,  0.717738967577150 ]
    mass: 6.940000
    reduced_to: 10
  - symbol: Li # 16
    coordinates: [  0.273252443077996,  0.854057826509159,  0.717738967577150 ]
    mass: 6.940000
    reduced_to: 10
  - symbol: Li # 17
    coordinates: [  0.606585776411329,  0.854057826509159,  0.717738967577150 ]
    mass: 6.940000
    reduced_to: 10
  - symbol: Li # 18
    coordinates: [  0.939919109744663,  0.854057826509159,  0.717738967577150 ]
    mass: 6.940000
    reduced_to: 10
  - symbol: Li # 19
    coordinates: [  0.162261821013672,  0.298587791352411,  0.578307105775629 ]
    mass: 6.940000
    reduced_to: 19
  - symbol: Li # 20
    coordinates: [  0.495595154347006,  0.298587791352411,  0.578307105775629 ]
    mass: 6.940000
    reduced_to: 19
  - symbol: Li # 21
    coordinates: [  0.828928487680339,  0.298587791352411,  0.578307105775629 ]
    mass: 6.940000
    reduced_to: 19
  - symbol: Li # 22
    coordinates: [  0.162261821013672,  0.631921124685745,  0.578307105775629 ]
    mass: 6.940000
    reduced_to: 19
  - symbol: Li # 23
    coordinates: [  0.495595154347006,  0.631921124685745,  0.578307105775629 ]
    mass: 6.940000
    reduced_to: 19
  - symbol: Li # 24
    coordinates: [  0.828928487680339,  0.631921124685745,  0.578307105775629 ]
    mass: 6.940000
    reduced_to: 19
  - symbol: Li # 25
    coordinates: [  0.162261821013672,  0.965254458019078,  0.578307105775629 ]
    mass: 6.940000
    reduced_to: 19
  - symbol: Li # 26
    coordinates: [  0.495595154347006,  0.965254458019078,  0.578307105775629 ]
    mass: 6.940000
    reduced_to: 19
  - symbol: Li # 27
    coordinates: [  0.828928487680339,  0.965254458019078,  0.578307105775629 ]
    mass: 6.940000
    reduced_to: 19
  - symbol: Li # 28
    coordinates: [  0.051143096337692,  0.076369529629850,  0.047910233949053 ]
    mass: 6.940000
    reduced_to: 28
  - symbol: Li # 29
    coordinates: [  0.384476429671025,  0.076369529629850,  0.047910233949053 ]
    mass: 6.940000
    reduced_to: 28
  - symbol: Li # 30
    coordinates: [  0.717809763004358,  0.076369529629850,  0.047910233949053 ]
    mass: 6.940000
    reduced_to: 28
  - symbol: Li # 31
    coordinates: [  0.051143096337692,  0.409702862963183,  0.047910233949053 ]
    mass: 6.940000
    reduced_to: 28
  - symbol: Li # 32
    coordinates: [  0.384476429671025,  0.409702862963183,  0.047910233949053 ]
    mass: 6.940000
    reduced_to: 28
  - symbol: Li # 33
    coordinates: [  0.717809763004358,  0.409702862963183,  0.047910233949053 ]
    mass: 6.940000
    reduced_to: 28
  - symbol: Li # 34
    coordinates: [  0.051143096337692,  0.743036196296517,  0.047910233949053 ]
    mass: 6.940000
    reduced_to: 28
  - symbol: Li # 35
    coordinates: [  0.384476429671025,  0.743036196296517,  0.047910233949053 ]
    mass: 6.940000
    reduced_to: 28
  - symbol: Li # 36
    coordinates: [  0.717809763004358,  0.743036196296517,  0.047910233949053 ]
    mass: 6.940000
    reduced_to: 28
  - symbol: Li # 37
    coordinates: [  0.051045549212255,  0.076302523142515,  0.827257247725868 ]
    mass: 6.940000
    reduced_to: 37
  - symbol: Li # 38
    coordinates: [  0.384378882545588,  0.076302523142515,  0.827257247725868 ]
    mass: 6.940000
    reduced_to: 37
  - symbol: Li # 39
    coordinates: [  0.717712215878922,  0.076302523142515,  0.827257247725868 ]
    mass: 6.940000
    reduced_to: 37
  - symbol: Li # 40
    coordinates: [  0.051045549212255,  0.409635856475849,  0.827257247725868 ]
    mass: 6.940000
    reduced_to: 37
  - symbol: Li # 41
    coordinates: [  0.384378882545588,  0.409635856475849,  0.827257247725868 ]
    mass: 6.940000
    reduced_to: 37
  - symbol: Li # 42
    coordinates: [  0.717712215878922,  0.409635856475849,  0.827257247725868 ]
    mass: 6.940000
    reduced_to: 37
  - symbol: Li # 43
    coordinates: [  0.051045549212255,  0.742969189809182,  0.827257247725868 ]
    mass: 6.940000
    reduced_to: 37
  - symbol: Li # 44
    coordinates: [  0.384378882545588,  0.742969189809182,  0.827257247725868 ]
    mass: 6.940000
    reduced_to: 37
  - symbol: Li # 45
    coordinates: [  0.717712215878922,  0.742969189809182,  0.827257247725868 ]
    mass: 6.940000
    reduced_to: 37
  - symbol: Sn # 46
    coordinates: [  0.162241391228283,  0.298582543691682,  0.994061149104945 ]
    mass: 118.710000
    reduced_to: 46
  - symbol: Sn # 47
    coordinates: [  0.495574724561616,  0.298582543691682,  0.994061149104945 ]
    mass: 118.710000
    reduced_to: 46
  - symbol: Sn # 48
    coordinates: [  0.828908057894950,  0.298582543691682,  0.994061149104945 ]
    mass: 118.710000
    reduced_to: 46
  - symbol: Sn # 49
    coordinates: [  0.162241391228283,  0.631915877025015,  0.994061149104945 ]
    mass: 118.710000
    reduced_to: 46
  - symbol: Sn # 50
    coordinates: [  0.495574724561616,  0.631915877025015,  0.994061149104945 ]
    mass: 118.710000
    reduced_to: 46
  - symbol: Sn # 51
    coordinates: [  0.828908057894950,  0.631915877025015,  0.994061149104945 ]
    mass: 118.710000
    reduced_to: 46
  - symbol: Sn # 52
    coordinates: [  0.162241391228283,  0.965249210358349,  0.994061149104945 ]
    mass: 118.710000
    reduced_to: 46
  - symbol: Sn # 53
    coordinates: [  0.495574724561616,  0.965249210358349,  0.994061149104945 ]
    mass: 118.710000
    reduced_to: 46
  - symbol: Sn # 54
    coordinates: [  0.828908057894950,  0.965249210358349,  0.994061149104945 ]
    mass: 118.710000
    reduced_to: 46
  - symbol: Sn # 55
    coordinates: [  0.051125192368497,  0.076345524074575,  0.458002762792037 ]
    mass: 118.710000
    reduced_to: 55
  - symbol: Sn # 56
    coordinates: [  0.384458525701830,  0.076345524074575,  0.458002762792037 ]
    mass: 118.710000
    reduced_to: 55
  - symbol: Sn # 57
    coordinates: [  0.717791859035163,  0.076345524074575,  0.458002762792037 ]
    mass: 118.710000
    reduced_to: 55
  - symbol: Sn # 58
    coordinates: [  0.051125192368497,  0.409678857407908,  0.458002762792037 ]
    mass: 118.710000
    reduced_to: 55
  - symbol: Sn # 59
    coordinates: [  0.384458525701830,  0.409678857407908,  0.458002762792037 ]
    mass: 118.710000
    reduced_to: 55
  - symbol: Sn # 60
    coordinates: [  0.717791859035163,  0.409678857407908,  0.458002762792037 ]
    mass: 118.710000
    reduced_to: 55
  - symbol: Sn # 61
    coordinates: [  0.051125192368497,  0.743012190741241,  0.458002762792037 ]
    mass: 118.710000
    reduced_to: 55
  - symbol: Sn # 62
    coordinates: [  0.384458525701830,  0.743012190741241,  0.458002762792037 ]
    mass: 118.710000
    reduced_to: 55
  - symbol: Sn # 63
    coordinates: [  0.717791859035163,  0.743012190741241,  0.458002762792037 ]
    mass: 118.710000
    reduced_to: 55
  - symbol: Sn # 64
    coordinates: [  0.051098233566419,  0.076129792595272,  0.244384787472264 ]
    mass: 118.710000
    reduced_to: 64
  - symbol: Sn # 65
    coordinates: [  0.384431566899752,  0.076129792595272,  0.244384787472264 ]
    mass: 118.710000
    reduced_to: 64
  - symbol: Sn # 66
    coordinates: [  0.717764900233085,  0.076129792595272,  0.244384787472264 ]
    mass: 118.710000
    reduced_to: 64
  - symbol: Sn # 67
    coordinates: [  0.051098233566419,  0.409463125928606,  0.244384787472264 ]
    mass: 118.710000
    reduced_to: 64
  - symbol: Sn # 68
    coordinates: [  0.384431566899752,  0.409463125928606,  0.244384787472264 ]
    mass: 118.710000
    reduced_to: 64
  - symbol: Sn # 69
    coordinates: [  0.717764900233085,  0.409463125928606,  0.244384787472264 ]
    mass: 118.710000
    reduced_to: 64
  - symbol: Sn # 70
    coordinates: [  0.051098233566419,  0.742796459261939,  0.244384787472264 ]
    mass: 118.710000
    reduced_to: 64
  - symbol: Sn # 71
    coordinates: [  0.384431566899752,  0.742796459261939,  0.244384787472264 ]
    mass: 118.710000
    reduced_to: 64
  - symbol: Sn # 72
    coordinates: [  0.717764900233085,  0.742796459261939,  0.244384787472264 ]
    mass: 118.710000
    reduced_to: 64
  - symbol: Sn # 73
    coordinates: [  0.162143399139144,  0.298508407425394,  0.783558592155398 ]
    mass: 118.710000
    reduced_to: 73
  - symbol: Sn # 74
    coordinates: [  0.495476732472477,  0.298508407425394,  0.783558592155398 ]
    mass: 118.710000
    reduced_to: 73
  - symbol: Sn # 75
    coordinates: [  0.828810065805811,  0.298508407425394,  0.783558592155398 ]
    mass: 118.710000
    reduced_to: 73
  - symbol: Sn # 76
    coordinates: [  0.162143399139144,  0.631841740758727,  0.783558592155398 ]
    mass: 118.710000
    reduced_to: 73
  - symbol: Sn # 77
    coordinates: [  0.495476732472477,  0.631841740758727,  0.783558592155398 ]
    mass: 118.710000
    reduced_to: 73
  - symbol: Sn # 78
    coordinates: [  0.828810065805811,  0.631841740758727,  0.783558592155398 ]
    mass: 118.710000
    reduced_to: 73
  - symbol: Sn # 79
    coordinates: [  0.162143399139144,  0.965175074092061,  0.783558592155398 ]
    mass: 118.710000
    reduced_to: 73
  - symbol: Sn # 80
    coordinates: [  0.495476732472477,  0.965175074092061,  0.783558592155398 ]
    mass: 118.710000
    reduced_to: 73
  - symbol: Sn # 81
    coordinates: [  0.828810065805811,  0.965175074092061,  0.783558592155398 ]
    mass: 118.710000
    reduced_to: 73
  - symbol: Sn # 82
    coordinates: [  0.273369113880274,  0.187452323888753,  0.522122913551120 ]
    mass: 118.710000
    reduced_to: 82
  - symbol: Sn # 83
    coordinates: [  0.606702447213608,  0.187452323888753,  0.522122913551120 ]
    mass: 118.710000
    reduced_to: 82
  - symbol: Sn # 84
    coordinates: [  0.940035780546941,  0.187452323888753,  0.522122913551120 ]
    mass: 118.710000
    reduced_to: 82
  - symbol: Sn # 85
    coordinates: [  0.273369113880274,  0.520785657222087,  0.522122913551120 ]
    mass: 118.710000
    reduced_to: 82
  - symbol: Sn # 86
    coordinates: [  0.606702447213608,  0.520785657222087,  0.522122913551120 ]
    mass: 118.710000
    reduced_to: 82
  - symbol: Sn # 87
    coordinates: [  0.940035780546941,  0.520785657222087,  0.522122913551120 ]
    mass: 118.710000
    reduced_to: 82
  - symbol: Sn # 88
    coordinates: [  0.273369113880274,  0.854118990555420,  0.522122913551120 ]
    mass: 118.710000
    reduced_to: 82
  - symbol: Sn # 89
    coordinates: [  0.606702447213608,  0.854118990555420,  0.522122913551120 ]
    mass: 118.710000
    reduced_to: 82
  - symbol: Sn # 90
    coordinates: [  0.940035780546941,  0.854118990555420,  0.522122913551120 ]
    mass: 118.710000
    reduced_to: 82
  - symbol: Sn # 91
    coordinates: [  0.273347954174475,  0.187252178561427,  0.308526530320060 ]
    mass: 118.710000
    reduced_to: 91
  - symbol: Sn # 92
    coordinates: [  0.606681287507808,  0.187252178561427,  0.308526530320060 ]
    mass: 118.710000
    reduced_to: 91
  - symbol: Sn # 93
    coordinates: [  0.940014620841141,  0.187252178561427,  0.308526530320060 ]
    mass: 118.710000
    reduced_to: 91
  - symbol: Sn # 94
    coordinates: [  0.273347954174475,  0.520585511894760,  0.308526530320060 ]
    mass: 118.710000
    reduced_to: 91
  - symbol: Sn # 95
    coordinates: [  0.606681287507808,  0.520585511894760,  0.308526530320060 ]
    mass: 118.710000
    reduced_to: 91
  - symbol: Sn # 96
    coordinates: [  0.940014620841141,  0.520585511894760,  0.308526530320060 ]
    mass: 118.710000
    reduced_to: 91
  - symbol: Sn # 97
    coordinates: [  0.273347954174475,  0.853918845228093,  0.308526530320060 ]
    mass: 118.710000
    reduced_to: 91
  - symbol: Sn # 98
    coordinates: [  0.606681287507808,  0.853918845228093,  0.308526530320060 ]
    mass: 118.710000
    reduced_to: 91
  - symbol: Sn # 99
    coordinates: [  0.940014620841141,  0.853918845228093,  0.308526530320060 ]
    mass: 118.710000
    reduced_to: 91
  - symbol: Sn # 100
    coordinates: [  0.273325083689972,  0.187467343352912,  0.918264468099600 ]
    mass: 118.710000
    reduced_to: 100
  - symbol: Sn # 101
    coordinates: [  0.606658417023305,  0.187467343352912,  0.918264468099600 ]
    mass: 118.710000
    reduced_to: 100
  - symbol: Sn # 102
    coordinates: [  0.939991750356638,  0.187467343352912,  0.918264468099600 ]
    mass: 118.710000
    reduced_to: 100
  - symbol: Sn # 103
    coordinates: [  0.273325083689972,  0.520800676686245,  0.918264468099600 ]
    mass: 118.710000
    reduced_to: 100
  - symbol: Sn # 104
    coordinates: [  0.606658417023305,  0.520800676686245,  0.918264468099600 ]
    mass: 118.710000
    reduced_to: 100
  - symbol: Sn # 105
    coordinates: [  0.939991750356638,  0.520800676686245,  0.918264468099600 ]
    mass: 118.710000
    reduced_to: 100
  - symbol: Sn # 106
    coordinates: [  0.273325083689972,  0.854134010019579,  0.918264468099600 ]
    mass: 118.710000
    reduced_to: 100
  - symbol: Sn # 107
    coordinates: [  0.606658417023305,  0.854134010019579,  0.918264468099600 ]
    mass: 118.710000
    reduced_to: 100
  - symbol: Sn # 108
    coordinates: [  0.939991750356638,  0.854134010019579,  0.918264468099600 ]
    mass: 118.710000
    reduced_to: 100

displacements:
- atom:    1
  displacement:
    [   0.0100000000000000,  0.0000000000000000,  0.0000000000000000 ]
  forces:
  - [  -0.0133100654929876,  0.0002844781847671, -0.0108151584863663 ]
  - [  -0.0002705829101615,  0.0002697064774111, -0.0106112360954285 ]
  - [  -0.0001931084989337,  0.0006215077592060, -0.0106989592313766 ]
  - [  -0.0005356197943911,  0.0000802511931397, -0.0105952695012093 ]
  - [  -0.0005607075290754,  0.0008091126801446, -0.0107155740261078 ]
  - [  -0.0002719447074924,  0.0004507426638156, -0.0106530264019966 ]
  - [  -0.0005533046205528,  0.0004509167047217, -0.0105498954653740 ]
  - [  -0.0002714310539886,  0.0004520936054178, -0.0106529593467712 ]
  - [  -0.0005425441777334,  0.0004737302078865, -0.0107567235827446 ]
  - [  -0.0000392101064790, -0.0000649710709695,  0.0058182608336210 ]
  - [  -0.0000396347459173, -0.0000627939298283,  0.0057654045522213 ]
  - [  -0.0000382052348868, -0.0000605231034569,  0.0057125054299831 ]
  - [  -0.0000436238733528, -0.0000636805707472,  0.0057671405375004 ]
  - [  -0.0000369394765585, -0.0000602167929173,  0.0057787299156189 ]
  - [  -0.0000377051546820, -0.0000660779987811,  0.0057549327611923 ]
  - [  -0.0000384969025617, -0.0000606629182585,  0.0057669505476952 ]
  - [  -0.0000383328733733, -0.0000622365769232,  0.0057677458971739 ]
  - [  -0.0000421075237682, -0.0000617762852926,  0.0057684294879436 ]
  - [   0.0001326000347035, -0.0002660112804733,  0.0241609178483486 ]
  - [   0.0002786657714751, -0.0002692907582968,  0.0241902917623520 ]
  - [   0.0002787197299767, -0.0002629976370372,  0.0241276249289513 ]
  - [   0.0002302613720531, -0.0002914322249126,  0.0241500511765480 ]
  - [   0.0002302033390151, -0.0002405951527180,  0.0241688676178455 ]
  - [   0.0002309448609594, -0.0002654222189449,  0.0241601467132568 ]
  - [   0.0002345414686715, -0.0002941371640190,  0.0241811983287334 ]
  - [   0.0002200448361691, -0.0002655719581526,  0.0241597630083561 ]
  - [   0.0002350404975004, -0.0002366494009038,  0.0241373367607594 ]
  - [   0.0002432522014715, -0.0004139272496104,  0.0056310296058655 ]
  - [  -0.0000133546564030, -0.0004179207608104,  0.0055579841136932 ]
  - [  -0.0000134552392410, -0.0004062764346600,  0.0057009756565094 ]
  - [  -0.0001539051881991, -0.0001832761336118,  0.0050919800996780 ]
  - [  -0.0001358673034701, -0.0006337488302961,  0.0061561316251755 ]
  - [   0.0000045420601964, -0.0004134424962103,  0.0056280046701431 ]
  - [  -0.0000161466305144, -0.0004242812283337,  0.0056480765342712 ]
  - [  -0.0000251254241448, -0.0004119888471905,  0.0056277811527252 ]
  - [  -0.0000162944197655, -0.0004009689437225,  0.0056081116199493 ]
  - [   0.0002970384375658, -0.0001324798795395, -0.0428928732872009 ]
  - [   0.0002889130846597, -0.0001292734086746, -0.0428931266069412 ]
  - [   0.0002894088684116, -0.0001348257064819, -0.0428901910781860 ]
  - [   0.0002634393749759, -0.0001132415563916, -0.0428885221481323 ]
  - [   0.0002639833837748, -0.0001499187201262, -0.0428932309150696 ]
  - [   0.0002902188571170, -0.0001323261531070, -0.0428914725780487 ]
  - [   0.0002889489987865, -0.0001311451196671, -0.0428918153047562 ]
  - [   0.0002929727488663, -0.0001318138092756, -0.0428907424211502 ]
  - [   0.0002892911434174, -0.0001309132203460, -0.0428911969065666 ]
  - [  -0.0005173970712349,  0.0000208707497222, -0.0031825974583626 ]
  - [  -0.0002797078341246,  0.0000011470656318, -0.0032583028078079 ]
  - [  -0.0002808358985931,  0.0000340770347975, -0.0031812116503716 ]
  - [  -0.0002121902070940,  0.0000467271893285, -0.0031748786568642 ]
  - [  -0.0002133935195161, -0.0000151329440996, -0.0032645389437675 ]
  - [  -0.0002181876043323,  0.0000180853530765, -0.0032210592180490 ]
  - [  -0.0002065250882879,  0.0000657589844195, -0.0032144691795111 ]
  - [  -0.0002420553355478,  0.0000139031690196, -0.0032193083316088 ]
  - [  -0.0002090765046887, -0.0000379411685572, -0.0032275859266520 ]
  - [   0.0005352912703529, -0.0010274102678522,  0.0255920216441154 ]
  - [   0.0009779259562492, -0.0011771894060075,  0.0258004516363144 ]
  - [   0.0009714118205011, -0.0008821005467325,  0.0253927856683731 ]
  - [   0.0008476208895445, -0.0012071300297976,  0.0257580578327179 ]
  - [   0.0008720532059669, -0.0008354261517525,  0.0255117043852806 ]
  - [   0.0007667872123420, -0.0010308763012290,  0.0255969315767288 ]
  - [   0.0007048983825371, -0.0010598746594042,  0.0255809128284454 ]
  - [   0.0007173874182627, -0.0010268921032548,  0.0255930721759796 ]
  - [   0.0007045384263620, -0.0009914212860167,  0.0256077498197556 ]
  - [   0.0002605672343634,  0.0001249859924428, -0.0258696526288986 ]
  - [   0.0002358297933824,  0.0004552477039397, -0.0261632800102234 ]
  - [   0.0002427809813526, -0.0002264830109198, -0.0255922675132751 ]
  - [   0.0055322260595858, -0.0029047925490886, -0.0264565050601959 ]
  - [   0.0057885660789907,  0.0033273389562964, -0.0252395868301392 ]
  - [   0.0010723229497671,  0.0001106513664126, -0.0258775949478149 ]
  - [   0.0007146963034756, -0.0000973568021436, -0.0258042812347412 ]
  - [   0.0008297449094243,  0.0001070764046744, -0.0258752405643463 ]
  - [   0.0007129877922125,  0.0003150880511384, -0.0259478837251663 ]
  - [   0.0004450247797649,  0.0005603529862128,  0.0301461964845657 ]
  - [   0.0002896162332036,  0.0005444502457976,  0.0301315933465958 ]
  - [   0.0002906933950726,  0.0005762283108197,  0.0301641523838043 ]
  - [   0.0003008866915479,  0.0005519958212972,  0.0301579236984253 ]
  - [   0.0003012582310475,  0.0005672834813595,  0.0301374197006226 ]
  - [   0.0003043687611353,  0.0005605444312096,  0.0301477015018463 ]
  - [   0.0003043463511858,  0.0005762939108536,  0.0301418453454971 ]
  - [   0.0002995577233378,  0.0005578135023825,  0.0301470756530762 ]
  - [   0.0003048329672311,  0.0005358413909562,  0.0301540642976761 ]
  - [  -0.0009137548040599,  0.0006113115814514,  0.0391748845577240 ]
  - [  -0.0008461392135359,  0.0004768784274347,  0.0394468307495117 ]
  - [  -0.0009130050893873,  0.0003518081794027,  0.0397108197212219 ]
  - [  -0.0006886054761708,  0.0004718101117760,  0.0394440293312073 ]
  - [  -0.0008318399195559,  0.0004585766000673,  0.0395544916391373 ]
  - [  -0.0008241977775469,  0.0004878462350462,  0.0393364280462265 ]
  - [  -0.0008041680557653,  0.0004992184694856,  0.0394439995288849 ]
  - [  -0.0008040716638789,  0.0004519729118329,  0.0394517183303833 ]
  - [  -0.0008011034806259,  0.0004756341804750,  0.0394479334354401 ]
  - [   0.0006230137660168, -0.0009349173633382, -0.0343561545014381 ]
  - [  -0.0006393167423084,  0.0005416370695457, -0.0356239750981331 ]
  - [   0.0006073802360334,  0.0019646366126835, -0.0368673726916313 ]
  - [  -0.0018967543728650,  0.0005397880449891, -0.0356275886297226 ]
  - [  -0.0001527191489004,  0.0008320666383952, -0.0350901335477829 ]
  - [  -0.0001174802309833,  0.0002350652357563, -0.0361776575446129 ]
  - [  -0.0008183398749679,  0.0004428038955666, -0.0355997234582901 ]
  - [  -0.0008177650161088,  0.0006495368434116, -0.0356504693627357 ]
  - [  -0.0006518143927678,  0.0005533759831451, -0.0356276780366898 ]
  - [   0.0002209838276030, -0.0003384161100257, -0.0126538723707199 ]
  - [   0.0000232856255025, -0.0002547062467784, -0.0124768018722534 ]
  - [   0.0002200277958764, -0.0001731287629809, -0.0123030915856361 ]
  - [   0.0000767789460951, -0.0002580584841780, -0.0124746859073639 ]
  - [   0.0000114053837024, -0.0002695427392609, -0.0124498829245567 ]
  - [   0.0000125582300825, -0.0002421184617560, -0.0125031769275665 ]
  - [   0.0000473621039419, -0.0002432821056573, -0.0124835819005966 ]
  - [   0.0000489422964165, -0.0002695154689718, -0.0124729499220848 ]
  - [   0.0000351548369508, -0.0002578612766229, -0.0124782770872116 ]
- atom:    1
  displacement:
    [  -0.0100000000000000,  0.0000000000000000,  0.0000000000000000 ]
  forces:
  - [   0.0125218229368329,  0.0002996968105435, -0.0107876360416412 ]
  - [  -0.0005956938839518,  0.0006214547902346, -0.0106992423534393 ]
  - [  -0.0005180014413781,  0.0002696017909329, -0.0106115415692329 ]
  - [  -0.0002327689435333,  0.0008178385323845, -0.0107155665755272 ]
  - [  -0.0002488406898919,  0.0000840282882564, -0.0105956792831421 ]
  - [  -0.0005176792619750,  0.0004507997655310, -0.0106523931026459 ]
  - [  -0.0002505081356503,  0.0004788005026057, -0.0107558071613312 ]
  - [  -0.0005170794320293,  0.0004519137146417, -0.0106528997421265 ]
  - [  -0.0002306241949555,  0.0004621229018085, -0.0105502530932426 ]
  - [  -0.0000398350966861, -0.0000602567597525,  0.0057133957743645 ]
  - [  -0.0000377925462089, -0.0000628501584288,  0.0057655628770590 ]
  - [  -0.0000392795373045, -0.0000655704498058,  0.0058182235807180 ]
  - [  -0.0000362497266906, -0.0000634552925476,  0.0057668257504702 ]
  - [  -0.0000404586025979, -0.0000651689406368,  0.0057545006275177 ]
  - [  -0.0000414108144469, -0.0000610839706496,  0.0057791844010353 ]
  - [  -0.0000410154316342, -0.0000631157745374,  0.0057674646377563 ]
  - [  -0.0000408616033383, -0.0000598522019573,  0.0057674534618855 ]
  - [  -0.0000372292852262, -0.0000616669130977,  0.0057685934007168 ]
  - [   0.0003271362511441, -0.0002656576398294,  0.0241601169109344 ]
  - [   0.0001815166906454, -0.0002641015453264,  0.0241276994347572 ]
  - [   0.0001814140123315, -0.0002684083883651,  0.0241905450820923 ]
  - [   0.0002309144765604, -0.0002415180642856,  0.0241688936948776 ]
  - [   0.0002310497366125, -0.0002906917652581,  0.0241501964628696 ]
  - [   0.0002294739824720, -0.0002655131393112,  0.0241602212190628 ]
  - [   0.0002250318793813, -0.0002362662780797,  0.0241373218595982 ]
  - [   0.0002396853815299, -0.0002656592114363,  0.0241596475243568 ]
  - [   0.0002252122794744, -0.0002943497383967,  0.0241814963519573 ]
  - [  -0.0002782637602650, -0.0004123346006963,  0.0056307166814804 ]
  - [  -0.0000224921986955, -0.0004072524607182,  0.0056993514299393 ]
  - [  -0.0000230845907936, -0.0004173750057817,  0.0055580586194992 ]
  - [   0.0001043197698891, -0.0006349812028930,  0.0061623156070709 ]
  - [   0.0001071273582056, -0.0001883633085527,  0.0050945281982422 ]
  - [  -0.0000419504940510, -0.0004132096655667,  0.0056283175945282 ]
  - [  -0.0000213136718230, -0.0004004309885204,  0.0056078732013702 ]