4
Lattice="3.853253895885846 -1.3740231652781704e-06 2.8984124302900465e-07 -1.3740231646585188e-06 3.853244658484882 2.0107492729461396e-07 7.599157650124612e-07 5.271851775223823e-07 7.425023877485009" Properties=species:S:1:pos:R:3:forces:R:3 structure_index=0 total_energy=-13.839882850646973 stress="-0.029416440054774284 -1.5936055206111632e-05 2.741333673839108e-06 -1.593337583472021e-05 -0.029421595856547356 -9.587473641659017e-07 2.7902383408218157e-06 -9.433675245418272e-07 0.03071827068924904" pbc="T T T"
Ga      -0.00000022       0.00000013      -0.00000006       0.00000043      -0.00000058       0.00000165
Sn       1.92662684       1.92662219       5.81390579       0.00000011       0.00000162      -0.05657890
Sn       0.00000072      -0.00000020       3.71251202       0.00000113       0.00000030      -0.00000028
Sn       1.92662633       1.92662196       1.61111856      -0.00000168      -0.00000135       0.05657751
3
Lattice="3.0461008740156545 8.083732192354347e-09 -1.580953707278918e-08 -1.5230504300071093 2.63800105765065 -5.532162216135486e-08 -3.447461679757825e-08 -1.5920182792568216e-07 6.642387005148807" Properties=species:S:1:pos:R:3:forces:R:3 structure_index=1 total_energy=-8.195704460144043 stress="0.008001153357326984 3.3120130638053524e-07 5.813359393869177e-07 3.2492431500941166e-07 0.00799126923084259 2.8120480237703305e-06 5.479275841935305e-07 2.7564112770050997e-06 -0.09052182734012604" pbc="T T T"
Li       0.00000001      -0.00000003       0.00000003       0.00000008       0.00000020      -0.00000011
Ga       1.52305042       0.87933360       4.41452760      -0.00000008       0.00000007      -0.02483329
Ga      -0.00000001       1.75866733       2.22785930       0.00000001      -0.00000028       0.02483341
4
Lattice="4.68253079851334 0.13771769998297553 -3.894404444650408 -0.681916713256146 3.913020764055053 -4.6189550179630885 -0.009526538876559902 -0.13771832910412007 6.09035407924003" Properties=species:S:1:pos:R:3:forces:R:3 structure_index=2 total_energy=-13.804997444152832 stress="-0.05814467370510101 -0.008241771720349789 -0.013002626597881317 -0.008241746574640274 0.006222660653293133 0.017555465921759605 -0.013002785854041576 0.017555521801114082 -0.03659525141119957" pbc="T T T"
Ga       2.33650201      -0.00000031       1.09797470       0.00000095       0.00000060      -0.00000189
Sn       1.04881351       1.06195430      -2.23188886      -0.00419183      -0.00424716       0.00892586
Sn       2.95180054       2.98878411      -6.28147054       0.00418989       0.00424631      -0.00892249
Sn      -0.34572147       1.88765127       0.73569959       0.00000098       0.00000024      -0.00000147
4
Lattice="3.8474500887445995 -0.4556454494928608 -2.788547559384625 -0.9639392137480377 3.522024497943671 -3.0745155202200136 0.14008831960450052 0.4556454210730266 4.749657316492448" Properties=species:S:1:pos:R:3:forces:R:3 structure_index=3 total_energy=-11.064538955688477 stress="-0.05001559108495712 0.0011708301026374102 0.026777630671858788 0.001170703093521297 -0.10887528955936432 -0.002382505452260375 0.02677741087973118 -0.002382048172876239 -0.09129702299833298" pbc="T T T"
Li       0.01293887       0.01375939      -0.02630876      -0.02092642      -0.02225368       0.04255009
Li       0.30895230       2.75542956      -0.62819490       0.00000036       0.00000080      -0.00000104
Li       1.42881653       1.51943011      -2.90522282       0.02092553       0.02225260      -0.04254736
Sn       2.71464695       0.76659494      -0.48521083       0.00000052       0.00000030      -0.00000168
4
Lattice="4.417799808107802 -1.0002828667429182e-07 2.863208492594051e-07 -1.0002828596385543e-07 4.417795296341837 -2.460599000004615e-07 2.0195090910247775e-07 -1.7355362269962912e-07 4.437150350912149" Properties=species:S:1:pos:R:3:forces:R:3 structure_index=4 total_energy=-12.174467086791992 stress="-0.08446449041366577 -3.3201426958839875e-06 8.786344096733956e-07 -3.3867643196572317e-06 -0.08448205888271332 -4.4896837607666384e-06 8.928568036026263e-07 -4.654187705455115e-06 -0.020574823021888733" pbc="T T T"
Ga       0.00000013       0.00000001       0.00000012      -0.00000038       0.00000054      -0.00000049
Ga       2.20889987      -0.00000018       2.21857533       0.00000033       0.00000036       0.00000001
Ga       2.20889981       2.20889768      -0.00000012       0.00000073      -0.00000012       0.00000047
Sn       0.00000011       2.20889752       2.21857507      -0.00000068      -0.00000079       0.00000000
4
Lattice="4.54248120505608 3.183931577536834e-08 -3.3122430002319793e-08 3.1839316505855024e-08 4.5424814031208625 -1.4867205981398795e-08 -3.070173030314393e-08 -1.3780660212218394e-08 4.350258586827595" Properties=species:S:1:pos:R:3:forces:R:3 structure_index=5 total_energy=-13.074110984802246 stress="-0.06001938879489899 5.09594656250556e-07 1.31964881688873e-07 5.74868295188935e-07 -0.060022905468940735 -1.8714283100962348e-07 1.7220624215497082e-07 -1.8416324110148707e-07 -0.08684661239385605" pbc="T T T"
Li       2.27124060       0.00000001       2.17512928       0.00000011       0.00000010      -0.00000105
Ga      -0.00000002       2.27124069       2.17512929      -0.00000074      -0.00000010      -0.00000127
Sn       0.00000001      -0.00000003      -0.00000000      -0.00000050       0.00000005       0.00000150
Sn       2.27124061       2.27124076      -0.00000003       0.00000114      -0.00000005       0.00000081
4
Lattice="5.189300800932163 -0.0069891265036725984 0.7759965262980749 4.156370658543264 3.107004382709555 0.7759966118302819 0.13848170482044866 0.04593534513395002 5.000880370661532" Properties=species:S:1:pos:R:3:forces:R:3 structure_index=6 total_energy=-12.053190231323242 stress="-0.016844749450683594 -0.0353410430252552 -0.06663922965526581 -0.03534044325351715 0.07797873020172119 -0.022103607654571533 -0.06663915514945984 -0.02210361137986183 -0.06604836881160736" pbc="T T T"
Li       2.37103832       0.78648768       1.63821837      -0.00000026      -0.00000009      -0.00000006
Ga       9.31467011       3.08973193       1.64192101      -0.02979583      -0.00988325       0.01111264
Ga       4.77307783       1.58325858       3.18650902       0.02979614       0.00988351      -0.01111287
Sn       7.11311494       2.35946297       4.91465500      -0.00000007      -0.00000018       0.00000028
6
Lattice="4.483995528019573 1.638531118790869e-07 -4.421343960541549e-07 2.046362278453949e-07 5.230135007120954 2.0089886688521912e-07 -7.231505859493329e-07 2.6310197032257854e-07 7.105234563302504" Properties=species:S:1:pos:R:3:forces:R:3 structure_index=7 total_energy=-20.08452606201172 stress="-0.0420684777200222 7.31378258933546e-06 2.901481366279768e-06 7.371559604507638e-06 -0.00967013742774725 -1.048781632562168e-05 2.8968654532945948e-06 -1.0676762940420303e-05 -0.017421338707208633" pbc="T T T"
Ga      -0.00000009       0.00000000       0.00000007       0.00000130       0.00000111      -0.00000438
Ga       2.24199748       2.61506770       3.55261721      -0.00000035       0.00000172      -0.00000067
Sn      -0.00000041       1.15337526       4.50616517       0.00000178       0.02233616      -0.00256688
Sn      -0.00000011       4.07676021       2.59906943      -0.00000217      -0.02233939       0.00257273
Sn       2.24199725       3.76844289       6.15168659       0.00000089       0.02233297       0.00257321
Sn       2.24199787       1.46169236       0.95354778      -0.00000146      -0.02233261      -0.00257401
16
Lattice="6.296523934261988 -2.5145223261209644e-07 -9.838446764847428e-09 -3.1482621848950125 5.4529500878096835 -1.4233286127172632e-07 -1.5794765916444258e-08 -2.729715958232618e-07 10.110677151790155" Properties=species:S:1:pos:R:3:forces:R:3 structure_index=8 total_energy=-48.71713638305664 stress="-0.013920663855969906 -2.0716687032518166e-08 -1.6288733206692996e-07 -1.63798418384431e-07 -0.0139154102653265 -2.0783311356353806e-06 -2.0924235855090956e-07 -2.010280695685651e-06 -0.02115505188703537" pbc="T T T"
Ga       3.14826194      -0.00000013      -0.00000001       0.00000092       0.00000075       0.00000040
Ga       3.14826195      -0.00000025       5.05533858       0.00000014       0.00000015       0.00000097
Ga      -1.57413114       2.72647509      -0.00000009      -0.00000029      -0.00000100       0.00000009
Ga       1.57413093       2.72647492      -0.00000009      -0.00000003      -0.00000008       0.00000074
Ga       1.57413090       2.72647477       5.05533849      -0.00000025       0.00000017       0.00000035
Ga      -1.57413114       2.72647492       5.05533851       0.00000051      -0.00000111       0.00000093
Ga       3.14826182       3.55195937       2.52766921       0.00000012       0.04414139      -0.00000020
Ga      -0.00000010       1.90099021       7.58300779      -0.00000230      -0.04414233      -0.00000094
Ga       1.64630588       0.95049504       2.52766928      -0.03822879      -0.02207064      -0.00000008
Ga       4.65021797       0.95049492       2.52766928       0.03822976      -0.02207089      -0.00000033
Ga      -1.50195625       4.50245460       7.58300774      -0.03822912       0.02206957      -0.00000094
Ga       1.50195588       4.50245449       7.58300772       0.03822951       0.02207245      -0.00000032
Sn       0.00000003      -0.00000003       0.00000002      -0.00000050       0.00000070       0.00000088
Sn       0.00000001      -0.00000015       5.05533855      -0.00000133       0.00000085       0.00000099
Sn      -0.00000016       3.63529994       2.52766917      -0.00000108      -0.00000018      -0.00000125
Sn       3.14826189       1.81764966       7.58300784       0.00000271       0.00000020      -0.00000129
6
Lattice="5.431156031062026 -1.0440025927466002e-06 -2.698045289708061e-07 -1.2331809920347897e-06 3.2293944179403207 -1.4651315702093344e-06 -4.205195200420514e-07 -1.9332512761145087e-06 7.916812540111455" Properties=species:S:1:pos:R:3:forces:R:3 structure_index=9 total_energy=-18.60368537902832 stress="0.0460360012948513 -2.960986876132665e-06 4.560067736747442e-06 -2.9572986477433005e-06 -0.012180287390947342 1.100390250030614e-06 4.625077508535469e-06 9.714382258607657e-07 0.003606255864724517" pbc="T T T"
Ga      -0.00000008       0.69110012       5.14865463      -0.00000025      -0.04978161      -0.00832999
Ga      -0.00000150       2.53829215       2.76815664       0.00000137       0.04978209       0.00832579
Ga       2.71557664       2.30579596       6.72656343      -0.00000242      -0.04977880       0.00832745
Ga       2.71557757       0.92359556       1.19024702       0.00000063       0.04977876      -0.00832297
Sn      -0.00000011       0.00000009       0.00000013       0.00000157       0.00000048       0.00000446
Sn       2.71557740       1.61469578       3.95840544      -0.00000089      -0.00000093      -0.00000472
6
Lattice="5.355106814490448 0.14478990217472534 -2.1027469827724614 -2.442163110952506 4.768014648121331 -2.1027482754096933 -0.08584870206550359 -0.14478910381177268 5.752508945925163" Properties=species:S:1:pos:R:3:forces:R:3 structure_index=10 total_energy=-18.360363006591797 stress="0.025297408923506737 -0.03089917078614235 0.026440564543008804 -0.030898958444595337 -0.008520646952092648 0.04460592195391655 0.026440506801009178 0.044606249779462814 0.005438587162643671" pbc="T T T"
Ga      -0.19946843       4.10700168      -1.32152865      -0.01158956      -0.01954905      -0.03086039
Ga       3.02656342       0.66101374       2.86854230       0.01158990       0.01955139       0.03085837
Ga      -0.14917812       1.65059944       1.82488051       0.03296674      -0.01955296       0.00000355
Ga       2.97627307       3.11741602      -0.27786681      -0.03296938       0.01955122      -0.00000154
Sn       0.72823598       1.22820115      -1.05137384       0.00000146      -0.00000049       0.00000156
Sn       2.18470779       3.68460341      -3.15412140       0.00000085      -0.00000009      -0.00000157
8
Lattice="6.213639719777021 -0.20361972814341578 -1.318368568241356e-07 -2.6411862562066437 5.628046782672447 2.6333563295027034e-07 -1.0381818170146562e-07 1.8108902189123897e-07 5.003463121938304" Properties=species:S:1:pos:R:3:forces:R:3 structure_index=11 total_energy=-24.373092651367188 stress="0.004691629204899073 -0.005391297396272421 -1.3372543890000088e-06 -0.0053914496675133705 4.8480669647688046e-05 1.0323881269869162e-06 -1.2528646493592532e-06 1.0388610007794341e-06 -0.011802442371845245" pbc="T T T"
Ga      -1.09738526       4.61132068       3.75259762      -0.02058251       0.01355729      -0.00000053
Ga       4.66983850       0.81310656       1.25086572       0.02058315      -0.01355661       0.00000049
Ga       1.95019352       4.78620533       3.75259745       0.00193581      -0.01095889      -0.00000058
Ga       1.62225984       0.63822181       1.25086565      -0.00193570       0.01095909       0.00000154
Ga       3.62684239       3.68198738       1.25086581      -0.01083432      -0.00254860       0.00000061
Ga      -0.05438906       1.74243975       3.75259751       0.01083497       0.00254928      -0.00000139
Sn       2.97864797       1.92690165       3.75259740       0.03431647      -0.02260303      -0.00000202
Sn       0.59380554       3.49752579       1.25086586      -0.03431784       0.02260148       0.00000187
4
Lattice="3.3784454075351324 -8.594164855609247e-08 4.481378653608281e-08 -1.1748358309993312e-07 4.392501382087505 4.563466015564754e-08 8.452265569852831e-08 6.296262221492594e-08 6.7882533276961805" Properties=species:S:1:pos:R:3:forces:R:3 structure_index=12 total_energy=-13.788570404052734 stress="0.01437255460768938 -2.2047420316084754e-06 -4.57278383692028e-06 -2.2468657334684394e-06 0.0769207701086998 4.555714440357406e-06 -4.483528300625039e-06 4.562926278595114e-06 0.006292211357504129" pbc="T T T"
Li      -0.00000003      -0.00000006       0.00000003       0.00000059      -0.00000031       0.00000054
Sn       1.68922266       2.19625063       5.24151140       0.00000006       0.00000002       0.02809584
Sn       0.00000016       0.00000004       3.39412651      -0.00000018      -0.00000186      -0.00000009
Sn       1.68922262       2.19625078       1.54674213      -0.00000047       0.00000216      -0.02809630
9
Lattice="7.16476318823457 0.20623122342711372 -0.6641884251523893 -5.9436915702915964 4.006104055313646 -0.6641872816691687 -0.059782347127545626 -0.20622939238871676 7.195234660009822" Properties=species:S:1:pos:R:3:forces:R:3 structure_index=13 total_energy=-29.044301986694336 stress="0.03512502461671829 -0.003240561578422785 0.001024932716973126 -0.0032410374842584133 0.024855244904756546 0.0035299493465572596 0.001025019446387887 0.00352996657602489 0.034944597631692886" pbc="T T T"
Ga       0.00000004      -0.00000006      -0.00000011      -0.00000011      -0.00000058       0.00000129
Ga       0.37334566       1.28793305       4.42727527      -0.00029749      -0.00102559      -0.00351659
Ga       0.78794364       2.71817285       1.43958375       0.00029620       0.00102590       0.00351563
Ga       2.72177418       1.49416307      -0.66418800       0.00353016      -0.00102164       0.00000022
Ga      -1.50070256       2.71817238      -0.66418770      -0.00353086       0.00102310      -0.00000058
Sn       2.21874914       0.00000052       2.03952036       0.00341390      -0.00000045       0.00313890
Sn       4.88623169       0.00000130       4.49152596      -0.00341339      -0.00000004      -0.00313991
Sn      -1.87476970       1.18662791       2.03952053      -0.00288383       0.00182433       0.00313931
Sn      -4.12870428       2.61324663       4.49152681       0.00288544      -0.00182503      -0.00313830
5
Lattice="4.2603637528893445 0.012701579700270704 -2.9118346709474143 -1.1798612724830138 4.093750053343896 -2.9118347351447698 -0.009528819152986147 -0.012702434829020594 5.160366621909778" Properties=species:S:1:pos:R:3:forces:R:3 structure_index=14 total_energy=-12.112842559814453 stress="0.07842660695314407 -0.018119264394044876 0.025706646963953972 -0.018118446692824364 0.0678630992770195 0.034270238131284714 0.025706443935632706 0.03427084535360336 0.0434277206659317" pbc="T T T"
Li       2.89554305       1.02661239      -0.33165146       0.00000036      -0.00000026       0.00000010
Li       0.17543060       3.06713680      -0.33165138       0.00000101      -0.00000024       0.00000013
Li       1.09395817       1.45829626      -2.06812024       0.00575117       0.00766601      -0.01087279
Li       1.98654436       2.64815534      -3.75554910      -0.00575262      -0.00766765       0.01087420
Sn      -0.00000005       0.00000004      -0.00000001       0.00000015       0.00000206      -0.00000162
4
Lattice="4.201006711026596 0.13811102331986977 -3.9080898010890652 -0.7050843426971651 4.1437165708745045 -3.9080894885260395 -0.11276195641907312 -0.1381111356753507 5.736629034322928" Properties=species:S:1:pos:R:3:forces:R:3 structure_index=15 total_energy=-13.1007080078125 stress="-0.060385625809431076 -0.0019951569847762585 0.0036301773507148027 -0.001995158614590764 -0.06120968982577324 0.004456432536244392 0.0036302823573350906 0.004456430673599243 -0.06688512116670609" pbc="T T T"
Ga      -0.00000004       0.00000004      -0.00000000      -0.00000035       0.00000140       0.00000030
Ga       2.91810293       1.07045693      -1.03977519       0.00000001      -0.00000086      -0.00000004
Sn       1.74796124       2.14091371      -3.90808963       0.00000008      -0.00000043      -0.00000033
Sn       0.46505746       3.07325957      -1.03977508       0.00000025      -0.00000010       0.00000006
4
Lattice="5.427738218432675 0.0068760003066007025 1.0531273983769778 4.4229479043888 3.146096067111563 1.0531271858660607 -0.019406341028754635 -0.006211856040230102 5.3170111699640525" Properties=species:S:1:pos:R:3:forces:R:3 structure_index=16 total_energy=-12.984540939331055 stress="0.041175782680511475 0.017455315217375755 0.014408557675778866 0.017455531284213066 -0.007774222642183304 0.00461256830021739 0.014408663846552372 0.0046124448999762535 -0.08618409931659698" pbc="T T T"
Li       7.41079321       2.37201966       5.58681451       0.03428128       0.01097293       0.01185333
Ga       4.86430704       1.55694968       3.69406888      -0.02143402      -0.00686067      -0.02088835
Sn       0.03218849       0.01030244       5.22871677       0.00288014       0.00092220       0.00946747
Sn       2.42022460       0.77465668       1.94230965      -0.01572740      -0.00503447      -0.00043245
4
Lattice="3.906801123222842 0.03512239628534294 -3.3305197719387225 -0.8100894670838632 3.822052335313108 -3.3305197635273984 -0.028197829416897458 -0.035122391436390364 5.133679206590266" Properties=species:S:1:pos:R:3:forces:R:3 structure_index=17 total_energy=-11.714086532592773 stress="0.06511856615543365 -0.024520356208086014 0.04234842211008072 -0.024520453065633774 0.05426307022571564 0.05274948105216026 0.04234814643859863 0.052749477326869965 -0.006280022673308849" pbc="T T T"
Li      -0.00000000      -0.00000002       0.00000002       0.00000012       0.00000028       0.00000009
Li       2.71347957       0.96429369      -0.76368017       0.00000005      -0.00000008      -0.00000018
Ga       0.35503426       2.85775869      -0.76368020      -0.00000007      -0.00000066       0.00000029
Sn       1.54835583       1.92858735      -3.33051975      -0.00000010       0.00000047      -0.00000021
4
Lattice="3.0978110593083743 -0.027900505873453173 8.62975038767425 1.4790132330184584 2.7220811957055386 8.629751018457702 -0.04740051489680843 -0.02790047878677654 9.16879426365646" Properties=species:S:1:pos:R:3:forces:R:3 structure_index=18 total_energy=-11.420539855957031 stress="-0.0477287583053112 0.0019092303700745106 0.018912719562649727 0.0019093741429969668 -0.0498354472219944 0.011128305457532406 0.018912553787231445 0.011127996258437634 0.05940478295087814" pbc="T T T"
Li       4.50995143       2.65481775      26.31467930      -0.00355413      -0.00209213      -0.02073567
Li       2.28418401       1.34460262      13.32776412       0.00355378       0.00209184       0.02073765
Ga       1.13235610       0.66657006       6.60707415       0.00000038       0.00000006      -0.00000143
Sn       3.39706790       1.99971009      19.82122161      -0.00000004       0.00000022      -0.00000055
3
Lattice="4.160368443216316 1.7941585808438117e-07 2.4019900470617572 1.3867896754031888 3.92243302595202 2.4019900034553165 9.49040357973201e-08 1.3700522789348393e-08 4.8039799297449015" Properties=species:S:1:pos:R:3:forces:R:3 structure_index=19 total_energy=-9.065908432006836 stress="0.08591156452894211 3.5321331779414322e-06 1.2790220580427558e-06 2.8262461455597077e-06 0.08591325581073761 -8.962403086343329e-08 6.1902778725198e-07 7.840424132155022e-08 0.0859152302145958" pbc="T T T"
Ga       1.38678956       0.98060830       2.40198999      -0.00000084      -0.00000012       0.00000028
Ga       4.16036865       2.94182491       7.20596996       0.00000102      -0.00000027       0.00000016
Sn       0.00000001       0.00000001       0.00000003      -0.00000020       0.00000041      -0.00000045
4
Lattice="4.387184128879769 0.5420253901177328 1.73282398862864e-08 -0.537433722870297 4.387749379115493 3.670327174289155e-08 1.1049829739884464e-08 2.6884497888079877e-08 3.169712499984015" Properties=species:S:1:pos:R:3:forces:R:3 structure_index=20 total_energy=-9.587970733642578 stress="0.041429553180933 0.007285446859896183 -1.5587610846523603e-07 0.007285161875188351 0.04507420212030411 -1.6423496163042728e-07 5.042629069862414e-08 4.059536351519455e-08 0.07615119963884354" pbc="T T T"
Li      -0.26871687       2.19387472       1.58485624       0.00000009      -0.00000084      -0.00000006
Li       2.19359202       0.27101267       1.58485623      -0.00000003      -0.00000043      -0.00000010
Li       1.92487524       2.46488737       0.00000004       0.00000008       0.00000066       0.00000013
Ga       0.00000003       0.00000004       0.00000004      -0.00000012       0.00000064       0.00000003
4
Lattice="3.289960356037764 -4.8271392221293355e-08 -2.91820568173734e-08 -4.827139169222738e-08 3.289960369291421 3.006232831626979e-08 -7.234892215621526e-08 7.453131340466736e-08 7.922414181226708" Properties=species:S:1:pos:R:3:forces:R:3 structure_index=21 total_energy=-12.16004753112793 stress="-0.08833397179841995 -3.417413552142534e-07 -9.69070697465213e-07 -3.101595211774111e-07 -0.08833412826061249 -2.0435647840599813e-08 -8.635419135316624e-07 -1.0787410076318338e-08 0.0924677774310112" pbc="T T T"
Ga       1.64498011       1.64498022       5.72746855       0.00000025       0.00000031      -0.04737507
Ga      -0.00000004       0.00000004       3.96120706      -0.00000044      -0.00000027       0.00000042
Ga       1.64498014       1.64498017       2.19494566       0.00000047       0.00000039       0.04737490
Sn      -0.00000002       0.00000000       0.00000000      -0.00000027      -0.00000044      -0.00000026
4
Lattice="4.102762810507608 -0.598015269108615 -3.5006382876350965 -0.5408472454877351 3.562331552615919 -4.0573405006773235 -0.08839588423784872 0.5980156129391296 5.3925234238044295" Properties=species:S:1:pos:R:3:forces:R:3 structure_index=22 total_energy=-12.168949127197266 stress="-0.04503435641527176 -0.016576817259192467 -7.703342998865992e-05 -0.016576798632740974 0.05090990662574768 0.03517782688140869 -7.726024341536686e-05 0.03517753630876541 -0.04493262246251106" pbc="T T T"
Ga       0.00875056       0.00728225      -0.01856751      -0.01537813      -0.01279875       0.03263330
Ga       0.57585723       2.82125276      -1.22190308       0.00000097       0.00000088      -0.00000069
Ga       1.77220739       1.47487581      -3.76042211       0.01537704       0.01279799      -0.03262982
Sn       2.89766229       0.74107921      -0.94355206       0.00000013      -0.00000013      -0.00000281
4
Lattice="2.8750734497229566 9.517964225369225e-09 -6.595733736576756e-08 9.517964687716298e-09 2.87507323798907 -6.447722831460777e-08 -1.8109922549498651e-07 -1.7703528639806454e-07 8.424900259657072" Properties=species:S:1:pos:R:3:forces:R:3 structure_index=23 total_energy=-9.460075378417969 stress="-0.07997878640890121 1.2409483929332055e-07 1.308765860130734e-07 1.0441095099622544e-07 -0.07998134195804596 -4.639122153093922e-07 1.0865633015555431e-07 -3.729549007402966e-07 -0.001256388844922185" pbc="T T T"
Li       1.43753660       1.43753650       6.58641472      -0.00000003      -0.00000010       0.02271929
Li      -0.00000007      -0.00000008       4.21245013       0.00000002       0.00000007       0.00000017
Li       1.43753672       1.43753658       1.83848539       0.00000002      -0.00000011      -0.02271954
Ga      -0.00000006      -0.00000001       0.00000001      -0.00000001       0.00000015       0.00000006
4
Lattice="3.5673129062671225 -3.3144031031430097e-07 -6.892836466142557e-08 -4.122561692572893e-07 3.6889472033108905 3.36170483685353e-08 -1.3677652477702814e-07 5.363043596110224e-08 6.473389405399653" Properties=species:S:1:pos:R:3:forces:R:3 structure_index=24 total_energy=-12.201565742492676 stress="-0.05283872410655022 -2.7453179427539e-06 2.5074525638046907e-06 -2.773943378997501e-06 -0.09351345896720886 -1.8159247474613949e-06 2.4663829663040815e-06 -1.7597046735318145e-06 0.0043310970067977905" pbc="T T T"
Ga       1.78365614       1.84447341       4.65512748       0.00000045      -0.00000008      -0.00445297
Ga      -0.00000001      -0.00000001       3.23669480       0.00000061      -0.00000055       0.00000090
Ga       1.78365623       1.84447343       1.81826192      -0.00000039       0.00000067       0.00445163
Sn      -0.00000007       0.00000012      -0.00000013      -0.00000067      -0.00000003       0.00000041
4
Lattice="3.8895179244861757 -7.338007094322263e-08 3.220498935813908e-08 -1.1226804290228333e-07 3.890422810842259 1.8598710751984368e-07 5.2420425051620916e-08 1.978710196175999e-07 4.233645390003507" Properties=species:S:1:pos:R:3:forces:R:3 structure_index=25 total_energy=-10.979631423950195 stress="0.09541391581296921 -1.956251935553155e-06 1.6359905430363142e-06 -1.6860227560755447e-06 0.08805857598781586 2.089205736410804e-06 1.565210368426051e-06 2.04968023354013e-06 0.004623884335160255" pbc="T T T"
Li       1.94475882       0.00000002       1.78458261       0.00000089       0.00000033      -0.05459650
Li      -0.00000006       1.94521146       1.74345531       0.00000012       0.00000042       0.05459663
Ga       0.00000002       0.00000006      -0.34124778      -0.00000116      -0.00000074      -0.03465898
Ga       1.94475914       1.94521151       3.86928573       0.00000017      -0.00000001       0.03465886
7
Lattice="3.764491673403145 -0.048760175680351465 -11.467568017615 -0.1426256302481255 3.7621064826905144 -11.467568733418469 0.047560821773202304 0.04875972865373518 12.069555118108953" Properties=species:S:1:pos:R:3:forces:R:3 structure_index=26 total_energy=-23.282310485839844 stress="-0.012726850807666779 0.0007302967715077102 -0.004543011076748371 0.0007302990998141468 -0.012682232074439526 -0.004654879216104746 -0.0045427484437823296 -0.004655151627957821 0.015232154168188572" pbc="T T T"
Ga       0.00000006       0.00000014      -0.00000037       0.00000050      -0.00000025      -0.00000028
Ga       1.02391015       1.04977207      -6.48381943      -0.00340269      -0.00349084       0.02156466
Ga       2.59795575       2.66357407     -16.45131703       0.00340327       0.00349092      -0.02156674
Sn       0.56427888       0.57853116      -3.57324425       0.00237005       0.00243052      -0.01499701
Sn       3.05758698       3.13481524     -19.36189214      -0.00236872      -0.00242938       0.01499401
Sn       1.55934500       1.59873038      -9.87440886      -0.00087959      -0.00089953       0.00556451
Sn       2.06252133       2.11461585     -13.06072817       0.00087718       0.00089858      -0.00555915
3
Lattice="3.839187205820789 0.0 2.2165557667500004 1.2797290686069298 3.619620409974018 2.2165557667500004 0.0 0.0 4.4331115335" Properties=species:S:1:pos:R:3:forces:R:3 structure_index=27 total_energy=-8.931580543518066 stress="-0.0597849078476429 1.7030351955327205e-06 8.660662160764332e-07 1.587223323440412e-06 -0.05979113653302193 2.0373456663946854e-06 8.648122502563638e-07 2.1304379060893552e-06 -0.05977833271026611" pbc="T T T"
Li       1.27972907       0.90490510       2.21655577      -0.00000054      -0.00000022       0.00000009
Ga       2.55945814       1.80981020       4.43311153       0.00000006      -0.00000018      -0.00000024
Sn       0.00000000       0.00000000       0.00000000       0.00000045       0.00000040       0.00000012
4
Lattice="5.05428726176653 -0.060371119310772756 0.855980849435375 4.044852992712996 3.0312751077760267 0.85598096005178 0.12357370839844867 0.04034747058389976 4.9673011803713045" Properties=species:S:1:pos:R:3:forces:R:3 structure_index=28 total_energy=-11.594549179077148 stress="0.07114613801240921 0.05337721109390259 0.002954061608761549 0.05337681993842125 -0.07491108030080795 0.0009640952339395881 0.0029539919923990965 0.0009642968652769923 -0.025900067761540413" pbc="T T T"
Li       0.17639437       0.05759355       4.93794660       0.02388803       0.00780015       0.03424918
Li       2.28179645       0.74501529       1.63214128       0.02571601       0.00839641      -0.01765898
Ga       6.90517322       2.25456557       5.07215751      -0.00930466      -0.00303773      -0.03341148
Sn       4.59428061       1.50005026       3.34395028      -0.04029937      -0.01315882       0.01682129
4