phonopy:
  version: "2.37.1"
  frequency_unit_conversion_factor: 15.633302
  symmetry_tolerance: 1.00000e-05

space_group:
  type: "P1"
  number: 1
  Hall_symbol: "P 1"

primitive_matrix:
- [ -1.000000000000000, -0.000000000000000, -0.000000000000000 ]
- [  0.000000000000000, -1.000000000000000,  0.000000000000000 ]
- [  0.000000000000000,  0.000000000000000,  1.000000000000000 ]

supercell_matrix:
- [   3,   0,   0 ]
- [   0,   3,   0 ]
- [   0,   0,   2 ]

primitive_cell:
  lattice:
  - [    -4.275210078350836,     0.000000000000000,     0.000000000000000 ] # a
  - [    -0.000148762623729,    -4.292907540265761,     0.000000000000000 ] # b
  - [    -0.000178197182695,    -2.145253410825277,     6.429318329505540 ] # c
  points:
  - symbol: Li # 1
    coordinates: [  0.112643792349318,  0.322027242662174,  0.053554195064156 ]
    mass: 6.940000
  - symbol: Li # 2
    coordinates: [  0.112648761271781,  0.658354832224196,  0.380550785565026 ]
    mass: 6.940000
  - symbol: Li # 3
    coordinates: [  0.112840258754726,  0.994955773159181,  0.707498565212257 ]
    mass: 6.940000
  - symbol: Ga # 4
    coordinates: [  0.612828492687282,  0.158089052336567,  0.380947067750272 ]
    mass: 69.723000
  - symbol: Sn # 5
    coordinates: [  0.612666098166585,  0.495241971136206,  0.706544652290478 ]
    mass: 118.710000
  - symbol: Sn # 6
    coordinates: [  0.612623143886916,  0.821400970152158,  0.054942402214890 ]
    mass: 118.710000
  reciprocal_lattice: # without 2pi
  - [    -0.233906634217552,     0.000008105593770,    -0.000003778464419 ] # a*
  - [    -0.000000000000000,    -0.232942356810716,    -0.077725251708341 ] # b*
  - [    -0.000000000000000,    -0.000000000000000,     0.155537484496728 ] # c*

unit_cell:
  lattice:
  - [     4.275210078350836,     0.000000000000000,     0.000000000000000 ] # a
  - [     0.000148762623729,     4.292907540265761,     0.000000000000000 ] # b
  - [    -0.000178197182695,    -2.145253410825276,     6.429318329505538 ] # c
  points:
  - symbol: Li # 1
    coordinates: [  0.887356207650682,  0.677972757337826,  0.053554195064156 ]
    mass: 6.940000
    reduced_to: 1
  - symbol: Li # 2
    coordinates: [  0.887351238728219,  0.341645167775804,  0.380550785565026 ]
    mass: 6.940000
    reduced_to: 2
  - symbol: Li # 3
    coordinates: [  0.887159741245274,  0.005044226840819,  0.707498565212257 ]
    mass: 6.940000
    reduced_to: 3
  - symbol: Ga # 4
    coordinates: [  0.387171507312718,  0.841910947663433,  0.380947067750272 ]
    mass: 69.723000
    reduced_to: 4
  - symbol: Sn # 5
    coordinates: [  0.387333901833415,  0.504758028863794,  0.706544652290478 ]
    mass: 118.710000
    reduced_to: 5
  - symbol: Sn # 6
    coordinates: [  0.387376856113084,  0.178599029847842,  0.054942402214890 ]
    mass: 118.710000
    reduced_to: 6

supercell:
  lattice:
  - [    12.825630235052508,     0.000000000000000,     0.000000000000000 ] # a
  - [     0.000446287871186,    12.878722620797284,     0.000000000000000 ] # b
  - [    -0.000356394365390,    -4.290506821650553,    12.858636659011076 ] # c
  points:
  - symbol: Li # 1
    coordinates: [  0.295785402550227,  0.225990919112609,  0.026777097532078 ]
    mass: 6.940000
    reduced_to: 1
  - symbol: Li # 2
    coordinates: [  0.629118735883561,  0.225990919112609,  0.026777097532078 ]
    mass: 6.940000
    reduced_to: 1
  - symbol: Li # 3
    coordinates: [  0.962452069216894,  0.225990919112609,  0.026777097532078 ]
    mass: 6.940000
    reduced_to: 1
  - symbol: Li # 4
    coordinates: [  0.295785402550227,  0.559324252445942,  0.026777097532078 ]
    mass: 6.940000
    reduced_to: 1
  - symbol: Li # 5
    coordinates: [  0.629118735883561,  0.559324252445942,  0.026777097532078 ]
    mass: 6.940000
    reduced_to: 1
  - symbol: Li # 6
    coordinates: [  0.962452069216894,  0.559324252445942,  0.026777097532078 ]
    mass: 6.940000
    reduced_to: 1
  - symbol: Li # 7
    coordinates: [  0.295785402550227,  0.892657585779276,  0.026777097532078 ]
    mass: 6.940000
    reduced_to: 1
  - symbol: Li # 8
    coordinates: [  0.629118735883561,  0.892657585779276,  0.026777097532078 ]
    mass: 6.940000
    reduced_to: 1
  - symbol: Li # 9
    coordinates: [  0.962452069216894,  0.892657585779276,  0.026777097532078 ]
    mass: 6.940000
    reduced_to: 1
  - symbol: Li # 10
    coordinates: [  0.295785402550227,  0.225990919112609,  0.526777097532078 ]
    mass: 6.940000
    reduced_to: 1
  - symbol: Li # 11
    coordinates: [  0.629118735883561,  0.225990919112609,  0.526777097532078 ]
    mass: 6.940000
    reduced_to: 1
  - symbol: Li # 12
    coordinates: [  0.962452069216894,  0.225990919112609,  0.526777097532078 ]
    mass: 6.940000
    reduced_to: 1
  - symbol: Li # 13
    coordinates: [  0.295785402550227,  0.559324252445942,  0.526777097532078 ]
    mass: 6.940000
    reduced_to: 1
  - symbol: Li # 14
    coordinates: [  0.629118735883561,  0.559324252445942,  0.526777097532078 ]
    mass: 6.940000
    reduced_to: 1
  - symbol: Li # 15
    coordinates: [  0.962452069216894,  0.559324252445942,  0.526777097532078 ]
    mass: 6.940000
    reduced_to: 1
  - symbol: Li # 16
    coordinates: [  0.295785402550227,  0.892657585779276,  0.526777097532078 ]
    mass: 6.940000
    reduced_to: 1
  - symbol: Li # 17
    coordinates: [  0.629118735883561,  0.892657585779276,  0.526777097532078 ]
    mass: 6.940000
    reduced_to: 1
  - symbol: Li # 18
    coordinates: [  0.962452069216894,  0.892657585779276,  0.526777097532078 ]
    mass: 6.940000
    reduced_to: 1
  - symbol: Li # 19
    coordinates: [  0.295783746242740,  0.113881722591935,  0.190275392782513 ]
    mass: 6.940000
    reduced_to: 19
  - symbol: Li # 20
    coordinates: [  0.629117079576073,  0.113881722591935,  0.190275392782513 ]
    mass: 6.940000
    reduced_to: 19
  - symbol: Li # 21
    coordinates: [  0.962450412909406,  0.113881722591935,  0.190275392782513 ]
    mass: 6.940000
    reduced_to: 19
  - symbol: Li # 22
    coordinates: [  0.295783746242740,  0.447215055925268,  0.190275392782513 ]
    mass: 6.940000
    reduced_to: 19
  - symbol: Li # 23
    coordinates: [  0.629117079576073,  0.447215055925268,  0.190275392782513 ]
    mass: 6.940000
    reduced_to: 19
  - symbol: Li # 24
    coordinates: [  0.962450412909406,  0.447215055925268,  0.190275392782513 ]
    mass: 6.940000
    reduced_to: 19
  - symbol: Li # 25
    coordinates: [  0.295783746242740,  0.780548389258601,  0.190275392782513 ]
    mass: 6.940000
    reduced_to: 19
  - symbol: Li # 26
    coordinates: [  0.629117079576073,  0.780548389258601,  0.190275392782513 ]
    mass: 6.940000
    reduced_to: 19
  - symbol: Li # 27
    coordinates: [  0.962450412909406,  0.780548389258601,  0.190275392782513 ]
    mass: 6.940000
    reduced_to: 19
  - symbol: Li # 28
    coordinates: [  0.295783746242740,  0.113881722591935,  0.690275392782513 ]
    mass: 6.940000
    reduced_to: 19
  - symbol: Li # 29
    coordinates: [  0.629117079576073,  0.113881722591935,  0.690275392782513 ]
    mass: 6.940000
    reduced_to: 19
  - symbol: Li # 30
    coordinates: [  0.962450412909406,  0.113881722591935,  0.690275392782513 ]
    mass: 6.940000
    reduced_to: 19
  - symbol: Li # 31
    coordinates: [  0.295783746242740,  0.447215055925268,  0.690275392782513 ]
    mass: 6.940000
    reduced_to: 19
  - symbol: Li # 32
    coordinates: [  0.629117079576073,  0.447215055925268,  0.690275392782513 ]
    mass: 6.940000
    reduced_to: 19
  - symbol: Li # 33
    coordinates: [  0.962450412909406,  0.447215055925268,  0.690275392782513 ]
    mass: 6.940000
    reduced_to: 19
  - symbol: Li # 34
    coordinates: [  0.295783746242740,  0.780548389258601,  0.690275392782513 ]
    mass: 6.940000
    reduced_to: 19
  - symbol: Li # 35
    coordinates: [  0.629117079576073,  0.780548389258601,  0.690275392782513 ]
    mass: 6.940000
    reduced_to: 19
  - symbol: Li # 36
    coordinates: [  0.962450412909406,  0.780548389258601,  0.690275392782513 ]
    mass: 6.940000
    reduced_to: 19
  - symbol: Li # 37
    coordinates: [  0.295719913748425,  0.001681408946940,  0.353749282606128 ]
    mass: 6.940000
    reduced_to: 37
  - symbol: Li # 38
    coordinates: [  0.629053247081758,  0.001681408946940,  0.353749282606128 ]
    mass: 6.940000
    reduced_to: 37
  - symbol: Li # 39
    coordinates: [  0.962386580415091,  0.001681408946940,  0.353749282606128 ]
    mass: 6.940000
    reduced_to: 37
  - symbol: Li # 40
    coordinates: [  0.295719913748425,  0.335014742280273,  0.353749282606128 ]
    mass: 6.940000
    reduced_to: 37
  - symbol: Li # 41
    coordinates: [  0.629053247081758,  0.335014742280273,  0.353749282606128 ]
    mass: 6.940000
    reduced_to: 37
  - symbol: Li # 42
    coordinates: [  0.962386580415091,  0.335014742280273,  0.353749282606128 ]
    mass: 6.940000
    reduced_to: 37
  - symbol: Li # 43
    coordinates: [  0.295719913748425,  0.668348075613606,  0.353749282606128 ]
    mass: 6.940000
    reduced_to: 37
  - symbol: Li # 44
    coordinates: [  0.629053247081758,  0.668348075613606,  0.353749282606128 ]
    mass: 6.940000
    reduced_to: 37
  - symbol: Li # 45
    coordinates: [  0.962386580415091,  0.668348075613606,  0.353749282606128 ]
    mass: 6.940000
    reduced_to: 37
  - symbol: Li # 46
    coordinates: [  0.295719913748425,  0.001681408946940,  0.853749282606128 ]
    mass: 6.940000
    reduced_to: 37
  - symbol: Li # 47
    coordinates: [  0.629053247081758,  0.001681408946940,  0.853749282606128 ]
    mass: 6.940000
    reduced_to: 37
  - symbol: Li # 48
    coordinates: [  0.962386580415091,  0.001681408946940,  0.853749282606128 ]
    mass: 6.940000
    reduced_to: 37
  - symbol: Li # 49
    coordinates: [  0.295719913748425,  0.335014742280273,  0.853749282606128 ]
    mass: 6.940000
    reduced_to: 37
  - symbol: Li # 50
    coordinates: [  0.629053247081758,  0.335014742280273,  0.853749282606128 ]
    mass: 6.940000
    reduced_to: 37
  - symbol: Li # 51
    coordinates: [  0.962386580415091,  0.335014742280273,  0.853749282606128 ]
    mass: 6.940000
    reduced_to: 37
  - symbol: Li # 52
    coordinates: [  0.295719913748425,  0.668348075613606,  0.853749282606128 ]
    mass: 6.940000
    reduced_to: 37
  - symbol: Li # 53
    coordinates: [  0.629053247081758,  0.668348075613606,  0.853749282606128 ]
    mass: 6.940000
    reduced_to: 37
  - symbol: Li # 54
    coordinates: [  0.962386580415091,  0.668348075613606,  0.853749282606128 ]
    mass: 6.940000
    reduced_to: 37
  - symbol: Ga # 55
    coordinates: [  0.129057169104239,  0.280636982554478,  0.190473533875136 ]
    mass: 69.723000
    reduced_to: 55
  - symbol: Ga # 56
    coordinates: [  0.462390502437573,  0.280636982554478,  0.190473533875136 ]
    mass: 69.723000
    reduced_to: 55
  - symbol: Ga # 57
    coordinates: [  0.795723835770906,  0.280636982554478,  0.190473533875136 ]
    mass: 69.723000
    reduced_to: 55
  - symbol: Ga # 58
    coordinates: [  0.129057169104239,  0.613970315887811,  0.190473533875136 ]
    mass: 69.723000
    reduced_to: 55
  - symbol: Ga # 59
    coordinates: [  0.462390502437573,  0.613970315887811,  0.190473533875136 ]
    mass: 69.723000
    reduced_to: 55
  - symbol: Ga # 60
    coordinates: [  0.795723835770906,  0.613970315887811,  0.190473533875136 ]
    mass: 69.723000
    reduced_to: 55
  - symbol: Ga # 61
    coordinates: [  0.129057169104239,  0.947303649221144,  0.190473533875136 ]
    mass: 69.723000
    reduced_to: 55
  - symbol: Ga # 62
    coordinates: [  0.462390502437573,  0.947303649221144,  0.190473533875136 ]
    mass: 69.723000
    reduced_to: 55
  - symbol: Ga # 63
    coordinates: [  0.795723835770906,  0.947303649221144,  0.190473533875136 ]
    mass: 69.723000
    reduced_to: 55
  - symbol: Ga # 64
    coordinates: [  0.129057169104239,  0.280636982554478,  0.690473533875136 ]
    mass: 69.723000
    reduced_to: 55
  - symbol: Ga # 65
    coordinates: [  0.462390502437573,  0.280636982554478,  0.690473533875136 ]
    mass: 69.723000
    reduced_to: 55
  - symbol: Ga # 66
    coordinates: [  0.795723835770906,  0.280636982554478,  0.690473533875136 ]
    mass: 69.723000
    reduced_to: 55
  - symbol: Ga # 67
    coordinates: [  0.129057169104239,  0.613970315887811,  0.690473533875136 ]
    mass: 69.723000
    reduced_to: 55
  - symbol: Ga # 68
    coordinates: [  0.462390502437573,  0.613970315887811,  0.690473533875136 ]
    mass: 69.723000
    reduced_to: 55
  - symbol: Ga # 69
    coordinates: [  0.795723835770906,  0.613970315887811,  0.690473533875136 ]
    mass: 69.723000
    reduced_to: 55
  - symbol: Ga # 70
    coordinates: [  0.129057169104239,  0.947303649221144,  0.690473533875136 ]
    mass: 69.723000
    reduced_to: 55
  - symbol: Ga # 71
    coordinates: [  0.462390502437573,  0.947303649221144,  0.690473533875136 ]
    mass: 69.723000
    reduced_to: 55
  - symbol: Ga # 72
    coordinates: [  0.795723835770906,  0.947303649221144,  0.690473533875136 ]
    mass: 69.723000
    reduced_to: 55
  - symbol: Sn # 73
    coordinates: [  0.129111300611138,  0.168252676287931,  0.353272326145239 ]
    mass: 118.710000
    reduced_to: 73
  - symbol: Sn # 74
    coordinates: [  0.462444633944472,  0.168252676287931,  0.353272326145239 ]
    mass: 118.710000
    reduced_to: 73
  - symbol: Sn # 75
    coordinates: [  0.795777967277805,  0.168252676287931,  0.353272326145239 ]
    mass: 118.710000
    reduced_to: 73
  - symbol: Sn # 76
    coordinates: [  0.129111300611138,  0.501586009621265,  0.353272326145239 ]
    mass: 118.710000
    reduced_to: 73
  - symbol: Sn # 77
    coordinates: [  0.462444633944472,  0.501586009621265,  0.353272326145239 ]
    mass: 118.710000
    reduced_to: 73
  - symbol: Sn # 78
    coordinates: [  0.795777967277805,  0.501586009621265,  0.353272326145239 ]
    mass: 118.710000
    reduced_to: 73
  - symbol: Sn # 79
    coordinates: [  0.129111300611138,  0.834919342954598,  0.353272326145239 ]
    mass: 118.710000
    reduced_to: 73
  - symbol: Sn # 80
    coordinates: [  0.462444633944472,  0.834919342954598,  0.353272326145239 ]
    mass: 118.710000
    reduced_to: 73
  - symbol: Sn # 81
    coordinates: [  0.795777967277805,  0.834919342954598,  0.353272326145239 ]
    mass: 118.710000
    reduced_to: 73
  - symbol: Sn # 82
    coordinates: [  0.129111300611138,  0.168252676287931,  0.853272326145239 ]
    mass: 118.710000
    reduced_to: 73
  - symbol: Sn # 83
    coordinates: [  0.462444633944472,  0.168252676287931,  0.853272326145239 ]
    mass: 118.710000
    reduced_to: 73
  - symbol: Sn # 84
    coordinates: [  0.795777967277805,  0.168252676287931,  0.853272326145239 ]
    mass: 118.710000
    reduced_to: 73
  - symbol: Sn # 85
    coordinates: [  0.129111300611138,  0.501586009621265,  0.853272326145239 ]
    mass: 118.710000
    reduced_to: 73
  - symbol: Sn # 86
    coordinates: [  0.462444633944472,  0.501586009621265,  0.853272326145239 ]
    mass: 118.710000
    reduced_to: 73
  - symbol: Sn # 87
    coordinates: [  0.795777967277805,  0.501586009621265,  0.853272326145239 ]
    mass: 118.710000
    reduced_to: 73
  - symbol: Sn # 88
    coordinates: [  0.129111300611138,  0.834919342954598,  0.853272326145239 ]
    mass: 118.710000
    reduced_to: 73
  - symbol: Sn # 89
    coordinates: [  0.462444633944472,  0.834919342954598,  0.853272326145239 ]
    mass: 118.710000
    reduced_to: 73
  - symbol: Sn # 90
    coordinates: [  0.795777967277805,  0.834919342954598,  0.853272326145239 ]
    mass: 118.710000
    reduced_to: 73
  - symbol: Sn # 91
    coordinates: [  0.129125618704361,  0.059533009949281,  0.027471201107445 ]
    mass: 118.710000
    reduced_to: 91
  - symbol: Sn # 92
    coordinates: [  0.462458952037695,  0.059533009949281,  0.027471201107445 ]
    mass: 118.710000
    reduced_to: 91
  - symbol: Sn # 93
    coordinates: [  0.795792285371028,  0.059533009949281,  0.027471201107445 ]
    mass: 118.710000
    reduced_to: 91
  - symbol: Sn # 94
    coordinates: [  0.129125618704361,  0.392866343282614,  0.027471201107445 ]
    mass: 118.710000
    reduced_to: 91
  - symbol: Sn # 95
    coordinates: [  0.462458952037695,  0.392866343282614,  0.027471201107445 ]
    mass: 118.710000
    reduced_to: 91
  - symbol: Sn # 96
    coordinates: [  0.795792285371028,  0.392866343282614,  0.027471201107445 ]
    mass: 118.710000
    reduced_to: 91
  - symbol: Sn # 97
    coordinates: [  0.129125618704361,  0.726199676615947,  0.027471201107445 ]
    mass: 118.710000
    reduced_to: 91
  - symbol: Sn # 98
    coordinates: [  0.462458952037695,  0.726199676615947,  0.027471201107445 ]
    mass: 118.710000
    reduced_to: 91
  - symbol: Sn # 99
    coordinates: [  0.795792285371028,  0.726199676615947,  0.027471201107445 ]
    mass: 118.710000
    reduced_to: 91
  - symbol: Sn # 100
    coordinates: [  0.129125618704361,  0.059533009949281,  0.527471201107445 ]
    mass: 118.710000
    reduced_to: 91
  - symbol: Sn # 101
    coordinates: [  0.462458952037695,  0.059533009949281,  0.527471201107445 ]
    mass: 118.710000
    reduced_to: 91
  - symbol: Sn # 102
    coordinates: [  0.795792285371028,  0.059533009949281,  0.527471201107445 ]
    mass: 118.710000
    reduced_to: 91
  - symbol: Sn # 103
    coordinates: [  0.129125618704361,  0.392866343282614,  0.527471201107445 ]
    mass: 118.710000
    reduced_to: 91
  - symbol: Sn # 104
    coordinates: [  0.462458952037695,  0.392866343282614,  0.527471201107445 ]
    mass: 118.710000
    reduced_to: 91
  - symbol: Sn # 105
    coordinates: [  0.795792285371028,  0.392866343282614,  0.527471201107445 ]
    mass: 118.710000
    reduced_to: 91
  - symbol: Sn # 106
    coordinates: [  0.129125618704361,  0.726199676615947,  0.527471201107445 ]
    mass: 118.710000
    reduced_to: 91
  - symbol: Sn # 107
    coordinates: [  0.462458952037695,  0.726199676615947,  0.527471201107445 ]
    mass: 118.710000
    reduced_to: 91
  - symbol: Sn # 108
    coordinates: [  0.795792285371028,  0.726199676615947,  0.527471201107445 ]
    mass: 118.710000
    reduced_to: 91

displacements:
- atom:    1
  displacement:
    [   0.0100000000000000,  0.0000000000000000,  0.0000000000000000 ]
  forces:
  - [  -0.0188421010971069,  0.0001115100458264,  0.0342651195824146 ]
  - [   0.0006948690861464,  0.0001078292261809,  0.0343605987727642 ]
  - [   0.0007138259243220,  0.0001082401722670,  0.0341407582163811 ]
  - [   0.0004665907472372,  0.0001017916947603,  0.0342513620853424 ]
  - [  -0.0005753068253398, -0.0003646919503808,  0.0342162400484085 ]
  - [  -0.0005746090319008,  0.0005759776104242,  0.0342869162559509 ]
  - [   0.0004667611792684,  0.0001133749683504,  0.0342508479952812 ]
  - [  -0.0005752732977271,  0.0005798573256470,  0.0342157669365406 ]
  - [  -0.0005742893554270, -0.0003603531513363,  0.0342864617705345 ]
  - [  -0.0000873524695635,  0.0001079775393009,  0.0342510417103767 ]
  - [  -0.0000369437038898,  0.0001160977408290,  0.0342484451830387 ]
  - [  -0.0000377807227778,  0.0000995919108391,  0.0342535898089409 ]
  - [  -0.0000650743022561,  0.0001085861586034,  0.0342501886188984 ]
  - [  -0.0000456888228655,  0.0001148171722889,  0.0342738218605518 ]
  - [  -0.0000463570177089,  0.0001023747026920,  0.0342271402478218 ]
  - [  -0.0000667339190841,  0.0001070690341294,  0.0342517755925655 ]
  - [  -0.0000475225970149,  0.0000925231724977,  0.0342290177941322 ]
  - [  -0.0000480430608150,  0.0001214155927300,  0.0342742055654526 ]
  - [   0.0000143055804074, -0.0001698139967630,  0.0014416207559407 ]
  - [  -0.0004839017055929, -0.0001422637433279,  0.0013140514492989 ]
  - [  -0.0004842672497034, -0.0002028576273005,  0.0015775226056576 ]
  - [   0.0000103483907878, -0.0001772870309651,  0.0014421590603888 ]
  - [  -0.0004842313937843, -0.0002039028331637,  0.0013115867041051 ]
  - [  -0.0004841073532589, -0.0001423009234713,  0.0015781642869115 ]
  - [  -0.0003024367615581, -0.0001731470401864,  0.0014459458179772 ]
  - [  -0.0002531595528126, -0.0001731497759465,  0.0014648428186774 ]
  - [  -0.0002527848700993, -0.0001728010247461,  0.0014272308908403 ]
  - [   0.0002710954286158, -0.0001731297670631,  0.0014531975612044 ]
  - [  -0.0007643885910511, -0.0001726541377138,  0.0019502285867929 ]
  - [  -0.0007607224397361, -0.0001738895080052,  0.0009487764909863 ]
  - [  -0.0002671899273992, -0.0001731478259899,  0.0014461111277342 ]
  - [  -0.0002780263312161, -0.0001715758990031,  0.0014554155059159 ]
  - [  -0.0002768278936855, -0.0001757313439157,  0.0014383876696229 ]
  - [  -0.0002691936679184, -0.0001749792863848,  0.0014476152136922 ]
  - [  -0.0002797688357532, -0.0001772537361830,  0.0014588236808777 ]
  - [  -0.0002801971568260, -0.0001717852137517,  0.0014373930171132 ]
  - [   0.0011580744758248,  0.0009325224673375, -0.0306178312748671 ]
  - [   0.0012502623721957,  0.0009240479557775, -0.0306186266243458 ]
  - [   0.0012492423411459,  0.0009421587456018, -0.0306180436164141 ]
  - [   0.0014951936900616,  0.0009317653020844, -0.0306190364062786 ]
  - [   0.0009256843477488,  0.0009305169805884, -0.0309211853891611 ]
  - [   0.0009277362260036,  0.0009322684491053, -0.0303174536675215 ]
  - [   0.0011621695011854,  0.0009327762527391, -0.0306174661964178 ]
  - [   0.0012486884370446,  0.0009411738137715, -0.0306205302476883 ]
  - [   0.0012483468744904,  0.0009217876358889, -0.0306139849126339 ]
  - [   0.0013897214084864,  0.0009376818779856, -0.0306138470768929 ]
  - [   0.0008980445563793,  0.0010652039200068, -0.0305241402238607 ]
  - [   0.0008981113205664,  0.0008037323132157, -0.0307114012539387 ]
  - [   0.0013881437480450,  0.0009274339536205, -0.0306128524243832 ]
  - [   0.0008965190500021,  0.0007996105123311, -0.0305238589644432 ]
  - [   0.0008969201007858,  0.0010612169280648, -0.0307093597948551 ]
  - [   0.0012660799548030,  0.0009329154272564, -0.0306171439588070 ]
  - [   0.0012037307024002,  0.0009325080318376, -0.0306371226906776 ]
  - [   0.0012031039223075,  0.0009326117578894, -0.0305977836251259 ]
  - [   0.0022813796531409, -0.0010510683059692, -0.0062460880726576 ]
  - [   0.0023165189195424, -0.0010464412625879, -0.0011594444513321 ]
  - [   0.0005613749381155, -0.0010486480314285, -0.0037322323769331 ]
  - [   0.0007128441939130, -0.0012377656530589, -0.0040318639948964 ]
  - [   0.0007112646708265, -0.0008488527964801, -0.0034240167587996 ]
  - [   0.0007353886030614, -0.0010468498803675, -0.0037322118878365 ]
  - [   0.0007124805706553, -0.0008597190026194, -0.0040316209197044 ]
  - [   0.0007109506987035, -0.0012430616188794, -0.0034246202558279 ]
  - [   0.0007354540284723, -0.0010477142641321, -0.0037321094423532 ]
  - [   0.0007285905303434, -0.0013112574815750, -0.0036559551954269 ]
  - [   0.0007272909861058, -0.0007785540074110, -0.0038168774917722 ]
  - [   0.0007202585693449, -0.0010483451187611, -0.0037343979347497 ]
  - [   0.0007183017442003, -0.0010489895939827, -0.0038097538053989 ]
  - [   0.0007183543057181, -0.0010471977293491, -0.0036592534743249 ]
  - [   0.0007392285624519, -0.0010472089052200, -0.0037337341345847 ]
  - [   0.0007283379090950, -0.0007840879261494, -0.0036566816270351 ]
  - [   0.0007272961083800, -0.0013166088610888, -0.0038164719007909 ]
  - [   0.0007203759741969, -0.0010474491864443, -0.0037342587020248 ]
  - [  -0.0008898777887225, -0.0022831819951534,  0.0198329873383045 ]
  - [  -0.0008913034107536, -0.0025591524317861,  0.0199027378112078 ]
  - [  -0.0008738125907257, -0.0024201811756939,  0.0198684632778168 ]
  - [  -0.0008906039875001, -0.0025545880198479,  0.0198480822145939 ]
  - [  -0.0008923370623961, -0.0022820723243058,  0.0198886469006538 ]
  - [  -0.0008733280701563, -0.0024196209851652,  0.0198689065873623 ]
  - [  -0.0008743355283514, -0.0024232976138592,  0.0199154280126095 ]
  - [  -0.0008752823341638, -0.0024205681402236,  0.0198213085532188 ]
  - [  -0.0008748428663239, -0.0024219548795372,  0.0198687463998795 ]
  - [   0.0017547330353409, -0.0024240505881608,  0.0245364904403687 ]
  - [   0.0017978097312152, -0.0024164228234440,  0.0150802861899137 ]
  - [  -0.0010651331394911, -0.0024205879308283,  0.0198673252016306 ]
  - [  -0.0008731685811654, -0.0025855274870992,  0.0200823396444321 ]
  - [  -0.0008737905300222, -0.0022529808338732,  0.0196482948958874 ]
  - [  -0.0008546736207791, -0.0024196212179959,  0.0198668893426657 ]
  - [  -0.0008730142144486, -0.0022568281274289,  0.0200829692184925 ]
  - [  -0.0008742228965275, -0.0025879372842610,  0.0196473225951195 ]
  - [  -0.0008550230413675, -0.0024216291494668,  0.0198668837547302 ]
  - [   0.0023824514355510,  0.0069423764944077, -0.0216995477676392 ]
  - [   0.0024400905240327, -0.0018440389540046, -0.0207087285816669 ]
  - [  -0.0008990149945021,  0.0026033194735646, -0.0212150961160660 ]
  - [   0.0023886207491159, -0.0017368886619806, -0.0216965675354004 ]
  - [   0.0024446561001241,  0.0070463335141540, -0.0207114703953266 ]
  - [  -0.0008972438517958,  0.0026019169017673, -0.0212146267294884 ]
  - [  -0.0007789973169565,  0.0025992598384619, -0.0210924036800861 ]
  - [  -0.0007796194404364,  0.0025998204946518, -0.0213375966995955 ]
  - [  -0.0006942562758923,  0.0025995019823313, -0.0212152488529682 ]
  - [  -0.0007649422623217,  0.0025695674121380, -0.0213394500315189 ]
  - [  -0.0007649417966604,  0.0026326719671488, -0.0210869312286377 ]
  - [  -0.0007229894399643,  0.0026017650961876, -0.0212151296436787 ]
  - [  -0.0007625444559380,  0.0026389285922050, -0.0211029611527920 ]
  - [  -0.0007621406693943,  0.0025648043956608, -0.0213271249085665 ]
  - [  -0.0007288830820471,  0.0026022014208138, -0.0212152432650328 ]
  - [  -0.0007530410075560,  0.0025958847254515, -0.0212133787572384 ]
  - [  -0.0007529798895121,  0.0026073369663209, -0.0212165173143148 ]
  - [  -0.0007470641285181,  0.0026009571738541, -0.0212152153253555 ]
- atom:    1
  displacement:
    [  -0.0100000000000000,  0.0000000000000000,  0.0000000000000000 ]
  forces:
  - [   0.0187370739877224,  0.0001062056981027,  0.0342773869633675 ]
  - [  -0.0008215196430683,  0.0001082988455892,  0.0341406390070915 ]
  - [  -0.0008028327720240,  0.0001077193301171,  0.0343610942363739 ]
  - [  -0.0005749296396971,  0.0001023001968861,  0.0342513993382454 ]
  - [   0.0004659555852413,  0.0005757596809417,  0.0342864170670509 ]
  - [   0.0004671144706663, -0.0003649313002825,  0.0342167057096958 ]
  - [  -0.0005747685208917,  0.0001129329830292,  0.0342508256435394 ]
  - [   0.0004661772400141, -0.0003599553310778,  0.0342860817909241 ]
  - [   0.0004673388903029,  0.0005796747282147,  0.0342163369059563 ]
  - [  -0.0000215722247958,  0.0001079617068172,  0.0342510007321835 ]
  - [  -0.0000698184594512,  0.0000994345173240,  0.0342531986534595 ]
  - [  -0.0000706403006916,  0.0001159519888461,  0.0342489853501320 ]
  - [  -0.0000404147431254,  0.0001085763797164,  0.0342501364648342 ]
  - [  -0.0000582374632359,  0.0001025893725455,  0.0342265889048576 ]
  - [  -0.0000589796400163,  0.0001146886497736,  0.0342744961380959 ]
  - [  -0.0000417018309236,  0.0001071123406291,  0.0342519544064999 ]
  - [  -0.0000598980113864,  0.0001215143129230,  0.0342738069593906 ]
  - [  -0.0000606350658927,  0.0000925501808524,  0.0342294760048389 ]
  - [  -0.0005537895485759, -0.0001711508957669,  0.0014416025951505 ]
  - [  -0.0000545782968402, -0.0002025172288995,  0.0015773740597069 ]
  - [  -0.0000546411538380, -0.0001419762556907,  0.0013136519119143 ]
  - [  -0.0005557155236602, -0.0001761507010087,  0.0014424053952098 ]
  - [  -0.0000542546622455, -0.0001428968680557,  0.0015784278512001 ]
  - [  -0.0000543258029211, -0.0002039545215666,  0.0013112165033817 ]
  - [  -0.0002372195012867, -0.0001730596413836,  0.0014458196237683 ]
  - [  -0.0002859546802938, -0.0001728819333948,  0.0014273431152105 ]
  - [  -0.0002855041529983, -0.0001730915682856,  0.0014647026546299 ]
  - [  -0.0008111731149256, -0.0001732326054480,  0.0014527728781104 ]
  - [   0.0002199481241405, -0.0001738731807563,  0.0009493408724666 ]
  - [   0.0002243506314699, -0.0001724899193505,  0.0019508232362568 ]
  - [  -0.0002727573737502, -0.0001733139506541,  0.0014462769031525 ]
  - [  -0.0002634609118104, -0.0001757126301527,  0.0014386568218470 ]
  - [  -0.0002624089247547, -0.0001716820406727,  0.0014552157372236 ]
  - [  -0.0002764048986137, -0.0001747043716023,  0.0014477334916592 ]
  - [  -0.0002644560299814, -0.0001716524420772,  0.0014378540217876 ]
  - [  -0.0002649586240295, -0.0001773339463398,  0.0014586159959435 ]
  - [   0.0012894012033939,  0.0009325288701802, -0.0306180343031883 ]
  - [   0.0011993013322353,  0.0009421135764569, -0.0306178350001574 ]
  - [   0.0011984141310677,  0.0009242154192179, -0.0306187644600868 ]
  - [   0.0009527793154120,  0.0009318366646767, -0.0306194927543402 ]
  - [   0.0015215510502458,  0.0009323049453087, -0.0303165502846241 ]
  - [   0.0015224113594741,  0.0009304622071795, -0.0309203173965216 ]
  - [   0.0012886179611087,  0.0009330302127637, -0.0306175798177719 ]
  - [   0.0012001516297460,  0.0009216442704201, -0.0306138675659895 ]
  - [   0.0011997777037323,  0.0009411859791726, -0.0306206233799458 ]
  - [   0.0010610278695822,  0.0009384345030412, -0.0306138861924410 ]
  - [   0.0015540011227131,  0.0008033503545448, -0.0307121425867081 ]
  - [   0.0015536322025582,  0.0010650604963303, -0.0305242203176022 ]
  - [   0.0010594232007861,  0.0009266034467146, -0.0306126140058041 ]
  - [   0.0015524066984653,  0.0010612581390887, -0.0307099968194962 ]
  - [   0.0015523792244494,  0.0007997493958101, -0.0305239614099264 ]
  - [   0.0011819023638964,  0.0009328272426501, -0.0306171309202909 ]
  - [   0.0012455405667424,  0.0009324571583420, -0.0305982194840908 ]
  - [   0.0012454905081540,  0.0009329005843028, -0.0306367687880993 ]
  - [  -0.0008610003278591, -0.0010463624494150, -0.0011677229776978 ]
  - [  -0.0008354226592928, -0.0010510192951187, -0.0062546599656343 ]