# Thermal properties / unit cell (natom)

unit:
  temperature:   K
  free_energy:   kJ/mol
  entropy:       J/K/mol
  heat_capacity: J/K/mol

natom: 6    
cutoff_frequency: 0.00000
num_modes: 165600
num_integrated_modes: 164323

zero_point_energy:      16.9171390

thermal_properties:
- temperature:         0.0000000
  free_energy:        16.9171390
  entropy:             0.0000000
  heat_capacity:       0.0000000
  energy:             16.9171390

- temperature:        10.0000000
  free_energy:        16.9109598
  entropy:             1.7709690
  heat_capacity:       3.4462344
  energy:             16.9286695

- temperature:        20.0000000
  free_energy:        16.8678536
  entropy:             7.6871583
  heat_capacity:      16.6539430
  energy:             17.0215967

- temperature:        30.0000000
  free_energy:        16.7438285
  entropy:            17.5434730
  heat_capacity:      32.7151757
  energy:             17.2701327

- temperature:        40.0000000
  free_energy:        16.5124250
  entropy:            28.8264833
  heat_capacity:      45.8550850
  energy:             17.6654844

- temperature:        50.0000000
  free_energy:        16.1669145
  entropy:            40.2535902
  heat_capacity:      56.6958746
  energy:             18.1795940

- temperature:        60.0000000
  free_energy:        15.7081314
  entropy:            51.4551737
  heat_capacity:      66.3225499
  energy:             18.7954419

- temperature:        70.0000000
  free_energy:        15.1388354
  entropy:            62.3508168
  heat_capacity:      75.1421019
  energy:             19.5033925

- temperature:        80.0000000
  free_energy:        14.4622061
  entropy:            72.9192135
  heat_capacity:      83.1975412
  energy:             20.2957432

- temperature:        90.0000000
  free_energy:        13.6815923
  entropy:            83.1452904
  heat_capacity:      90.4517398
  energy:             21.1646685

- temperature:       100.0000000
  free_energy:        12.8004861
  entropy:            93.0158223
  heat_capacity:      96.8945346
  energy:             22.1020683

- temperature:       110.0000000
  free_energy:        11.8224896
  entropy:           102.5224560
  heat_capacity:     102.5585093
  energy:             23.0999598

- temperature:       120.0000000
  free_energy:        10.7512570
  entropy:           111.6632664
  heat_capacity:     107.5060934
  energy:             24.1508490

- temperature:       130.0000000
  free_energy:         9.5904303
  entropy:           120.4424482
  heat_capacity:     111.8138131
  energy:             25.2479485

- temperature:       140.0000000
  free_energy:         8.3435836
  entropy:           128.8690952
  heat_capacity:     115.5608765
  energy:             26.3852569

- temperature:       150.0000000
  free_energy:         7.0141818
  entropy:           136.9557798
  heat_capacity:     118.8225088
  energy:             27.5575488

- temperature:       160.0000000
  free_energy:         5.6055521
  entropy:           144.7172788
  heat_capacity:     121.6667368
  energy:             28.7603167

- temperature:       170.0000000
  free_energy:         4.1208670
  entropy:           152.1695601
  heat_capacity:     124.1532999
  energy:             29.9896922

- temperature:       180.0000000
  free_energy:         2.5631369
  entropy:           159.3290344
  heat_capacity:     126.3337321
  energy:             31.2423631

- temperature:       190.0000000
  free_energy:         0.9352079
  entropy:           166.2120312
  heat_capacity:     128.2520170
  energy:             32.5154938

- temperature:       200.0000000
  free_energy:        -0.7602352
  entropy:           172.8344491
  heat_capacity:     129.9454671
  energy:             33.8066546

- temperature:       210.0000000
  free_energy:        -2.5206635
  entropy:           179.2115374
  heat_capacity:     131.4456413
  energy:             35.1137594

- temperature:       220.0000000
  free_energy:        -4.3436966
  entropy:           185.3577685
  heat_capacity:     132.7792076
  energy:             36.4350125

- temperature:       230.0000000
  free_energy:        -6.2270948
  entropy:           191.2867764
  heat_capacity:     133.9687130
  energy:             37.7688637

- temperature:       240.0000000
  free_energy:        -8.1687507
  entropy:           197.0113384
  heat_capacity:     135.0332483
  energy:             39.1139705

- temperature:       250.0000000
  free_energy:       -10.1666800
  entropy:           202.5433855
  heat_capacity:     135.9890126
  energy:             40.4691664

- temperature:       260.0000000
  free_energy:       -12.2190138
  entropy:           207.8940315
  heat_capacity:     136.8497870
  energy:             41.8334344

- temperature:       270.0000000
  free_energy:       -14.3239905
  entropy:           213.0736125
  heat_capacity:     137.6273295
  energy:             43.2058849

- temperature:       280.0000000
  free_energy:       -16.4799479
  entropy:           218.0917327
  heat_capacity:     138.3317026
  energy:             44.5857372

- temperature:       290.0000000
  free_energy:       -18.6853167
  entropy:           222.9573128
  heat_capacity:     138.9715452
  energy:             45.9723040

- temperature:       300.0000000
  free_energy:       -20.9386134
  entropy:           227.6786378
  heat_capacity:     139.5542979
  energy:             47.3649779

- temperature:       310.0000000
  free_energy:       -23.2384344
  entropy:           232.2634049
  heat_capacity:     140.0863897
  energy:             48.7632212

- temperature:       320.0000000
  free_energy:       -25.5834502
  entropy:           236.7187679
  heat_capacity:     140.5733934
  energy:             50.1665555

- temperature:       330.0000000
  free_energy:       -27.9724006
  entropy:           241.0513805
  heat_capacity:     141.0201547
  energy:             51.5745549

- temperature:       340.0000000
  free_energy:       -30.4040893
  entropy:           245.2674352
  heat_capacity:     141.4309001
  energy:             52.9868386

- temperature:       350.0000000
  free_energy:       -32.8773801
  entropy:           249.3727009
  heat_capacity:     141.8093272
  energy:             54.4030653

- temperature:       360.0000000
  free_energy:       -35.3911920
  entropy:           253.3725565
  heat_capacity:     142.1586802
  energy:             55.8229283

- temperature:       370.0000000
  free_energy:       -37.9444966
  entropy:           257.2720219
  heat_capacity:     142.4818138
  energy:             57.2461515

- temperature:       380.0000000
  free_energy:       -40.5363135
  entropy:           261.0757871
  heat_capacity:     142.7812466
  energy:             58.6724856

- temperature:       390.0000000
  free_energy:       -43.1657080
  entropy:           264.7882381
  heat_capacity:     143.0592069
  energy:             60.1017049

- temperature:       400.0000000
  free_energy:       -45.8317876
  entropy:           268.4134809
  heat_capacity:     143.3176711
  energy:             61.5336048

- temperature:       410.0000000
  free_energy:       -48.5336998
  entropy:           271.9553633
  heat_capacity:     143.5583966
  energy:             62.9679992

- temperature:       420.0000000
  free_energy:       -51.2706291
  entropy:           275.4174949
  heat_capacity:     143.7829499
  energy:             64.4047188

- temperature:       430.0000000
  free_energy:       -54.0417951
  entropy:           278.8032654
  heat_capacity:     143.9927305
  energy:             65.8436090

- temperature:       440.0000000
  free_energy:       -56.8464505
  entropy:           282.1158610
  heat_capacity:     144.1889915
  energy:             67.2845284

- temperature:       450.0000000
  free_energy:       -59.6838785
  entropy:           285.3582799
  heat_capacity:     144.3728576
  energy:             68.7273475

- temperature:       460.0000000
  free_energy:       -62.5533916
  entropy:           288.5333460
  heat_capacity:     144.5453401
  energy:             70.1719476

- temperature:       470.0000000
  free_energy:       -65.4543298
  entropy:           291.6437216
  heat_capacity:     144.7073504
  energy:             71.6182194

- temperature:       480.0000000
  free_energy:       -68.3860588
  entropy:           294.6919192
  heat_capacity:     144.8597113
  energy:             73.0660624

- temperature:       490.0000000
  free_energy:       -71.3479688
  entropy:           297.6803118
  heat_capacity:     145.0031673
  energy:             74.5153840

- temperature:       500.0000000
  free_energy:       -74.3394731
  entropy:           300.6111430
  heat_capacity:     145.1383929
  energy:             75.9660984

- temperature:       510.0000000
  free_energy:       -77.3600069
  entropy:           303.4865359
  heat_capacity:     145.2660006
  energy:             77.4181264

- temperature:       520.0000000
  free_energy:       -80.4090258
  entropy:           306.3085012
  heat_capacity:     145.3865475
  energy:             78.8713948

- temperature:       530.0000000
  free_energy:       -83.4860052
  entropy:           309.0789448
  heat_capacity:     145.5005410
  energy:             80.3258356

- temperature:       540.0000000
  free_energy:       -86.5904390
  entropy:           311.7996747
  heat_capacity:     145.6084442
  energy:             81.7813854

- temperature:       550.0000000
  free_energy:       -89.7218387
  entropy:           314.4724077
  heat_capacity:     145.7106801
  energy:             83.2379855

- temperature:       560.0000000
  free_energy:       -92.8797326
  entropy:           317.0987749
  heat_capacity:     145.8076362
  energy:             84.6955814

- temperature:       570.0000000
  free_energy:       -96.0636648
  entropy:           319.6803275
  heat_capacity:     145.8996672
  energy:             86.1541219

- temperature:       580.0000000
  free_energy:       -99.2731947
  entropy:           322.2185415
  heat_capacity:     145.9870992
  energy:             87.6135594

- temperature:       590.0000000
  free_energy:      -102.5078959
  entropy:           324.7148227
  heat_capacity:     146.0702317
  energy:             89.0738495

- temperature:       600.0000000
  free_energy:      -105.7673558
  entropy:           327.1705108
  heat_capacity:     146.1493402
  energy:             90.5349506

- temperature:       610.0000000
  free_energy:      -109.0511750
  entropy:           329.5868833
  heat_capacity:     146.2246789
  energy:             91.9968238

- temperature:       620.0000000
  free_energy:      -112.3589665
  entropy:           331.9651596
  heat_capacity:     146.2964822
  energy:             93.4594324

- temperature:       630.0000000
  free_energy:      -115.6903551
  entropy:           334.3065039
  heat_capacity:     146.3649667
  energy:             94.9227423

- temperature:       640.0000000
  free_energy:      -119.0449772
  entropy:           336.6120290
  heat_capacity:     146.4303328
  energy:             96.3867214

- temperature:       650.0000000
  free_energy:      -122.4224799
  entropy:           338.8827986
  heat_capacity:     146.4927659
  energy:             97.8513392

- temperature:       660.0000000
  free_energy:      -125.8225207
  entropy:           341.1198306
  heat_capacity:     146.5524381
  energy:             99.3165675

- temperature:       670.0000000
  free_energy:      -129.2447673
  entropy:           343.3240994
  heat_capacity:     146.6095091
  energy:            100.7823793

- temperature:       680.0000000
  free_energy:      -132.6888966
  entropy:           345.4965384
  heat_capacity:     146.6641271
  energy:            102.2487495

- temperature:       690.0000000
  free_energy:      -136.1545949
  entropy:           347.6380421
  heat_capacity:     146.7164302
  energy:            103.7156541

- temperature:       700.0000000
  free_energy:      -139.6415572
  entropy:           349.7494686
  heat_capacity:     146.7665466
  energy:            105.1830708

- temperature:       710.0000000
  free_energy:      -143.1494868
  entropy:           351.8316408
  heat_capacity:     146.8145962
  energy:            106.6509782

- temperature:       720.0000000
  free_energy:      -146.6780951
  entropy:           353.8853491
  heat_capacity:     146.8606906
  energy:            108.1193562

- temperature:       730.0000000
  free_energy:      -150.2271014
  entropy:           355.9113524
  heat_capacity:     146.9049340
  energy:            109.5881858

- temperature:       740.0000000
  free_energy:      -153.7962323
  entropy:           357.9103802
  heat_capacity:     146.9474237
  energy:            111.0574490

- temperature:       750.0000000
  free_energy:      -157.3852215
  entropy:           359.8831336
  heat_capacity:     146.9882510
  energy:            112.5271288

- temperature:       760.0000000
  free_energy:      -160.9938096
  entropy:           361.8302874
  heat_capacity:     147.0275012
  energy:            113.9972088

- temperature:       770.0000000
  free_energy:      -164.6217440
  entropy:           363.7524907
  heat_capacity:     147.0652540
  energy:            115.4676738

- temperature:       780.0000000
  free_energy:      -168.2687784
  entropy:           365.6503686
  heat_capacity:     147.1015845
  energy:            116.9385091

- temperature:       790.0000000
  free_energy:      -171.9346723
  entropy:           367.5245232
  heat_capacity:     147.1365629
  energy:            118.4097010

- temperature:       800.0000000
  free_energy:      -175.6191917
  entropy:           369.3755347
  heat_capacity:     147.1702554
  energy:            119.8812361

- temperature:       810.0000000
  free_energy:      -179.3221078
  entropy:           371.2039627
  heat_capacity:     147.2027239
  energy:            121.3531020

- temperature:       820.0000000
  free_energy:      -183.0431974
  entropy:           373.0103465
  heat_capacity:     147.2340270
  energy:            122.8252867

- temperature:       830.0000000
  free_energy:      -186.7822429
  entropy:           374.7952070
  heat_capacity:     147.2642194
  energy:            124.2977788

- temperature:       840.0000000
  free_energy:      -190.5390315
  entropy:           376.5590465
  heat_capacity:     147.2933530
  energy:            125.7705676

- temperature:       850.0000000
  free_energy:      -194.3133554
  entropy:           378.3023505
  heat_capacity:     147.3214766
  energy:            127.2436425

- temperature:       860.0000000
  free_energy:      -198.1050116
  entropy:           380.0255878
  heat_capacity:     147.3486361
  energy:            128.7169939

- temperature:       870.0000000
  free_energy:      -201.9138018
  entropy:           381.7292115
  heat_capacity:     147.3748751
  energy:            130.1906122

- temperature:       880.0000000
  free_energy:      -205.7395320
  entropy:           383.4136596
  heat_capacity:     147.4002345
  energy:            131.6644885

- temperature:       890.0000000
  free_energy:      -209.5820125
  entropy:           385.0793557
  heat_capacity:     147.4247532
  energy:            133.1386141

- temperature:       900.0000000
  free_energy:      -213.4410579
  entropy:           386.7267097
  heat_capacity:     147.4484677
  energy:            134.6129808

- temperature:       910.0000000
  free_energy:      -217.3164869
  entropy:           388.3561184
  heat_capacity:     147.4714128
  energy:            136.0875809

- temperature:       920.0000000
  free_energy:      -221.2081218
  entropy:           389.9679657
  heat_capacity:     147.4936214
  energy:            137.5624066

- temperature:       930.0000000
  free_energy:      -225.1157889
  entropy:           391.5626235
  heat_capacity:     147.5151244
  energy:            139.0374509

- temperature:       940.0000000
  free_energy:      -229.0393181
  entropy:           393.1404521
  heat_capacity:     147.5359515
  energy:            140.5127069

- temperature:       950.0000000
  free_energy:      -232.9785430
  entropy:           394.7018008
  heat_capacity:     147.5561306
  energy:            141.9881678

- temperature:       960.0000000
  free_energy:      -236.9333003
  entropy:           396.2470081
  heat_capacity:     147.5756882
  energy:            143.4638274

- temperature:       970.0000000
  free_energy:      -240.9034304
  entropy:           397.7764021
  heat_capacity:     147.5946496
  energy:            144.9396796

- temperature:       980.0000000
  free_energy:      -244.8887767
  entropy:           399.2903013
  heat_capacity:     147.6130387
  energy:            146.4157185

- temperature:       990.0000000
  free_energy:      -248.8891858
  entropy:           400.7890145
  heat_capacity:     147.6308782
  energy:            147.8919385

- temperature:      1000.0000000
  free_energy:      -252.9045074
  entropy:           402.2728417
  heat_capacity:     147.6481898
  energy:            149.3683343
