phonopy:
  version: "2.37.1"
  frequency_unit_conversion_factor: 15.633302
  symmetry_tolerance: 1.00000e-05

space_group:
  type: "P1"
  number: 1
  Hall_symbol: "P 1"

primitive_matrix:
- [ -0.000000000000000, -1.000000000000000, -0.000000000000000 ]
- [  1.000000000000000,  0.000000000000000,  0.000000000000000 ]
- [  0.000000000000000,  0.000000000000000,  1.000000000000000 ]

supercell_matrix:
- [   3,   0,   0 ]
- [   0,   3,   0 ]
- [   0,   0,   1 ]

primitive_cell:
  lattice:
  - [     0.000959456073603,     4.216374185161415,     0.000000000000000 ] # a
  - [    -4.235374122881616,     0.000000000000000,     0.000000000000000 ] # b
  - [     0.000474105749810,    -2.088200805438952,    10.518975048981023 ] # c
  points:
  - symbol: Li # 1
    coordinates: [  0.375199342104483,  0.345621178155711,  0.578893599568759 ]
    mass: 6.940000
  - symbol: Li # 2
    coordinates: [  0.678015950779771,  0.845795375686428,  0.187650223145624 ]
    mass: 6.940000
  - symbol: Li # 3
    coordinates: [  0.081595634958485,  0.845957258861169,  0.994165593403778 ]
    mass: 6.940000
  - symbol: Li # 4
    coordinates: [  0.481983451971435,  0.845977937815250,  0.794365260447393 ]
    mass: 6.940000
  - symbol: Ga # 5
    coordinates: [  0.274303136540507,  0.845819601655010,  0.377762366032329 ]
    mass: 69.723000
  - symbol: Ga # 6
    coordinates: [  0.774612831813708,  0.345807212835481,  0.382254422188131 ]
    mass: 69.723000
  - symbol: Ga # 7
    coordinates: [  0.982214790534350,  0.345960364713356,  0.792184107018334 ]
    mass: 69.723000
  - symbol: Ga # 8
    coordinates: [  0.181290049669188,  0.346040029504671,  0.196630939877150 ]
    mass: 69.723000
  - symbol: Sn # 9
    coordinates: [  0.883940534011459,  0.845806390446929,  0.597189038693977 ]
    mass: 118.710000
  - symbol: Sn # 10
    coordinates: [  0.577418753680335,  0.346007351436778,  0.985989410569956 ]
    mass: 118.710000
  reciprocal_lattice: # without 2pi
  - [    -0.000000000000000,     0.237170601110138,     0.047082518777588 ] # a*
  - [    -0.236106651027001,     0.000053727195547,     0.000021307465109 ] # b*
  - [    -0.000000000000000,     0.000000000000000,     0.095066296416101 ] # c*

unit_cell:
  lattice:
  - [     4.235374122881616,     0.000000000000000,     0.000000000000000 ] # a
  - [     0.000959456073603,     4.216374185161416,     0.000000000000000 ] # b
  - [     0.000474105749811,    -2.088200805438952,    10.518975048981023 ] # c
  points:
  - symbol: Li # 1
    coordinates: [  0.654378821844289,  0.375199342104483,  0.578893599568759 ]
    mass: 6.940000
    reduced_to: 1
  - symbol: Li # 2
    coordinates: [  0.154204624313572,  0.678015950779771,  0.187650223145624 ]
    mass: 6.940000
    reduced_to: 2
  - symbol: Li # 3
    coordinates: [  0.154042741138831,  0.081595634958485,  0.994165593403778 ]
    mass: 6.940000
    reduced_to: 3
  - symbol: Li # 4
    coordinates: [  0.154022062184750,  0.481983451971435,  0.794365260447393 ]
    mass: 6.940000
    reduced_to: 4
  - symbol: Ga # 5
    coordinates: [  0.154180398344990,  0.274303136540507,  0.377762366032329 ]
    mass: 69.723000
    reduced_to: 5
  - symbol: Ga # 6
    coordinates: [  0.654192787164519,  0.774612831813708,  0.382254422188131 ]
    mass: 69.723000
    reduced_to: 6
  - symbol: Ga # 7
    coordinates: [  0.654039635286644,  0.982214790534350,  0.792184107018334 ]
    mass: 69.723000
    reduced_to: 7
  - symbol: Ga # 8
    coordinates: [  0.653959970495329,  0.181290049669189,  0.196630939877150 ]
    mass: 69.723000
    reduced_to: 8
  - symbol: Sn # 9
    coordinates: [  0.154193609553071,  0.883940534011459,  0.597189038693977 ]
    mass: 118.710000
    reduced_to: 9
  - symbol: Sn # 10
    coordinates: [  0.653992648563222,  0.577418753680335,  0.985989410569956 ]
    mass: 118.710000
    reduced_to: 10

supercell:
  lattice:
  - [    12.706122368644849,     0.000000000000000,     0.000000000000000 ] # a
  - [     0.002878368220809,    12.649122555484247,     0.000000000000000 ] # b
  - [     0.000474105749811,    -2.088200805438952,    10.518975048981023 ] # c
  points:
  - symbol: Li # 1
    coordinates: [  0.218126273948096,  0.125066447368161,  0.578893599568759 ]
    mass: 6.940000
    reduced_to: 1
  - symbol: Li # 2
    coordinates: [  0.551459607281430,  0.125066447368161,  0.578893599568759 ]
    mass: 6.940000
    reduced_to: 1
  - symbol: Li # 3
    coordinates: [  0.884792940614763,  0.125066447368161,  0.578893599568759 ]
    mass: 6.940000
    reduced_to: 1
  - symbol: Li # 4
    coordinates: [  0.218126273948096,  0.458399780701494,  0.578893599568759 ]
    mass: 6.940000
    reduced_to: 1
  - symbol: Li # 5
    coordinates: [  0.551459607281430,  0.458399780701494,  0.578893599568759 ]
    mass: 6.940000
    reduced_to: 1
  - symbol: Li # 6
    coordinates: [  0.884792940614763,  0.458399780701494,  0.578893599568759 ]
    mass: 6.940000
    reduced_to: 1
  - symbol: Li # 7
    coordinates: [  0.218126273948096,  0.791733114034828,  0.578893599568759 ]
    mass: 6.940000
    reduced_to: 1
  - symbol: Li # 8
    coordinates: [  0.551459607281430,  0.791733114034828,  0.578893599568759 ]
    mass: 6.940000
    reduced_to: 1
  - symbol: Li # 9
    coordinates: [  0.884792940614763,  0.791733114034828,  0.578893599568759 ]
    mass: 6.940000
    reduced_to: 1
  - symbol: Li # 10
    coordinates: [  0.051401541437857,  0.226005316926590,  0.187650223145624 ]
    mass: 6.940000
    reduced_to: 10
  - symbol: Li # 11
    coordinates: [  0.384734874771191,  0.226005316926590,  0.187650223145624 ]
    mass: 6.940000
    reduced_to: 10
  - symbol: Li # 12
    coordinates: [  0.718068208104524,  0.226005316926590,  0.187650223145624 ]
    mass: 6.940000
    reduced_to: 10
  - symbol: Li # 13
    coordinates: [  0.051401541437857,  0.559338650259924,  0.187650223145624 ]
    mass: 6.940000
    reduced_to: 10
  - symbol: Li # 14
    coordinates: [  0.384734874771191,  0.559338650259924,  0.187650223145624 ]
    mass: 6.940000
    reduced_to: 10
  - symbol: Li # 15
    coordinates: [  0.718068208104524,  0.559338650259924,  0.187650223145624 ]
    mass: 6.940000
    reduced_to: 10
  - symbol: Li # 16
    coordinates: [  0.051401541437857,  0.892671983593257,  0.187650223145624 ]
    mass: 6.940000
    reduced_to: 10
  - symbol: Li # 17
    coordinates: [  0.384734874771191,  0.892671983593257,  0.187650223145624 ]
    mass: 6.940000
    reduced_to: 10
  - symbol: Li # 18
    coordinates: [  0.718068208104524,  0.892671983593257,  0.187650223145624 ]
    mass: 6.940000
    reduced_to: 10
  - symbol: Li # 19
    coordinates: [  0.051347580379610,  0.027198544986162,  0.994165593403778 ]
    mass: 6.940000
    reduced_to: 19
  - symbol: Li # 20
    coordinates: [  0.384680913712944,  0.027198544986162,  0.994165593403778 ]
    mass: 6.940000
    reduced_to: 19
  - symbol: Li # 21
    coordinates: [  0.718014247046277,  0.027198544986162,  0.994165593403778 ]
    mass: 6.940000
    reduced_to: 19
  - symbol: Li # 22
    coordinates: [  0.051347580379610,  0.360531878319495,  0.994165593403778 ]
    mass: 6.940000
    reduced_to: 19
  - symbol: Li # 23
    coordinates: [  0.384680913712944,  0.360531878319495,  0.994165593403778 ]
    mass: 6.940000
    reduced_to: 19
  - symbol: Li # 24
    coordinates: [  0.718014247046277,  0.360531878319495,  0.994165593403778 ]
    mass: 6.940000
    reduced_to: 19
  - symbol: Li # 25
    coordinates: [  0.051347580379610,  0.693865211652828,  0.994165593403778 ]
    mass: 6.940000
    reduced_to: 19
  - symbol: Li # 26
    coordinates: [  0.384680913712944,  0.693865211652828,  0.994165593403778 ]
    mass: 6.940000
    reduced_to: 19
  - symbol: Li # 27
    coordinates: [  0.718014247046277,  0.693865211652828,  0.994165593403778 ]
    mass: 6.940000
    reduced_to: 19
  - symbol: Li # 28
    coordinates: [  0.051340687394917,  0.160661150657145,  0.794365260447393 ]
    mass: 6.940000
    reduced_to: 28
  - symbol: Li # 29
    coordinates: [  0.384674020728250,  0.160661150657145,  0.794365260447393 ]
    mass: 6.940000
    reduced_to: 28
  - symbol: Li # 30
    coordinates: [  0.718007354061583,  0.160661150657145,  0.794365260447393 ]
    mass: 6.940000
    reduced_to: 28
  - symbol: Li # 31
    coordinates: [  0.051340687394917,  0.493994483990478,  0.794365260447393 ]
    mass: 6.940000
    reduced_to: 28
  - symbol: Li # 32
    coordinates: [  0.384674020728250,  0.493994483990478,  0.794365260447393 ]
    mass: 6.940000
    reduced_to: 28
  - symbol: Li # 33
    coordinates: [  0.718007354061583,  0.493994483990478,  0.794365260447393 ]
    mass: 6.940000
    reduced_to: 28
  - symbol: Li # 34
    coordinates: [  0.051340687394917,  0.827327817323812,  0.794365260447393 ]
    mass: 6.940000
    reduced_to: 28
  - symbol: Li # 35
    coordinates: [  0.384674020728250,  0.827327817323812,  0.794365260447393 ]
    mass: 6.940000
    reduced_to: 28
  - symbol: Li # 36
    coordinates: [  0.718007354061583,  0.827327817323812,  0.794365260447393 ]
    mass: 6.940000
    reduced_to: 28
  - symbol: Ga # 37
    coordinates: [  0.051393466114997,  0.091434378846836,  0.377762366032329 ]
    mass: 69.723000
    reduced_to: 37
  - symbol: Ga # 38
    coordinates: [  0.384726799448330,  0.091434378846836,  0.377762366032329 ]
    mass: 69.723000
    reduced_to: 37
  - symbol: Ga # 39
    coordinates: [  0.718060132781663,  0.091434378846836,  0.377762366032329 ]
    mass: 69.723000
    reduced_to: 37
  - symbol: Ga # 40
    coordinates: [  0.051393466114997,  0.424767712180169,  0.377762366032329 ]
    mass: 69.723000
    reduced_to: 37
  - symbol: Ga # 41
    coordinates: [  0.384726799448330,  0.424767712180169,  0.377762366032329 ]
    mass: 69.723000
    reduced_to: 37
  - symbol: Ga # 42
    coordinates: [  0.718060132781663,  0.424767712180169,  0.377762366032329 ]
    mass: 69.723000
    reduced_to: 37
  - symbol: Ga # 43
    coordinates: [  0.051393466114997,  0.758101045513502,  0.377762366032329 ]
    mass: 69.723000
    reduced_to: 37
  - symbol: Ga # 44
    coordinates: [  0.384726799448330,  0.758101045513502,  0.377762366032329 ]
    mass: 69.723000
    reduced_to: 37
  - symbol: Ga # 45
    coordinates: [  0.718060132781663,  0.758101045513502,  0.377762366032329 ]
    mass: 69.723000
    reduced_to: 37
  - symbol: Ga # 46
    coordinates: [  0.218064262388173,  0.258204277271236,  0.382254422188131 ]
    mass: 69.723000
    reduced_to: 46
  - symbol: Ga # 47
    coordinates: [  0.551397595721506,  0.258204277271236,  0.382254422188131 ]
    mass: 69.723000
    reduced_to: 46
  - symbol: Ga # 48
    coordinates: [  0.884730929054840,  0.258204277271236,  0.382254422188131 ]
    mass: 69.723000
    reduced_to: 46
  - symbol: Ga # 49
    coordinates: [  0.218064262388173,  0.591537610604569,  0.382254422188131 ]
    mass: 69.723000
    reduced_to: 46
  - symbol: Ga # 50
    coordinates: [  0.551397595721506,  0.591537610604569,  0.382254422188131 ]
    mass: 69.723000
    reduced_to: 46
  - symbol: Ga # 51
    coordinates: [  0.884730929054840,  0.591537610604569,  0.382254422188131 ]
    mass: 69.723000
    reduced_to: 46
  - symbol: Ga # 52
    coordinates: [  0.218064262388173,  0.924870943937903,  0.382254422188131 ]
    mass: 69.723000
    reduced_to: 46
  - symbol: Ga # 53
    coordinates: [  0.551397595721506,  0.924870943937903,  0.382254422188131 ]
    mass: 69.723000
    reduced_to: 46
  - symbol: Ga # 54
    coordinates: [  0.884730929054840,  0.924870943937903,  0.382254422188131 ]
    mass: 69.723000
    reduced_to: 46
  - symbol: Ga # 55
    coordinates: [  0.218013211762215,  0.327404930178117,  0.792184107018334 ]
    mass: 69.723000
    reduced_to: 55
  - symbol: Ga # 56
    coordinates: [  0.551346545095548,  0.327404930178117,  0.792184107018334 ]
    mass: 69.723000
    reduced_to: 55
  - symbol: Ga # 57
    coordinates: [  0.884679878428881,  0.327404930178117,  0.792184107018334 ]
    mass: 69.723000
    reduced_to: 55
  - symbol: Ga # 58
    coordinates: [  0.218013211762215,  0.660738263511450,  0.792184107018334 ]
    mass: 69.723000
    reduced_to: 55
  - symbol: Ga # 59
    coordinates: [  0.551346545095548,  0.660738263511450,  0.792184107018334 ]
    mass: 69.723000
    reduced_to: 55
  - symbol: Ga # 60
    coordinates: [  0.884679878428881,  0.660738263511450,  0.792184107018334 ]
    mass: 69.723000
    reduced_to: 55
  - symbol: Ga # 61
    coordinates: [  0.218013211762215,  0.994071596844783,  0.792184107018334 ]
    mass: 69.723000
    reduced_to: 55
  - symbol: Ga # 62
    coordinates: [  0.551346545095548,  0.994071596844783,  0.792184107018334 ]
    mass: 69.723000
    reduced_to: 55
  - symbol: Ga # 63
    coordinates: [  0.884679878428881,  0.994071596844783,  0.792184107018334 ]
    mass: 69.723000
    reduced_to: 55
  - symbol: Ga # 64
    coordinates: [  0.217986656831776,  0.060430016556396,  0.196630939877150 ]
    mass: 69.723000
    reduced_to: 64
  - symbol: Ga # 65
    coordinates: [  0.551319990165110,  0.060430016556396,  0.196630939877150 ]
    mass: 69.723000
    reduced_to: 64
  - symbol: Ga # 66
    coordinates: [  0.884653323498443,  0.060430016556396,  0.196630939877150 ]
    mass: 69.723000
    reduced_to: 64
  - symbol: Ga # 67
    coordinates: [  0.217986656831776,  0.393763349889729,  0.196630939877150 ]
    mass: 69.723000
    reduced_to: 64
  - symbol: Ga # 68
    coordinates: [  0.551319990165110,  0.393763349889729,  0.196630939877150 ]
    mass: 69.723000
    reduced_to: 64
  - symbol: Ga # 69
    coordinates: [  0.884653323498443,  0.393763349889729,  0.196630939877150 ]
    mass: 69.723000
    reduced_to: 64
  - symbol: Ga # 70
    coordinates: [  0.217986656831776,  0.727096683223063,  0.196630939877150 ]
    mass: 69.723000
    reduced_to: 64
  - symbol: Ga # 71
    coordinates: [  0.551319990165110,  0.727096683223063,  0.196630939877150 ]
    mass: 69.723000
    reduced_to: 64
  - symbol: Ga # 72
    coordinates: [  0.884653323498443,  0.727096683223063,  0.196630939877150 ]
    mass: 69.723000
    reduced_to: 64
  - symbol: Sn # 73
    coordinates: [  0.051397869851024,  0.294646844670486,  0.597189038693977 ]
    mass: 118.710000
    reduced_to: 73
  - symbol: Sn # 74
    coordinates: [  0.384731203184357,  0.294646844670486,  0.597189038693977 ]
    mass: 118.710000
    reduced_to: 73
  - symbol: Sn # 75
    coordinates: [  0.718064536517690,  0.294646844670486,  0.597189038693977 ]
    mass: 118.710000
    reduced_to: 73
  - symbol: Sn # 76
    coordinates: [  0.051397869851024,  0.627980178003819,  0.597189038693977 ]
    mass: 118.710000
    reduced_to: 73
  - symbol: Sn # 77
    coordinates: [  0.384731203184357,  0.627980178003819,  0.597189038693977 ]
    mass: 118.710000
    reduced_to: 73
  - symbol: Sn # 78
    coordinates: [  0.718064536517690,  0.627980178003819,  0.597189038693977 ]
    mass: 118.710000
    reduced_to: 73
  - symbol: Sn # 79
    coordinates: [  0.051397869851024,  0.961313511337153,  0.597189038693977 ]
    mass: 118.710000
    reduced_to: 73
  - symbol: Sn # 80
    coordinates: [  0.384731203184357,  0.961313511337153,  0.597189038693977 ]
    mass: 118.710000
    reduced_to: 73
  - symbol: Sn # 81
    coordinates: [  0.718064536517690,  0.961313511337153,  0.597189038693977 ]
    mass: 118.710000
    reduced_to: 73
  - symbol: Sn # 82
    coordinates: [  0.217997549521074,  0.192472917893445,  0.985989410569956 ]
    mass: 118.710000
    reduced_to: 82
  - symbol: Sn # 83
    coordinates: [  0.551330882854407,  0.192472917893445,  0.985989410569956 ]
    mass: 118.710000
    reduced_to: 82
  - symbol: Sn # 84
    coordinates: [  0.884664216187741,  0.192472917893445,  0.985989410569956 ]
    mass: 118.710000
    reduced_to: 82
  - symbol: Sn # 85
    coordinates: [  0.217997549521074,  0.525806251226778,  0.985989410569956 ]
    mass: 118.710000
    reduced_to: 82
  - symbol: Sn # 86
    coordinates: [  0.551330882854407,  0.525806251226778,  0.985989410569956 ]
    mass: 118.710000
    reduced_to: 82
  - symbol: Sn # 87
    coordinates: [  0.884664216187741,  0.525806251226778,  0.985989410569956 ]
    mass: 118.710000
    reduced_to: 82
  - symbol: Sn # 88
    coordinates: [  0.217997549521074,  0.859139584560112,  0.985989410569956 ]
    mass: 118.710000
    reduced_to: 82
  - symbol: Sn # 89
    coordinates: [  0.551330882854407,  0.859139584560112,  0.985989410569956 ]
    mass: 118.710000
    reduced_to: 82
  - symbol: Sn # 90
    coordinates: [  0.884664216187741,  0.859139584560112,  0.985989410569956 ]
    mass: 118.710000
    reduced_to: 82

displacements:
- atom:    1
  displacement:
    [   0.0100000000000000,  0.0000000000000000,  0.0000000000000000 ]
  forces:
  - [  -0.0169512033462524, -0.0045321662910283,  0.0423141121864319 ]
  - [  -0.0010613877093419, -0.0045470697805285,  0.0424822159111500 ]
  - [  -0.0010484914528206, -0.0045552104711533,  0.0421871542930603 ]
  - [  -0.0015660263597965, -0.0045544654130936,  0.0423317998647690 ]
  - [  -0.0017785185482353, -0.0049608908593655,  0.0423252992331982 ]
  - [  -0.0017805141396821, -0.0041423854418099,  0.0423403605818748 ]
  - [  -0.0015663290396333, -0.0045496774837375,  0.0423313528299332 ]
  - [  -0.0017791604623199, -0.0041429651901126,  0.0423238612711430 ]
  - [  -0.0017800980713218, -0.0049622347578406,  0.0423419699072838 ]
  - [  -0.0013079146156088, -0.0012470622314140, -0.0412891097366810 ]
  - [  -0.0013094274327159, -0.0010283016599715, -0.0417181514203548 ]
  - [  -0.0013021552003920, -0.0011374716414139, -0.0415022484958172 ]
  - [  -0.0013702776050195, -0.0011371932923794, -0.0414786860346794 ]
  - [  -0.0013716714456677, -0.0011382388183847, -0.0415275692939758 ]
  - [  -0.0013649496249855, -0.0011378270573914, -0.0415028780698776 ]
  - [  -0.0013081672368571, -0.0010392856784165, -0.0413034409284592 ]
  - [  -0.0013089701533318, -0.0012361133703962, -0.0417035780847073 ]
  - [  -0.0013165250420570, -0.0011381538351998, -0.0415020883083344 ]
  - [  -0.0004878581094090, -0.0010877540335059,  0.0246568433940411 ]
  - [  -0.0004880977794528, -0.0010775788687170,  0.0246861018240452 ]
  - [  -0.0003841584548354, -0.0010834500426427,  0.0246709790080786 ]
  - [  -0.0004610358446371, -0.0010771136730909,  0.0246594529598951 ]
  - [  -0.0004615979269147, -0.0010913846781477,  0.0246843826025724 ]
  - [  -0.0004373863339424, -0.0010841334005818,  0.0246715787798166 ]
  - [  -0.0004537472850643, -0.0010858089663088,  0.0246833786368370 ]
  - [  -0.0004548430442810, -0.0010795833077282,  0.0246597006917000 ]
  - [  -0.0004650526680052, -0.0010831801919267,  0.0246715787798166 ]
  - [   0.0011559861013666,  0.0033029594924301,  0.0270059034228325 ]
  - [   0.0011788951233029,  0.0032970681786537,  0.0288262628018856 ]
  - [   0.0003629010170698,  0.0033007317688316,  0.0279055647552013 ]
  - [   0.0003511318354867,  0.0032955645583570,  0.0278971400111914 ]
  - [   0.0003517102450132,  0.0033039739355445,  0.0279118716716766 ]
  - [   0.0003434130921960,  0.0032995331566781,  0.0279047228395939 ]
  - [   0.0003551390254870,  0.0033075376413763,  0.0278881210833788 ]
  - [   0.0003553805872798,  0.0032887945417315,  0.0279234237968922 ]
  - [   0.0003378298133612,  0.0032985662110150,  0.0279054213315248 ]
  - [   0.0004324329784140, -0.0090868072584271, -0.0385163277387619 ]
  - [   0.0004674571973737, -0.0090816998854280, -0.0446501858532429 ]
  - [  -0.0008784048841335, -0.0090838167816401, -0.0415516421198845 ]
  - [  -0.0009778144303709, -0.0089084245264530, -0.0414824709296227 ]
  - [  -0.0009780097752810, -0.0092640463262796, -0.0416236035525799 ]
  - [  -0.0009151824051514, -0.0090838642790914, -0.0415541529655457 ]
  - [  -0.0009769905591384, -0.0092620030045509, -0.0414876081049442 ]
  - [  -0.0009763655834831, -0.0089028757065535, -0.0416192635893822 ]
  - [  -0.0009177213069052, -0.0090835494920611, -0.0415546670556068 ]
  - [  -0.0003847090411000,  0.0041084433905780, -0.0979884415864944 ]
  - [  -0.0001825606159400,  0.0041136136278510, -0.0978983566164970 ]
  - [  -0.0001885427627712,  0.0041361013427377, -0.0981174856424332 ]
  - [   0.0000457123824162,  0.0041212723590434, -0.0980097055435181 ]
  - [  -0.0000652929738862,  0.0041197161190212, -0.0980333760380745 ]
  - [  -0.0000667656349833,  0.0041226353496313, -0.0979864969849586 ]
  - [  -0.0003505229833536,  0.0041323909536004, -0.0979876741766930 ]
  - [  -0.0001764983026078,  0.0041256863623857, -0.0979157239198685 ]
  - [  -0.0001818311284296,  0.0041089169681072, -0.0981019437313080 ]
  - [   0.0005653906846419, -0.0098218061029911, -0.0120311044156551 ]
  - [   0.0007621051045135, -0.0098396604880691, -0.0118948034942150 ]
  - [   0.0007638715323992, -0.0097868107259274, -0.0121360011398792 ]
  - [   0.0006299802334979, -0.0098136067390442, -0.0120113976299763 ]
  - [   0.0006590076372959, -0.0098087564110756, -0.0119936838746071 ]
  - [   0.0006600273773074, -0.0098178591579199, -0.0120318420231342 ]
  - [   0.0005592047818936, -0.0098081007599831, -0.0120310261845589 ]
  - [   0.0007589355809614, -0.0097969267517328, -0.0118906423449516 ]
  - [   0.0007629076135345, -0.0098351147025824, -0.0121394954621792 ]
  - [   0.0019890775438398,  0.0078780436888337,  0.1853666454553604 ]
  - [   0.0013693532673642,  0.0078878644853830,  0.1857931613922119 ]
  - [   0.0013749881181866,  0.0078689474612474,  0.1849564164876938 ]
  - [   0.0019700140692294,  0.0078807063400745,  0.1853685081005096 ]
  - [   0.0017584352754056,  0.0078246518969536,  0.1854437142610550 ]
  - [   0.0017576455138624,  0.0079329842701554,  0.1852982044219971 ]
  - [   0.0019562100060284,  0.0078763095661998,  0.1853678226470947 ]
  - [   0.0017609054921195,  0.0079250913113356,  0.1854479610919952 ]
  - [   0.0017604881431907,  0.0078328829258680,  0.1852947771549225 ]
  - [   0.0038257576525211,  0.0021965354681015, -0.1726281344890594 ]
  - [   0.0038962950929999,  0.0098422011360526, -0.1705185174942017 ]
  - [   0.0003072731196880,  0.0059689669869840, -0.1715840995311737 ]
  - [   0.0004332271637395,  0.0059736855328083, -0.1715115308761597 ]
  - [   0.0004326177877374,  0.0059666237793863, -0.1716548055410385 ]
  - [   0.0004871851124335,  0.0059693525545299, -0.1715842187404633 ]
  - [   0.0037819817662239,  0.0097007472068071, -0.1726331710815430 ]
  - [   0.0038657702971250,  0.0021221027709544, -0.1705149710178375 ]
  - [   0.0003077127039433,  0.0059708813205361, -0.1715849339962006 ]
  - [   0.0008514869841747,  0.0044035948812962,  0.0843832790851593 ]
  - [   0.0009160956833512,  0.0044716559350491,  0.0840775296092033 ]
  - [   0.0009120588656515,  0.0043361689895391,  0.0846899449825287 ]
  - [   0.0010392209514976,  0.0044042970985174,  0.0843860432505608 ]
  - [   0.0009821467101574,  0.0043515264987946,  0.0843080282211304 ]
  - [   0.0009822386782616,  0.0044519733637571,  0.0844594985246658 ]
  - [   0.0010262168943882,  0.0043992009013891,  0.0843842327594757 ]
  - [   0.0009892806410789,  0.0043829623609781,  0.0842220857739449 ]
  - [   0.0009896071860567,  0.0044189598411322,  0.0845427364110947 ]
- atom:    1
  displacement:
    [  -0.0100000000000000,  0.0000000000000000,  0.0000000000000000 ]
  forces:
  - [   0.0141568239778280, -0.0045718275941908,  0.0423244647681713 ]
  - [  -0.0017446128185838, -0.0045553892850876,  0.0421880111098289 ]
  - [  -0.0017309249378741, -0.0045472038909793,  0.0424815602600574 ]
  - [  -0.0012266421690583, -0.0045536663383245,  0.0423320531845093 ]
  - [  -0.0010124001419172, -0.0041437060572207,  0.0423406064510345 ]
  - [  -0.0010139821097255, -0.0049613453447819,  0.0423249639570713 ]
  - [  -0.0012270454317331, -0.0045514996163547,  0.0423318296670914 ]
  - [  -0.0010125443805009, -0.0049625090323389,  0.0423422381281853 ]
  - [  -0.0010141481179744, -0.0041430550627410,  0.0423228926956654 ]
  - [  -0.0014280715258792, -0.0010294658131897, -0.0417165756225586 ]
  - [  -0.0014291359111667, -0.0012484417529777, -0.0412882305681705 ]
  - [  -0.0014369701966643, -0.0011378462659195, -0.0415024869143963 ]
  - [  -0.0013662620913237, -0.0011379774659872, -0.0415270999073982 ]
  - [  -0.0013672742061317, -0.0011375559261069, -0.0414792820811272 ]
  - [  -0.0013734758831561, -0.0011378307826817, -0.0415028706192970 ]
  - [  -0.0014287717640400, -0.0012346676085144, -0.0417024604976177 ]
  - [  -0.0014291936531663, -0.0010384585475549, -0.0413027293980122 ]
  - [  -0.0014217998832464, -0.0011377132032067, -0.0415022447705269 ]
  - [  -0.0004270304343663, -0.0010787677019835,  0.0246865246444941 ]
  - [  -0.0004268549382687, -0.0010875422740355,  0.0246567782014608 ]
  - [  -0.0005321307107806, -0.0010835765860975,  0.0246714930981398 ]
  - [  -0.0004533164901659, -0.0010915991151705,  0.0246840212494135 ]
  - [  -0.0004535429179668, -0.0010762060992420,  0.0246597193181515 ]
  - [  -0.0004784855991602, -0.0010841963812709,  0.0246717333793640 ]
  - [  -0.0004607835435309, -0.0010799790034071,  0.0246599595993757 ]
  - [  -0.0004612877964973, -0.0010855974396691,  0.0246830601245165 ]
  - [  -0.0004518730565906, -0.0010831332765520,  0.0246717445552349 ]
  - [  -0.0005648199003190,  0.0032978637609631,  0.0288209691643715 ]
  - [  -0.0005504963919520,  0.0033034803345799,  0.0270007420331240 ]
  - [   0.0002468600869179,  0.0033007457386702,  0.0279054548591375 ]
  - [   0.0002580003347248,  0.0033044870942831,  0.0279123708605766 ]
  - [   0.0002577630802989,  0.0032955720089376,  0.0278981067240238 ]
  - [   0.0002665845677257,  0.0032992304768413,  0.0279046464711428 ]
  - [   0.0002538181142882,  0.0032894150353968,  0.0279233809560537 ]
  - [   0.0002532051876187,  0.0033078244887292,  0.0278884209692478 ]
  - [   0.0002723215147853,  0.0032987014856189,  0.0279054157435894 ]
  - [  -0.0023000896908343, -0.0090810321271420, -0.0446415655314922 ]
  - [  -0.0022778958082199, -0.0090862233191729, -0.0385077632963657 ]
  - [  -0.0009583965875208, -0.0090843904763460, -0.0415524616837502 ]
  - [  -0.0008624168112874, -0.0092635052278638, -0.0416242182254791 ]
  - [  -0.0008625276386738, -0.0089067723602057, -0.0414838232100010 ]
  - [  -0.0009260076330975, -0.0090840123593807, -0.0415542162954807 ]
  - [  -0.0008631055243313, -0.0089043918997049, -0.0416195318102837 ]
  - [  -0.0008627596544102, -0.0092622060328722, -0.0414883047342300 ]
  - [  -0.0009228332201019, -0.0090836044400930, -0.0415545217692852 ]
  - [   0.0003278118674643,  0.0041132224723697, -0.0979945659637451 ]
  - [   0.0001298212882830,  0.0041352314874530, -0.0981179028749466 ]
  - [   0.0001250306377187,  0.0041123088449240, -0.0978991165757179 ]
  - [  -0.0001025774545269,  0.0041213068179786, -0.0980092138051987 ]
  - [   0.0000086901491159,  0.0041227135807276, -0.0979871079325676 ]
  - [   0.0000076503274613,  0.0041196113452315, -0.0980328619480133 ]
  - [   0.0002942619030364,  0.0041294554248452, -0.0979968756437302 ]
  - [   0.0001243746810360,  0.0041098939254880, -0.0981032624840736 ]
  - [   0.0001199077159981,  0.0041273916140199, -0.0979156792163849 ]
  - [   0.0007353494875133, -0.0098196677863598, -0.0120247080922127 ]
  - [   0.0005372891901061, -0.0097870379686356, -0.0121363848447800 ]
  - [   0.0005378524656408, -0.0098395030945539, -0.0118927173316479 ]
  - [   0.0006688175490126, -0.0098135154694319, -0.0120119079947472 ]
  - [   0.0006395349628292, -0.0098172249272466, -0.0120324902236462 ]
  - [   0.0006409896304831, -0.0098092108964920, -0.0119930841028690 ]
  - [   0.0007394790882245, -0.0098094046115875, -0.0120246820151806 ]
  - [   0.0005373432650231, -0.0098340641707182, -0.0121393986046314 ]
  - [   0.0005401016678661, -0.0097963046282530, -0.0118891261518002 ]
  - [   0.0015922840684652,  0.0078777913004160,  0.1853674352169037 ]
  - [   0.0022087241522968,  0.0078688226640224,  0.1849516332149506 ]
  - [   0.0022086198441684,  0.0078879948705435,  0.1857904344797134 ]
  - [   0.0016122597735375,  0.0078799976035953,  0.1853697896003723 ]
  - [   0.0018259311327711,  0.0079333651810884,  0.1852986216545105 ]
  - [   0.0018247221596539,  0.0078241052106023,  0.1854434460401535 ]
  - [   0.0016248191241175,  0.0078777074813843,  0.1853693723678589 ]
  - [   0.0018219461198896,  0.0078328400850296,  0.1852953732013702 ]
  - [   0.0018215688178316,  0.0079251378774643,  0.1854471713304520 ]
  - [  -0.0029906872659922,  0.0098372250795364, -0.1705212891101837 ]
  - [  -0.0029281666502357,  0.0021903233136982, -0.1726312637329102 ]
  - [   0.0005926955491304,  0.0059692435897887, -0.1715843975543976 ]
  - [   0.0004695373936556,  0.0059670628979802, -0.1716549545526505 ]
  - [   0.0004691724898294,  0.0059726098552346, -0.1715119034051895 ]
  - [   0.0004142904654145,  0.0059695951640606, -0.1715840697288513 ]
  - [  -0.0029458866920322,  0.0021455611567944, -0.1705185472965240 ]
  - [  -0.0028951903805137,  0.0097239762544632, -0.1726370900869370 ]
  - [   0.0005919300019741,  0.0059708370827138, -0.1715850979089737 ]
  - [   0.0010980826336890,  0.0044037550687790,  0.0843832939863205 ]
  - [   0.0010367927607149,  0.0043351966887712,  0.0846904963254929 ]
  - [   0.0010341336019337,  0.0044715479016304,  0.0840773060917854 ]
  - [   0.0009120488539338,  0.0044034011662006,  0.0843852013349533 ]
  - [   0.0009678602800705,  0.0044520422816277,  0.0844604000449181 ]
  - [   0.0009677459020168,  0.0043518710881472,  0.0843068882822990 ]
  - [   0.0009250827133656,  0.0044001699425280,  0.0843837261199951 ]
  - [   0.0009613148868084,  0.0044193244539201,  0.0845436453819275 ]
  - [   0.0009611388668418,  0.0043828524649143,  0.0842226669192314 ]
- atom:    1
  displacement:
    [   0.0000022755476782,  0.0099999997410941,  0.0000000000000000 ]
  forces:
  - [  -0.0013809390366077, -0.0210635699331760,  0.0424903407692909 ]
  - [  -0.0014017238281667, -0.0044912681914866,  0.0423303805291653 ]
  - [  -0.0013904692605138, -0.0044913575984538,  0.0423292443156242 ]