phonopy:
  version: "2.37.1"
  frequency_unit_conversion_factor: 15.633302
  symmetry_tolerance: 1.00000e-05

space_group:
  type: "P1"
  number: 1
  Hall_symbol: "P 1"

primitive_matrix:
- [ -1.000000000000000, -1.000000000000000, -0.000000000000000 ]
- [  0.000000000000000,  1.000000000000000,  0.000000000000000 ]
- [  0.000000000000000,  0.000000000000000, -1.000000000000000 ]

supercell_matrix:
- [   3,   0,   0 ]
- [   0,   2,   0 ]
- [   0,   0,   2 ]

primitive_cell:
  lattice:
  - [    -4.715324026516016,     0.000000000000000,     0.000000000000000 ] # a
  - [    -2.357619095502434,     4.915948257357901,     0.000000000000000 ] # b
  - [    -2.357340744572660,     0.109948185453394,    -7.047468561781882 ] # c
  points:
  - symbol: Li # 1
    coordinates: [  0.485769670364968,  0.435515973764465,  0.706236482545344 ]
    mass: 6.940000
  - symbol: Li # 2
    coordinates: [  0.448456221832321,  0.135231271252395,  0.081523383036286 ]
    mass: 6.940000
  - symbol: Li # 3
    coordinates: [  0.126520689836982,  0.474548976295154,  0.385893046288052 ]
    mass: 6.940000
  - symbol: Li # 4
    coordinates: [  0.778960816706271,  0.801812453905097,  0.753573542755414 ]
    mass: 6.940000
  - symbol: Li # 5
    coordinates: [  0.523028833397997,  0.736919009217749,  0.330373091112767 ]
    mass: 6.940000
  - symbol: Li # 6
    coordinates: [  0.844995439574477,  0.397392719888216,  0.026161968164963 ]
    mass: 6.940000
  - symbol: Li # 7
    coordinates: [  0.192460006684106,  0.069907791899823,  0.658347351403174 ]
    mass: 6.940000
  - symbol: Sn # 8
    coordinates: [  0.809274996731487,  0.102207565408696,  0.392684560500456 ]
    mass: 118.710000
  - symbol: Sn # 9
    coordinates: [  0.162144406468722,  0.769871203354574,  0.019291959686432 ]
    mass: 118.710000
  reciprocal_lattice: # without 2pi
  - [    -0.212074503125687,    -0.101707925320401,     0.069351038742967 ] # a*
  - [    -0.000000000000000,     0.203419553593401,     0.003173566594482 ] # b*
  - [    -0.000000000000000,     0.000000000000000,    -0.141894921734445 ] # c*

unit_cell:
  lattice:
  - [     4.715324026516016,     0.000000000000000,     0.000000000000000 ] # a
  - [     2.357704931013582,     4.915948257357900,     0.000000000000000 ] # b
  - [     2.357340744572659,    -0.109948185453394,     7.047468561781880 ] # c
  points:
  - symbol: Li # 1
    coordinates: [  0.078714355870567,  0.435515973764465,  0.293763517454657 ]
    mass: 6.940000
    reduced_to: 1
  - symbol: Li # 2
    coordinates: [  0.416312506915284,  0.135231271252395,  0.918476616963714 ]
    mass: 6.940000
    reduced_to: 2
  - symbol: Li # 3
    coordinates: [  0.398930333867864,  0.474548976295154,  0.614106953711948 ]
    mass: 6.940000
    reduced_to: 3
  - symbol: Li # 4
    coordinates: [  0.419226729388632,  0.801812453905097,  0.246426457244586 ]
    mass: 6.940000
    reduced_to: 4
  - symbol: Li # 5
    coordinates: [  0.740052157384253,  0.736919009217749,  0.669626908887233 ]
    mass: 6.940000
    reduced_to: 5
  - symbol: Li # 6
    coordinates: [  0.757611840537306,  0.397392719888216,  0.973838031835037 ]
    mass: 6.940000
    reduced_to: 6
  - symbol: Li # 7
    coordinates: [  0.737632201416071,  0.069907791899823,  0.341652648596826 ]
    mass: 6.940000
    reduced_to: 7
  - symbol: Sn # 8
    coordinates: [  0.088517437859817,  0.102207565408696,  0.607315439499544 ]
    mass: 118.710000
    reduced_to: 8
  - symbol: Sn # 9
    coordinates: [  0.067984390176703,  0.769871203354575,  0.980708040313568 ]
    mass: 118.710000
    reduced_to: 9

supercell:
  lattice:
  - [    14.145972079548049,     0.000000000000000,     0.000000000000000 ] # a
  - [     4.715409862027164,     9.831896514715799,     0.000000000000000 ] # b
  - [     4.714681489145318,    -0.219896370906787,    14.094937123563760 ] # c
  points:
  - symbol: Li # 1
    coordinates: [  0.026238118623522,  0.217757986882233,  0.146881758727328 ]
    mass: 6.940000
    reduced_to: 1
  - symbol: Li # 2
    coordinates: [  0.359571451956856,  0.217757986882233,  0.146881758727328 ]
    mass: 6.940000
    reduced_to: 1
  - symbol: Li # 3
    coordinates: [  0.692904785290189,  0.217757986882233,  0.146881758727328 ]
    mass: 6.940000
    reduced_to: 1
  - symbol: Li # 4
    coordinates: [  0.026238118623522,  0.717757986882233,  0.146881758727328 ]
    mass: 6.940000
    reduced_to: 1
  - symbol: Li # 5
    coordinates: [  0.359571451956856,  0.717757986882233,  0.146881758727328 ]
    mass: 6.940000
    reduced_to: 1
  - symbol: Li # 6
    coordinates: [  0.692904785290189,  0.717757986882233,  0.146881758727328 ]
    mass: 6.940000
    reduced_to: 1
  - symbol: Li # 7
    coordinates: [  0.026238118623522,  0.217757986882233,  0.646881758727328 ]
    mass: 6.940000
    reduced_to: 1
  - symbol: Li # 8
    coordinates: [  0.359571451956856,  0.217757986882233,  0.646881758727328 ]
    mass: 6.940000
    reduced_to: 1
  - symbol: Li # 9
    coordinates: [  0.692904785290189,  0.217757986882233,  0.646881758727328 ]
    mass: 6.940000
    reduced_to: 1
  - symbol: Li # 10
    coordinates: [  0.026238118623522,  0.717757986882233,  0.646881758727328 ]
    mass: 6.940000
    reduced_to: 1
  - symbol: Li # 11
    coordinates: [  0.359571451956856,  0.717757986882233,  0.646881758727328 ]
    mass: 6.940000
    reduced_to: 1
  - symbol: Li # 12
    coordinates: [  0.692904785290189,  0.717757986882233,  0.646881758727328 ]
    mass: 6.940000
    reduced_to: 1
  - symbol: Li # 13
    coordinates: [  0.138770835638428,  0.067615635626198,  0.459238308481857 ]
    mass: 6.940000
    reduced_to: 13
  - symbol: Li # 14
    coordinates: [  0.472104168971761,  0.067615635626198,  0.459238308481857 ]
    mass: 6.940000
    reduced_to: 13
  - symbol: Li # 15
    coordinates: [  0.805437502305095,  0.067615635626198,  0.459238308481857 ]
    mass: 6.940000
    reduced_to: 13
  - symbol: Li # 16
    coordinates: [  0.138770835638428,  0.567615635626198,  0.459238308481857 ]
    mass: 6.940000
    reduced_to: 13
  - symbol: Li # 17
    coordinates: [  0.472104168971761,  0.567615635626198,  0.459238308481857 ]
    mass: 6.940000
    reduced_to: 13
  - symbol: Li # 18
    coordinates: [  0.805437502305095,  0.567615635626198,  0.459238308481857 ]
    mass: 6.940000
    reduced_to: 13
  - symbol: Li # 19
    coordinates: [  0.138770835638428,  0.067615635626198,  0.959238308481857 ]
    mass: 6.940000
    reduced_to: 13
  - symbol: Li # 20
    coordinates: [  0.472104168971761,  0.067615635626198,  0.959238308481857 ]
    mass: 6.940000
    reduced_to: 13
  - symbol: Li # 21
    coordinates: [  0.805437502305095,  0.067615635626198,  0.959238308481857 ]
    mass: 6.940000
    reduced_to: 13
  - symbol: Li # 22
    coordinates: [  0.138770835638428,  0.567615635626198,  0.959238308481857 ]
    mass: 6.940000
    reduced_to: 13
  - symbol: Li # 23
    coordinates: [  0.472104168971761,  0.567615635626198,  0.959238308481857 ]
    mass: 6.940000
    reduced_to: 13
  - symbol: Li # 24
    coordinates: [  0.805437502305095,  0.567615635626198,  0.959238308481857 ]
    mass: 6.940000
    reduced_to: 13
  - symbol: Li # 25
    coordinates: [  0.132976777955955,  0.237274488147577,  0.307053476855974 ]
    mass: 6.940000
    reduced_to: 25
  - symbol: Li # 26
    coordinates: [  0.466310111289288,  0.237274488147577,  0.307053476855974 ]
    mass: 6.940000
    reduced_to: 25
  - symbol: Li # 27
    coordinates: [  0.799643444622621,  0.237274488147577,  0.307053476855974 ]
    mass: 6.940000
    reduced_to: 25
  - symbol: Li # 28
    coordinates: [  0.132976777955955,  0.737274488147577,  0.307053476855974 ]
    mass: 6.940000
    reduced_to: 25
  - symbol: Li # 29
    coordinates: [  0.466310111289288,  0.737274488147577,  0.307053476855974 ]
    mass: 6.940000
    reduced_to: 25
  - symbol: Li # 30
    coordinates: [  0.799643444622621,  0.737274488147577,  0.307053476855974 ]
    mass: 6.940000
    reduced_to: 25
  - symbol: Li # 31
    coordinates: [  0.132976777955955,  0.237274488147577,  0.807053476855974 ]
    mass: 6.940000
    reduced_to: 25
  - symbol: Li # 32
    coordinates: [  0.466310111289288,  0.237274488147577,  0.807053476855974 ]
    mass: 6.940000
    reduced_to: 25
  - symbol: Li # 33
    coordinates: [  0.799643444622621,  0.237274488147577,  0.807053476855974 ]
    mass: 6.940000
    reduced_to: 25
  - symbol: Li # 34
    coordinates: [  0.132976777955955,  0.737274488147577,  0.807053476855974 ]
    mass: 6.940000
    reduced_to: 25
  - symbol: Li # 35
    coordinates: [  0.466310111289288,  0.737274488147577,  0.807053476855974 ]
    mass: 6.940000
    reduced_to: 25
  - symbol: Li # 36
    coordinates: [  0.799643444622621,  0.737274488147577,  0.807053476855974 ]
    mass: 6.940000
    reduced_to: 25
  - symbol: Li # 37
    coordinates: [  0.139742243129544,  0.400906226952549,  0.123213228622293 ]
    mass: 6.940000
    reduced_to: 37
  - symbol: Li # 38
    coordinates: [  0.473075576462877,  0.400906226952549,  0.123213228622293 ]
    mass: 6.940000
    reduced_to: 37
  - symbol: Li # 39
    coordinates: [  0.806408909796211,  0.400906226952549,  0.123213228622293 ]
    mass: 6.940000
    reduced_to: 37
  - symbol: Li # 40
    coordinates: [  0.139742243129544,  0.900906226952549,  0.123213228622293 ]
    mass: 6.940000
    reduced_to: 37
  - symbol: Li # 41
    coordinates: [  0.473075576462877,  0.900906226952549,  0.123213228622293 ]
    mass: 6.940000
    reduced_to: 37
  - symbol: Li # 42
    coordinates: [  0.806408909796211,  0.900906226952549,  0.123213228622293 ]
    mass: 6.940000
    reduced_to: 37
  - symbol: Li # 43
    coordinates: [  0.139742243129544,  0.400906226952549,  0.623213228622293 ]
    mass: 6.940000
    reduced_to: 37
  - symbol: Li # 44
    coordinates: [  0.473075576462877,  0.400906226952549,  0.623213228622293 ]
    mass: 6.940000
    reduced_to: 37
  - symbol: Li # 45
    coordinates: [  0.806408909796211,  0.400906226952549,  0.623213228622293 ]
    mass: 6.940000
    reduced_to: 37
  - symbol: Li # 46
    coordinates: [  0.139742243129544,  0.900906226952549,  0.623213228622293 ]
    mass: 6.940000
    reduced_to: 37
  - symbol: Li # 47
    coordinates: [  0.473075576462877,  0.900906226952549,  0.623213228622293 ]
    mass: 6.940000
    reduced_to: 37
  - symbol: Li # 48
    coordinates: [  0.806408909796211,  0.900906226952549,  0.623213228622293 ]
    mass: 6.940000
    reduced_to: 37
  - symbol: Li # 49
    coordinates: [  0.246684052461418,  0.368459504608875,  0.334813454443617 ]
    mass: 6.940000
    reduced_to: 49
  - symbol: Li # 50
    coordinates: [  0.580017385794751,  0.368459504608875,  0.334813454443617 ]
    mass: 6.940000
    reduced_to: 49
  - symbol: Li # 51
    coordinates: [  0.913350719128085,  0.368459504608875,  0.334813454443617 ]
    mass: 6.940000
    reduced_to: 49
  - symbol: Li # 52
    coordinates: [  0.246684052461418,  0.868459504608875,  0.334813454443617 ]
    mass: 6.940000
    reduced_to: 49
  - symbol: Li # 53
    coordinates: [  0.580017385794751,  0.868459504608875,  0.334813454443617 ]
    mass: 6.940000
    reduced_to: 49
  - symbol: Li # 54
    coordinates: [  0.913350719128085,  0.868459504608875,  0.334813454443617 ]
    mass: 6.940000
    reduced_to: 49
  - symbol: Li # 55
    coordinates: [  0.246684052461418,  0.368459504608875,  0.834813454443617 ]
    mass: 6.940000
    reduced_to: 49
  - symbol: Li # 56
    coordinates: [  0.580017385794751,  0.368459504608875,  0.834813454443617 ]
    mass: 6.940000
    reduced_to: 49
  - symbol: Li # 57
    coordinates: [  0.913350719128085,  0.368459504608875,  0.834813454443617 ]
    mass: 6.940000
    reduced_to: 49
  - symbol: Li # 58
    coordinates: [  0.246684052461418,  0.868459504608875,  0.834813454443617 ]
    mass: 6.940000
    reduced_to: 49
  - symbol: Li # 59
    coordinates: [  0.580017385794751,  0.868459504608875,  0.834813454443617 ]
    mass: 6.940000
    reduced_to: 49
  - symbol: Li # 60
    coordinates: [  0.913350719128085,  0.868459504608875,  0.834813454443617 ]
    mass: 6.940000
    reduced_to: 49
  - symbol: Li # 61
    coordinates: [  0.252537280179102,  0.198696359944108,  0.486919015917518 ]
    mass: 6.940000
    reduced_to: 61
  - symbol: Li # 62
    coordinates: [  0.585870613512435,  0.198696359944108,  0.486919015917518 ]
    mass: 6.940000
    reduced_to: 61
  - symbol: Li # 63
    coordinates: [  0.919203946845769,  0.198696359944108,  0.486919015917518 ]
    mass: 6.940000
    reduced_to: 61
  - symbol: Li # 64
    coordinates: [  0.252537280179102,  0.698696359944108,  0.486919015917518 ]
    mass: 6.940000
    reduced_to: 61
  - symbol: Li # 65
    coordinates: [  0.585870613512435,  0.698696359944108,  0.486919015917518 ]
    mass: 6.940000
    reduced_to: 61
  - symbol: Li # 66
    coordinates: [  0.919203946845769,  0.698696359944108,  0.486919015917518 ]
    mass: 6.940000
    reduced_to: 61
  - symbol: Li # 67
    coordinates: [  0.252537280179102,  0.198696359944108,  0.986919015917518 ]
    mass: 6.940000
    reduced_to: 61
  - symbol: Li # 68
    coordinates: [  0.585870613512435,  0.198696359944108,  0.986919015917518 ]
    mass: 6.940000
    reduced_to: 61
  - symbol: Li # 69
    coordinates: [  0.919203946845769,  0.198696359944108,  0.986919015917518 ]
    mass: 6.940000
    reduced_to: 61
  - symbol: Li # 70
    coordinates: [  0.252537280179102,  0.698696359944108,  0.986919015917518 ]
    mass: 6.940000
    reduced_to: 61
  - symbol: Li # 71
    coordinates: [  0.585870613512435,  0.698696359944108,  0.986919015917518 ]
    mass: 6.940000
    reduced_to: 61
  - symbol: Li # 72
    coordinates: [  0.919203946845769,  0.698696359944108,  0.986919015917518 ]
    mass: 6.940000
    reduced_to: 61
  - symbol: Li # 73
    coordinates: [  0.245877400472023,  0.034953895949912,  0.170826324298413 ]
    mass: 6.940000
    reduced_to: 73
  - symbol: Li # 74
    coordinates: [  0.579210733805357,  0.034953895949912,  0.170826324298413 ]
    mass: 6.940000
    reduced_to: 73
  - symbol: Li # 75
    coordinates: [  0.912544067138690,  0.034953895949912,  0.170826324298413 ]
    mass: 6.940000
    reduced_to: 73
  - symbol: Li # 76
    coordinates: [  0.245877400472023,  0.534953895949912,  0.170826324298413 ]
    mass: 6.940000
    reduced_to: 73
  - symbol: Li # 77
    coordinates: [  0.579210733805357,  0.534953895949912,  0.170826324298413 ]
    mass: 6.940000
    reduced_to: 73
  - symbol: Li # 78
    coordinates: [  0.912544067138690,  0.534953895949912,  0.170826324298413 ]
    mass: 6.940000
    reduced_to: 73
  - symbol: Li # 79
    coordinates: [  0.245877400472023,  0.034953895949912,  0.670826324298413 ]
    mass: 6.940000
    reduced_to: 73
  - symbol: Li # 80
    coordinates: [  0.579210733805357,  0.034953895949912,  0.670826324298413 ]
    mass: 6.940000
    reduced_to: 73
  - symbol: Li # 81
    coordinates: [  0.912544067138690,  0.034953895949912,  0.670826324298413 ]
    mass: 6.940000
    reduced_to: 73
  - symbol: Li # 82
    coordinates: [  0.245877400472023,  0.534953895949912,  0.670826324298413 ]
    mass: 6.940000
    reduced_to: 73
  - symbol: Li # 83
    coordinates: [  0.579210733805357,  0.534953895949912,  0.670826324298413 ]
    mass: 6.940000
    reduced_to: 73
  - symbol: Li # 84
    coordinates: [  0.912544067138690,  0.534953895949912,  0.670826324298413 ]
    mass: 6.940000
    reduced_to: 73
  - symbol: Sn # 85
    coordinates: [  0.029505812619939,  0.051103782704348,  0.303657719749772 ]
    mass: 118.710000
    reduced_to: 85
  - symbol: Sn # 86
    coordinates: [  0.362839145953272,  0.051103782704348,  0.303657719749772 ]
    mass: 118.710000
    reduced_to: 85
  - symbol: Sn # 87
    coordinates: [  0.696172479286606,  0.051103782704348,  0.303657719749772 ]
    mass: 118.710000
    reduced_to: 85
  - symbol: Sn # 88
    coordinates: [  0.029505812619939,  0.551103782704348,  0.303657719749772 ]
    mass: 118.710000
    reduced_to: 85
  - symbol: Sn # 89
    coordinates: [  0.362839145953272,  0.551103782704348,  0.303657719749772 ]
    mass: 118.710000
    reduced_to: 85
  - symbol: Sn # 90
    coordinates: [  0.696172479286606,  0.551103782704348,  0.303657719749772 ]
    mass: 118.710000
    reduced_to: 85
  - symbol: Sn # 91
    coordinates: [  0.029505812619939,  0.051103782704348,  0.803657719749772 ]
    mass: 118.710000
    reduced_to: 85
  - symbol: Sn # 92
    coordinates: [  0.362839145953272,  0.051103782704348,  0.803657719749772 ]
    mass: 118.710000
    reduced_to: 85
  - symbol: Sn # 93
    coordinates: [  0.696172479286606,  0.051103782704348,  0.803657719749772 ]
    mass: 118.710000
    reduced_to: 85
  - symbol: Sn # 94
    coordinates: [  0.029505812619939,  0.551103782704348,  0.803657719749772 ]
    mass: 118.710000
    reduced_to: 85
  - symbol: Sn # 95
    coordinates: [  0.362839145953272,  0.551103782704348,  0.803657719749772 ]
    mass: 118.710000
    reduced_to: 85
  - symbol: Sn # 96
    coordinates: [  0.696172479286606,  0.551103782704348,  0.803657719749772 ]
    mass: 118.710000
    reduced_to: 85
  - symbol: Sn # 97
    coordinates: [  0.022661463392234,  0.384935601677287,  0.490354020156784 ]
    mass: 118.710000
    reduced_to: 97
  - symbol: Sn # 98
    coordinates: [  0.355994796725568,  0.384935601677287,  0.490354020156784 ]
    mass: 118.710000
    reduced_to: 97
  - symbol: Sn # 99
    coordinates: [  0.689328130058901,  0.384935601677287,  0.490354020156784 ]
    mass: 118.710000
    reduced_to: 97
  - symbol: Sn # 100
    coordinates: [  0.022661463392234,  0.884935601677287,  0.490354020156784 ]
    mass: 118.710000
    reduced_to: 97
  - symbol: Sn # 101
    coordinates: [  0.355994796725568,  0.884935601677287,  0.490354020156784 ]
    mass: 118.710000
    reduced_to: 97
  - symbol: Sn # 102
    coordinates: [  0.689328130058901,  0.884935601677287,  0.490354020156784 ]
    mass: 118.710000
    reduced_to: 97
  - symbol: Sn # 103
    coordinates: [  0.022661463392234,  0.384935601677287,  0.990354020156784 ]
    mass: 118.710000
    reduced_to: 97
  - symbol: Sn # 104
    coordinates: [  0.355994796725568,  0.384935601677287,  0.990354020156784 ]
    mass: 118.710000
    reduced_to: 97
  - symbol: Sn # 105
    coordinates: [  0.689328130058901,  0.384935601677287,  0.990354020156784 ]
    mass: 118.710000
    reduced_to: 97
  - symbol: Sn # 106
    coordinates: [  0.022661463392234,  0.884935601677287,  0.990354020156784 ]
    mass: 118.710000
    reduced_to: 97
  - symbol: Sn # 107
    coordinates: [  0.355994796725568,  0.884935601677287,  0.990354020156784 ]
    mass: 118.710000
    reduced_to: 97
  - symbol: Sn # 108
    coordinates: [  0.689328130058901,  0.884935601677287,  0.990354020156784 ]
    mass: 118.710000
    reduced_to: 97

displacements:
- atom:    1
  displacement:
    [   0.0100000000000000,  0.0000000000000000,  0.0000000000000000 ]
  forces:
  - [  -0.0118593964725733,  0.0026306626386940,  0.0021033480297774 ]
  - [  -0.0009415278909728,  0.0026323986239731,  0.0021045506000519 ]
  - [  -0.0009297616779804,  0.0026321886107326,  0.0021041503641754 ]
  - [  -0.0000643110106466,  0.0026904223486781,  0.0019596731290221 ]
  - [  -0.0000758625246817,  0.0026028044521809,  0.0021771593019366 ]
  - [  -0.0000759734248277,  0.0026030698791146,  0.0021758666262031 ]
  - [  -0.0000766104494687,  0.0026431228034198,  0.0020979789551347 ]
  - [  -0.0000783907598816,  0.0026268691290170,  0.0021065208129585 ]
  - [  -0.0000783618015703,  0.0026272018440068,  0.0021064830943942 ]
  - [  -0.0000829383861856,  0.0026266337372363,  0.0020986690651625 ]
  - [  -0.0000757027446525,  0.0026347688399255,  0.0021080279257149 ]
  - [  -0.0000747943995520,  0.0026350161060691,  0.0021079611033201 ]
  - [   0.0007613573689014,  0.0056975223124027,  0.0179303269833326 ]
  - [   0.0005883438279852,  0.0056635607033968,  0.0177255645394325 ]
  - [   0.0007644603610970,  0.0056258542463183,  0.0175199843943119 ]
  - [   0.0006208280101418,  0.0056622759439051,  0.0177436284720898 ]
  - [   0.0006209127604961,  0.0056641693226993,  0.0177060291171074 ]
  - [   0.0005243854830042,  0.0056632691994309,  0.0177267063409090 ]
  - [   0.0005096457898617,  0.0056653157807887,  0.0177303757518530 ]
  - [   0.0006203916855156,  0.0056961043737829,  0.0177105497568846 ]
  - [   0.0006211916916072,  0.0056308489292860,  0.0177428312599659 ]
  - [   0.0007840885082260,  0.0058334013447165,  0.0177704151719809 ]
  - [   0.0005852356553078,  0.0056412462145090,  0.0177191942930222 ]
  - [   0.0007836164440960,  0.0055100098252296,  0.0176925491541624 ]
  - [   0.0011766427196562,  0.0023038797080517, -0.0248456373810768 ]
  - [   0.0004033330769744,  0.0024183727800846, -0.0256008915603161 ]
  - [   0.0011589437490329,  0.0025320276618004, -0.0263284575194120 ]
  - [   0.0003597617615014,  0.0024374946951866, -0.0255925729870796 ]
  - [   0.0004184973076917,  0.0023948550224304, -0.0256166756153107 ]
  - [   0.0003634605673142,  0.0024231746792793, -0.0255919843912125 ]
  - [   0.0003545271465555,  0.0024168081581593, -0.0256011951714754 ]
  - [   0.0003790996852331,  0.0024029687047005, -0.0255816094577312 ]
  - [   0.0003792369680014,  0.0024303682148457, -0.0256197638809681 ]
  - [   0.0004005722003058,  0.0024378709495068, -0.0255735870450735 ]
  - [   0.0004022220382467,  0.0023999363183975, -0.0256284400820732 ]
  - [   0.0003962510090787,  0.0024153478443623, -0.0256004557013512 ]
  - [   0.0025345720350742, -0.0088552571833134, -0.0031302757561207 ]
  - [   0.0001636231318116, -0.0106071094051003, -0.0024459082633257 ]
  - [   0.0025052430573851, -0.0123244766145945, -0.0017687920480967 ]
  - [   0.0001544905826449, -0.0106038860976696, -0.0024452842772007 ]
  - [   0.0002507544122636, -0.0106380088254809, -0.0024241264909506 ]
  - [   0.0002435801434331, -0.0105773592367768, -0.0024641808122396 ]
  - [   0.0001528143766336, -0.0106070693582296, -0.0024454854428768 ]
  - [   0.0001554898335598, -0.0106084626168013, -0.0024397242814302 ]
  - [   0.0001565684797242, -0.0106077799573541, -0.0024435818195343 ]
  - [   0.0001556330826133, -0.0106116198003292, -0.0024495683610439 ]
  - [   0.0001579085364938, -0.0106024108827114, -0.0024318061769009 ]
  - [   0.0001541909296066, -0.0106074176728725, -0.0024488382041454 ]
  - [  -0.0004287919146009, -0.0074001844041049, -0.0198037996888161 ]
  - [  -0.0004294420650695, -0.0073370356112719, -0.0198364518582821 ]
  - [  -0.0005295533337630, -0.0073713809251785, -0.0198217686265707 ]
  - [  -0.0002722283243202, -0.0075163398869336, -0.0198572296649218 ]
  - [  -0.0004627559392247, -0.0073902895674109, -0.0198261477053165 ]
  - [  -0.0002631099487189, -0.0071947751566768, -0.0197771862149239 ]
  - [  -0.0002869964810088, -0.0074057006277144, -0.0200248956680298 ]
  - [  -0.0004630043404177, -0.0073681408539414, -0.0198208577930927 ]
  - [  -0.0002855424536392, -0.0073332805186510, -0.0196144282817841 ]
  - [  -0.0005260229809210, -0.0073703257367015, -0.0198194924741983 ]
  - [  -0.0004269208293408, -0.0073689739219844, -0.0198403429239988 ]
  - [  -0.0004291450604796, -0.0073708388954401, -0.0198028627783060 ]
  - [  -0.0000321706174873, -0.0018233731389046,  0.0258964989334345 ]
  - [  -0.0000328020469169, -0.0018517225980759,  0.0259337686002254 ]
  - [  -0.0000568060531805, -0.0018370822072029,  0.0259147211909294 ]
  - [  -0.0000153188593686, -0.0018400996923447,  0.0259158052504063 ]
  - [  -0.0000089795794338, -0.0018555372953415,  0.0258879102766514 ]
  - [  -0.0000106607330963, -0.0018187686800957,  0.0259420052170753 ]
  - [   0.0007728924974799, -0.0017212554812431,  0.0251540243625641 ]
  - [  -0.0000086413201643, -0.0018365085124969,  0.0259161181747913 ]
  - [   0.0007548044668511, -0.0019549988210201,  0.0266526192426682 ]
  - [  -0.0000482201576233, -0.0018322058022022,  0.0259242206811905 ]
  - [   0.0000095404684544, -0.0018609613180161,  0.0258996970951557 ]
  - [  -0.0000520364264958, -0.0018200501799583,  0.0259231831878424 ]
  - [   0.0016577718779445,  0.0083547448739409,  0.0030698832124472 ]
  - [  -0.0007201186963357,  0.0101133044809103,  0.0023744590580463 ]
  - [   0.0016286843456328,  0.0118324346840382,  0.0016949139535427 ]
  - [  -0.0006404719897546,  0.0101419035345316,  0.0023563560098410 ]
  - [  -0.0006370514747687,  0.0100821759551764,  0.0023963078856468 ]
  - [  -0.0007264327141456,  0.0101088229566813,  0.0023762080818415 ]
  - [  -0.0007265903986990,  0.0101126823574305,  0.0023770667612553 ]
  - [  -0.0007292776717804,  0.0101113952696323,  0.0023804735392332 ]
  - [  -0.0007316180854104,  0.0101124374195933,  0.0023740697652102 ]
  - [  -0.0007301309378818,  0.0101121254265308,  0.0023711510002613 ]
  - [  -0.0007275242824107,  0.0101160444319248,  0.0023880135267973 ]
  - [  -0.0007270772475749,  0.0101081077009439,  0.0023718327283859 ]
  - [   0.0002604640321806, -0.0290526133030653, -0.0367966070771217 ]
  - [   0.0006265988340601, -0.0292016938328743, -0.0366405993700027 ]
  - [   0.0006299213855527, -0.0289104394614697, -0.0369009599089622 ]
  - [   0.0003359979018569, -0.0291694849729538, -0.0369192957878113 ]
  - [   0.0004845792427659, -0.0290423147380352, -0.0367782711982727 ]
  - [   0.0003337413072586, -0.0289605967700481, -0.0366198159754276 ]
  - [   0.0005714461440220, -0.0291287545114756, -0.0367230102419853 ]
  - [   0.0005730441771448, -0.0289892014116049, -0.0368250384926796 ]
  - [   0.0004821805050597, -0.0290595255792141, -0.0367708280682564 ]
  - [   0.0004474557936192, -0.0290652699768543, -0.0367797948420048 ]
  - [   0.0005039861425757, -0.0291044041514397, -0.0367019101977348 ]
  - [   0.0004856791347265, -0.0290030166506767, -0.0368412658572197 ]
  - [  -0.0003022029995918,  0.0279781110584736,  0.0365623459219933 ]
  - [  -0.0003896094858646,  0.0280467793345451,  0.0365165099501610 ]
  - [  -0.0002991668879986,  0.0281143169850111,  0.0364664010703564 ]
  - [  -0.0004206511366647,  0.0280401818454266,  0.0365107841789722 ]
  - [  -0.0003903849865310,  0.0281031057238579,  0.0364470556378365 ]
  - [  -0.0003726371505763,  0.0280037056654692,  0.0365856699645519 ]
  - [  -0.0006111524999142,  0.0280250683426857,  0.0365353301167488 ]
  - [  -0.0002379426732659,  0.0281978175044060,  0.0363864153623581 ]
  - [  -0.0002530934289098,  0.0279061235487461,  0.0366472713649273 ]
  - [  -0.0005376860499382,  0.0279368311166763,  0.0363661199808121 ]
  - [  -0.0005387514829636,  0.0281431935727596,  0.0366703867912292 ]
  - [  -0.0003881752490997,  0.0280647017061710,  0.0365075543522835 ]
- atom:    1
  displacement:
    [  -0.0100000000000000,  0.0000000000000000,  0.0000000000000000 ]
  forces:
  - [   0.0117035526782274,  0.0026345006190240,  0.0021055727265775 ]
  - [   0.0007737169507891,  0.0026330263353884,  0.0021032146178186 ]
  - [   0.0007854303112254,  0.0026331129483879,  0.0021035484969616 ]
  - [  -0.0000924671912799,  0.0025743478909135,  0.0022491365671158 ]
  - [  -0.0000805955642136,  0.0026615904644132,  0.0020319717004895 ]
  - [  -0.0000807466858532,  0.0026608835905790,  0.0020317221060395 ]
  - [  -0.0000790129997768,  0.0026213955134153,  0.0021099811419845 ]
  - [  -0.0000771731429268,  0.0026378347538412,  0.0021003340370953 ]
  - [  -0.0000772302155383,  0.0026378429029137,  0.0021008346229792 ]
  - [  -0.0000731332256692,  0.0026376768946648,  0.0021112165413797 ]
  - [  -0.0000805407034932,  0.0026289792731404,  0.0021019808482379 ]
  - [  -0.0000796447566245,  0.0026293487753719,  0.0021017219405621 ]
  - [   0.0004267088370398,  0.0056269415654242,  0.0175202824175358 ]
  - [   0.0006057834834792,  0.0056610498577356,  0.0177261512726545 ]
  - [   0.0004295592661947,  0.0056988373398781,  0.0179295241832733 ]
  - [   0.0005721329944208,  0.0056633511558175,  0.0177077390253544 ]
  - [   0.0005705278017558,  0.0056628207676113,  0.0177447870373726 ]
  - [   0.0006683351239190,  0.0056637204252183,  0.0177236795425415 ]
  - [   0.0006813546642661,  0.0056652193889022,  0.0177285894751549 ]
  - [   0.0005716695450246,  0.0056315436959267,  0.0177429988980293 ]
  - [   0.0005718283355236,  0.0056946775875986,  0.0177108794450760 ]
  - [   0.0004023907822557,  0.0054883798584342,  0.0176856424659491 ]
  - [   0.0006062426255085,  0.0056845801882446,  0.0177333354949951 ]
  - [   0.0004137211362831,  0.0058120824396610,  0.0177624430507421 ]
  - [  -0.0003621546784416,  0.0025326535105705, -0.0263315178453922 ]
  - [   0.0003976905718446,  0.0024168975651264, -0.0256002880632877 ]
  - [  -0.0003752933116630,  0.0023044906556606, -0.0248489324003458 ]
  - [   0.0004415610455908,  0.0024007186293602, -0.0256082452833652 ]
  - [   0.0003809169284068,  0.0024415105581284, -0.0255844406783581 ]
  - [   0.0004368641821202,  0.0024134889245033, -0.0256088487803936 ]
  - [   0.0004454771988094,  0.0024160444736481, -0.0256009157747030 ]
  - [   0.0004213828069624,  0.0024308450520039, -0.0256198700517416 ]
  - [   0.0004218738176860,  0.0024031773209572, -0.0255819186568260 ]
  - [   0.0003971013939008,  0.0023973956704140, -0.0256283804774284 ]
  - [   0.0003964671632275,  0.0024358034133911, -0.0255728028714657 ]
  - [   0.0004053742159158,  0.0024199075996876, -0.0256012212485075 ]
  - [  -0.0021934742107987, -0.0123239550739527, -0.0017711594700813 ]
  - [   0.0001465934328735, -0.0106089785695076, -0.0024428255856037 ]
  - [  -0.0022218809463084, -0.0088541768491268, -0.0031307693570852 ]
  - [   0.0001572868786752, -0.0106038972735405, -0.0024443008005619 ]
  - [   0.0000645659747534, -0.0105777308344841, -0.0024640597403049 ]
  - [   0.0000688151340000, -0.0106372982263565, -0.0024249237030745 ]
  - [   0.0001575150527060, -0.0106081236153841, -0.0024403128772974 ]
  - [   0.0001566868741065, -0.0106067266315222, -0.0024456568062305 ]
  - [   0.0001509687281214, -0.0106086451560259, -0.0024428591132164 ]
  - [   0.0001547175925225, -0.0106027945876122, -0.0024378299713135 ]