# Thermal properties / unit cell (natom)

unit:
  temperature:   K
  free_energy:   kJ/mol
  entropy:       J/K/mol
  heat_capacity: J/K/mol

natom: 8    
cutoff_frequency: 0.00000
num_modes: 155520
num_integrated_modes: 155497

zero_point_energy:      22.8887397

thermal_properties:
- temperature:         0.0000000
  free_energy:        22.8887397
  entropy:             0.0000000
  heat_capacity:       0.0000000
  energy:             22.8887397

- temperature:        10.0000000
  free_energy:        22.8841913
  entropy:             1.5603615
  heat_capacity:       4.2687341
  energy:             22.8997950

- temperature:        20.0000000
  free_energy:        22.8316630
  entropy:            10.4731304
  heat_capacity:      26.3279473
  energy:             23.0411256

- temperature:        30.0000000
  free_energy:        22.6527950
  entropy:            25.8848005
  heat_capacity:      50.2215317
  energy:             23.4293390

- temperature:        40.0000000
  free_energy:        22.3093584
  entropy:            42.8078401
  heat_capacity:      67.2627234
  energy:             24.0216720

- temperature:        50.0000000
  free_energy:        21.7983963
  entropy:            59.2531288
  heat_capacity:      80.1934349
  energy:             24.7610527

- temperature:        60.0000000
  free_energy:        21.1270323
  entropy:            74.8878985
  heat_capacity:      91.4961637
  energy:             25.6203062

- temperature:        70.0000000
  free_energy:        20.3030709
  entropy:            89.7926833
  heat_capacity:     102.0493440
  energy:             26.5885587

- temperature:        80.0000000
  free_energy:        19.3332538
  entropy:           104.0732851
  heat_capacity:     111.9442659
  energy:             27.6591166

- temperature:        90.0000000
  free_energy:        18.2234702
  entropy:           117.7933246
  heat_capacity:     121.0681230
  energy:             28.8248694

- temperature:       100.0000000
  free_energy:        16.9791488
  entropy:           130.9844485
  heat_capacity:     129.3288428
  energy:             30.0775937

- temperature:       110.0000000
  free_energy:        15.6054874
  entropy:           143.6636056
  heat_capacity:     136.7028010
  energy:             31.4084840

- temperature:       120.0000000
  free_energy:        14.1075400
  entropy:           155.8438295
  heat_capacity:     143.2227987
  energy:             32.8087995

- temperature:       130.0000000
  free_energy:        12.4902276
  entropy:           167.5391186
  heat_capacity:     148.9551575
  energy:             34.2703130

- temperature:       140.0000000
  free_energy:        10.7583195
  entropy:           178.7659139
  heat_capacity:     153.9810257
  energy:             35.7855475

- temperature:       150.0000000
  free_energy:         8.9164085
  entropy:           189.5430009
  heat_capacity:     158.3842886
  energy:             37.3478586

- temperature:       160.0000000
  free_energy:         6.9688904
  entropy:           199.8908405
  heat_capacity:     162.2447983
  energy:             38.9514249

- temperature:       170.0000000
  free_energy:         4.9199513
  entropy:           209.8308059
  heat_capacity:     165.6351323
  energy:             40.5911883

- temperature:       180.0000000
  free_energy:         2.7735618
  entropy:           219.3845186
  heat_capacity:     168.6194616
  energy:             42.2627751

- temperature:       190.0000000
  free_energy:         0.5334772
  entropy:           228.5733361
  heat_capacity:     171.2535778
  energy:             43.9624110

- temperature:       200.0000000
  free_energy:        -1.7967578
  entropy:           237.4179898
  heat_capacity:     173.5854962
  energy:             45.6868401

- temperature:       210.0000000
  free_energy:        -4.2138017
  entropy:           245.9383475
  heat_capacity:     175.6562970
  energy:             47.4332512

- temperature:       220.0000000
  free_energy:        -6.7145068
  entropy:           254.1532720
  heat_capacity:     177.5010204
  energy:             49.1992131

- temperature:       230.0000000
  free_energy:        -9.2959085
  entropy:           262.0805502
  heat_capacity:     179.1495221
  energy:             50.9826181

- temperature:       240.0000000
  free_energy:       -11.9552147
  entropy:           269.7368724
  heat_capacity:     180.6272472
  energy:             52.7816347

- temperature:       250.0000000
  free_energy:       -14.6897949
  entropy:           277.1378454
  heat_capacity:     181.9559066
  energy:             54.5946665

- temperature:       260.0000000
  free_energy:       -17.4971691
  entropy:           284.2980276
  heat_capacity:     183.1540591
  energy:             56.4203181

- temperature:       270.0000000
  free_energy:       -20.3749981
  entropy:           291.2309777
  heat_capacity:     184.2376043
  energy:             58.2573659

- temperature:       280.0000000
  free_energy:       -23.3210734
  entropy:           297.9493115
  heat_capacity:     185.2201989
  energy:             60.1047339

- temperature:       290.0000000
  free_energy:       -26.3333081
  entropy:           304.4647616
  heat_capacity:     186.1136046
  energy:             61.9614727

- temperature:       300.0000000
  free_energy:       -29.4097288
  entropy:           310.7882381
  heat_capacity:     186.9279802
  energy:             63.8267427

- temperature:       310.0000000
  free_energy:       -32.5484669
  entropy:           316.9298879
  heat_capacity:     187.6721255
  energy:             65.6997984

- temperature:       320.0000000
  free_energy:       -35.7477520
  entropy:           322.8991520
  heat_capacity:     188.3536856
  energy:             67.5799767

- temperature:       330.0000000
  free_energy:       -39.0059047
  entropy:           328.7048195
  heat_capacity:     188.9793214
  energy:             69.4666858

- temperature:       340.0000000
  free_energy:       -42.3213304
  entropy:           334.3550781
  heat_capacity:     189.5548532
  energy:             71.3593962

- temperature:       350.0000000
  free_energy:       -45.6925137
  entropy:           339.8575617
  heat_capacity:     190.0853816
  energy:             73.2576329

- temperature:       360.0000000
  free_energy:       -49.1180129
  entropy:           345.2193934
  heat_capacity:     190.5753882
  energy:             75.1609688

- temperature:       370.0000000
  free_energy:       -52.5964550
  entropy:           350.4472264
  heat_capacity:     191.0288219
  energy:             77.0690188

- temperature:       380.0000000
  free_energy:       -56.1265315
  entropy:           355.5472802
  heat_capacity:     191.4491713
  energy:             78.9814350

- temperature:       390.0000000
  free_energy:       -59.7069941
  entropy:           360.5253753
  heat_capacity:     191.8395261
  energy:             80.8979023

- temperature:       400.0000000
  free_energy:       -63.3366507
  entropy:           365.3869635
  heat_capacity:     192.2026300
  energy:             82.8181347

- temperature:       410.0000000
  free_energy:       -67.0143621
  entropy:           370.1371568
  heat_capacity:     192.5409248
  energy:             84.7418722

- temperature:       420.0000000
  free_energy:       -70.7390385
  entropy:           374.7807531
  heat_capacity:     192.8565888
  energy:             86.6688778

- temperature:       430.0000000
  free_energy:       -74.5096369
  entropy:           379.3222603
  heat_capacity:     193.1515701
  energy:             88.5989351

- temperature:       440.0000000
  free_energy:       -78.3251576
  entropy:           383.7659174
  heat_capacity:     193.4276142
  energy:             90.5318461

- temperature:       450.0000000
  free_energy:       -82.1846424
  entropy:           388.1157152
  heat_capacity:     193.6862888
  energy:             92.4674295

- temperature:       460.0000000
  free_energy:       -86.0871716
  entropy:           392.3754136
  heat_capacity:     193.9290046
  energy:             94.4055187

- temperature:       470.0000000
  free_energy:       -90.0318622
  entropy:           396.5485591
  heat_capacity:     194.1570335
  energy:             96.3459606

- temperature:       480.0000000
  free_energy:       -94.0178654
  entropy:           400.6384993
  heat_capacity:     194.3715248
  energy:             98.2886142

- temperature:       490.0000000
  free_energy:       -98.0443654
  entropy:           404.6483976
  heat_capacity:     194.5735186
  energy:            100.2333495

- temperature:       500.0000000
  free_energy:      -102.1105766
  entropy:           408.5812454
  heat_capacity:     194.7639579
  energy:            102.1800461

- temperature:       510.0000000
  free_energy:      -106.2157429
  entropy:           412.4398742
  heat_capacity:     194.9436994
  energy:            104.1285930

- temperature:       520.0000000
  free_energy:      -110.3591356
  entropy:           416.2269666
  heat_capacity:     195.1135226
  energy:            106.0788870

- temperature:       530.0000000
  free_energy:      -114.5400523
  entropy:           419.9450660
  heat_capacity:     195.2741379
  energy:            108.0308327

- temperature:       540.0000000
  free_energy:      -118.7578150
  entropy:           423.5965857
  heat_capacity:     195.4261937
  energy:            109.9843413

- temperature:       550.0000000
  free_energy:      -123.0117697
  entropy:           427.1838177
  heat_capacity:     195.5702828
  energy:            111.9393300

- temperature:       560.0000000
  free_energy:      -127.3012844
  entropy:           430.7089403
  heat_capacity:     195.7069480
  energy:            113.8957222

- temperature:       570.0000000
  free_energy:      -131.6257484
  entropy:           434.1740251
  heat_capacity:     195.8366870
  energy:            115.8534459

- temperature:       580.0000000
  free_energy:      -135.9845713
  entropy:           437.5810443
  heat_capacity:     195.9599567
  energy:            117.8124344

- temperature:       590.0000000
  free_energy:      -140.3771820
  entropy:           440.9318761
  heat_capacity:     196.0771773
  energy:            119.7726249

- temperature:       600.0000000
  free_energy:      -144.8030275
  entropy:           444.2283109
  heat_capacity:     196.1887356
  energy:            121.7339590

- temperature:       610.0000000
  free_energy:      -149.2615726
  entropy:           447.4720566
  heat_capacity:     196.2949882
  energy:            123.6963819

- temperature:       620.0000000
  free_energy:      -153.7522985
  entropy:           450.6647430
  heat_capacity:     196.3962643
  energy:            125.6598422

- temperature:       630.0000000
  free_energy:      -158.2747024
  entropy:           453.8079271
  heat_capacity:     196.4928680
  energy:            127.6242916

- temperature:       640.0000000
  free_energy:      -162.8282970
  entropy:           456.9030967
  heat_capacity:     196.5850807
  energy:            129.5896849

- temperature:       650.0000000
  free_energy:      -167.4126091
  entropy:           459.9516747
  heat_capacity:     196.6731631
  energy:            131.5559795

- temperature:       660.0000000
  free_energy:      -172.0271797
  entropy:           462.9550227
  heat_capacity:     196.7573569
  energy:            133.5231352

- temperature:       670.0000000
  free_energy:      -176.6715631
  entropy:           465.9144441
  heat_capacity:     196.8378865
  energy:            135.4911144

- temperature:       680.0000000
  free_energy:      -181.3453263
  entropy:           468.8311879
  heat_capacity:     196.9149604
  energy:            137.4598815

- temperature:       690.0000000
  free_energy:      -186.0480486
  entropy:           471.7064513
  heat_capacity:     196.9887725
  energy:            139.4294028

- temperature:       700.0000000
  free_energy:      -190.7793209
  entropy:           474.5413822
  heat_capacity:     197.0595034
  energy:            141.3996466

- temperature:       710.0000000
  free_energy:      -195.5387455
  entropy:           477.3370826
  heat_capacity:     197.1273216
  energy:            143.3705831

- temperature:       720.0000000
  free_energy:      -200.3259353
  entropy:           480.0946100
  heat_capacity:     197.1923840
  energy:            145.3421839

- temperature:       730.0000000
  free_energy:      -205.1405138
  entropy:           482.8149808
  heat_capacity:     197.2548373
  energy:            147.3144221

- temperature:       740.0000000
  free_energy:      -209.9821144
  entropy:           485.4991713
  heat_capacity:     197.3148186
  energy:            149.2872724

- temperature:       750.0000000
  free_energy:      -214.8503798
  entropy:           488.1481206
  heat_capacity:     197.3724561
  energy:            151.2607107

- temperature:       760.0000000
  free_energy:      -219.7449623
  entropy:           490.7627321
  heat_capacity:     197.4278698
  energy:            153.2347141

- temperature:       770.0000000
  free_energy:      -224.6655229
  entropy:           493.3438752
  heat_capacity:     197.4811722
  energy:            155.2092610

- temperature:       780.0000000
  free_energy:      -229.6117311
  entropy:           495.8923871
  heat_capacity:     197.5324689
  energy:            157.1843309

- temperature:       790.0000000
  free_energy:      -234.5832646
  entropy:           498.4090742
  heat_capacity:     197.5818588
  energy:            159.1599040

- temperature:       800.0000000
  free_energy:      -239.5798090
  entropy:           500.8947138
  heat_capacity:     197.6294349
  energy:            161.1359620

- temperature:       810.0000000
  free_energy:      -244.6010578
  entropy:           503.3500553
  heat_capacity:     197.6752848
  energy:            163.1124870

- temperature:       820.0000000
  free_energy:      -249.6467116
  entropy:           505.7758217
  heat_capacity:     197.7194905
  energy:            165.0894622

- temperature:       830.0000000
  free_energy:      -254.7164780
  entropy:           508.1727104
  heat_capacity:     197.7621295
  energy:            167.0668716

- temperature:       840.0000000
  free_energy:      -259.8100718
  entropy:           510.5413947
  heat_capacity:     197.8032748
  energy:            169.0446998

- temperature:       850.0000000
  free_energy:      -264.9272141
  entropy:           512.8825252
  heat_capacity:     197.8429950
  energy:            171.0229323

- temperature:       860.0000000
  free_energy:      -270.0676325
  entropy:           515.1967299
  heat_capacity:     197.8813551
  energy:            173.0015552

- temperature:       870.0000000
  free_energy:      -275.2310609
  entropy:           517.4846161
  heat_capacity:     197.9184162
  energy:            174.9805551

- temperature:       880.0000000
  free_energy:      -280.4172391
  entropy:           519.7467710
  heat_capacity:     197.9542361
  energy:            176.9599194

- temperature:       890.0000000
  free_energy:      -285.6259125
  entropy:           521.9837622
  heat_capacity:     197.9888696
  energy:            178.9396359

- temperature:       900.0000000
  free_energy:      -290.8568323
  entropy:           524.1961392
  heat_capacity:     198.0223682
  energy:            180.9196930

- temperature:       910.0000000
  free_energy:      -296.1097550
  entropy:           526.3844336
  heat_capacity:     198.0547809
  energy:            182.9000796

- temperature:       920.0000000
  free_energy:      -301.3844424
  entropy:           528.5491603
  heat_capacity:     198.0861540
  energy:            184.8807851

- temperature:       930.0000000
  free_energy:      -306.6806613
  entropy:           530.6908179
  heat_capacity:     198.1165314
  energy:            186.8617994

- temperature:       940.0000000
  free_energy:      -311.9981835
  entropy:           532.8098894
  heat_capacity:     198.1459546
  energy:            188.8431126

- temperature:       950.0000000
  free_energy:      -317.3367854
  entropy:           534.9068429
  heat_capacity:     198.1744631
  energy:            190.8247154

- temperature:       960.0000000
  free_energy:      -322.6962481
  entropy:           536.9821323
  heat_capacity:     198.2020943
  energy:            192.8065989

- temperature:       970.0000000
  free_energy:      -328.0763573
  entropy:           539.0361977
  heat_capacity:     198.2288838
  energy:            194.7887545

- temperature:       980.0000000
  free_energy:      -333.4769027
  entropy:           541.0694660
  heat_capacity:     198.2548652
  energy:            196.7711739

- temperature:       990.0000000
  free_energy:      -338.8976786
  entropy:           543.0823514
  heat_capacity:     198.2800708
  energy:            198.7538492

- temperature:      1000.0000000
  free_energy:      -344.3384832
  entropy:           545.0752560
  heat_capacity:     198.3045311
  energy:            200.7367728
