phonopy:
  version: "2.37.1"
  frequency_unit_conversion_factor: 15.633302
  symmetry_tolerance: 1.00000e-05

space_group:
  type: "I4/mmm"
  number: 139
  Hall_symbol: "-I 4 2"

primitive_matrix:
- [  1.000000000000000,  0.000000000000000, -1.000000000000000 ]
- [  1.000000000000000,  0.000000000000000,  0.000000000000000 ]
- [  1.000000000000000, -1.000000000000000,  0.000000000000000 ]

supercell_matrix:
- [   2,   0,   0 ]
- [   0,   2,   0 ]
- [   0,   0,   2 ]

primitive_cell:
  lattice:
  - [     4.006666274533245,     2.183802725210444,     2.487111766725717 ] # a
  - [     4.006666274534878,     2.183802725211335,    -2.487111766725717 ] # b
  - [    -5.196931202000000,     0.000000000000000,     0.000000000000000 ] # c
  points:
  - symbol: Li # 1
    coordinates: [  0.828419407200000,  0.828419407200000,  0.000000000000000 ]
    mass: 6.940000
  - symbol: Li # 2
    coordinates: [  0.171580592800000,  0.171580592800000,  0.000000000000000 ]
    mass: 6.940000
  - symbol: Sn # 3
    coordinates: [  0.500000000000000,  0.500000000000000,  1.000000000000000 ]
    mass: 118.710000
  reciprocal_lattice: # without 2pi
  - [    -0.000000000000000,     0.228958410129154,     0.201036401616302 ] # a*
  - [    -0.000000000000000,     0.228958410129154,    -0.201036401616220 ] # b*
  - [    -0.192421250374674,     0.353039093448988,     0.000000000000000 ] # c*

unit_cell:
  lattice:
  - [     5.196931202000000,     0.000000000000000,     0.000000000000000 ] # a
  - [     2.816401347068123,     4.367605450421779,     0.000000000000000 ] # b
  - [    -4.006666274534878,    -2.183802725211334,     2.487111766725717 ] # c
  points:
  - symbol: Li # 1
    coordinates: [  0.828419407200000,  0.828419407200000,  0.000000000000000 ]
    mass: 6.940000
    reduced_to: 1
  - symbol: Li # 2
    coordinates: [  0.171580592800000,  0.171580592800000,  0.000000000000000 ]
    mass: 6.940000
    reduced_to: 2
  - symbol: Sn # 3
    coordinates: [  0.500000000000000,  0.500000000000000,  0.000000000000000 ]
    mass: 118.710000
    reduced_to: 3

supercell:
  lattice:
  - [    10.393862404000000,     0.000000000000000,     0.000000000000000 ] # a
  - [     5.632802694136245,     8.735210900843558,     0.000000000000000 ] # b
  - [    -8.013332549069755,    -4.367605450422668,     4.974223533451434 ] # c
  points:
  - symbol: Li # 1
    coordinates: [  0.414209703600000,  0.414209703600000,  0.000000000000000 ]
    mass: 6.940000
    reduced_to: 1
  - symbol: Li # 2
    coordinates: [  0.914209703600000,  0.414209703600000,  0.000000000000000 ]
    mass: 6.940000
    reduced_to: 1
  - symbol: Li # 3
    coordinates: [  0.414209703600000,  0.914209703600000,  0.000000000000000 ]
    mass: 6.940000
    reduced_to: 1
  - symbol: Li # 4
    coordinates: [  0.914209703600000,  0.914209703600000,  0.000000000000000 ]
    mass: 6.940000
    reduced_to: 1
  - symbol: Li # 5
    coordinates: [  0.414209703600000,  0.414209703600000,  0.500000000000000 ]
    mass: 6.940000
    reduced_to: 1
  - symbol: Li # 6
    coordinates: [  0.914209703600000,  0.414209703600000,  0.500000000000000 ]
    mass: 6.940000
    reduced_to: 1
  - symbol: Li # 7
    coordinates: [  0.414209703600000,  0.914209703600000,  0.500000000000000 ]
    mass: 6.940000
    reduced_to: 1
  - symbol: Li # 8
    coordinates: [  0.914209703600000,  0.914209703600000,  0.500000000000000 ]
    mass: 6.940000
    reduced_to: 1
  - symbol: Li # 9
    coordinates: [  0.085790296400000,  0.085790296400000,  0.000000000000000 ]
    mass: 6.940000
    reduced_to: 9
  - symbol: Li # 10
    coordinates: [  0.585790296400000,  0.085790296400000,  0.000000000000000 ]
    mass: 6.940000
    reduced_to: 9
  - symbol: Li # 11
    coordinates: [  0.085790296400000,  0.585790296400000,  0.000000000000000 ]
    mass: 6.940000
    reduced_to: 9
  - symbol: Li # 12
    coordinates: [  0.585790296400000,  0.585790296400000,  0.000000000000000 ]
    mass: 6.940000
    reduced_to: 9
  - symbol: Li # 13
    coordinates: [  0.085790296400000,  0.085790296400000,  0.500000000000000 ]
    mass: 6.940000
    reduced_to: 9
  - symbol: Li # 14
    coordinates: [  0.585790296400000,  0.085790296400000,  0.500000000000000 ]
    mass: 6.940000
    reduced_to: 9
  - symbol: Li # 15
    coordinates: [  0.085790296400000,  0.585790296400000,  0.500000000000000 ]
    mass: 6.940000
    reduced_to: 9
  - symbol: Li # 16
    coordinates: [  0.585790296400000,  0.585790296400000,  0.500000000000000 ]
    mass: 6.940000
    reduced_to: 9
  - symbol: Sn # 17
    coordinates: [  0.250000000000000,  0.250000000000000,  0.000000000000000 ]
    mass: 118.710000
    reduced_to: 17
  - symbol: Sn # 18
    coordinates: [  0.750000000000000,  0.250000000000000,  0.000000000000000 ]
    mass: 118.710000
    reduced_to: 17
  - symbol: Sn # 19
    coordinates: [  0.250000000000000,  0.750000000000000,  0.000000000000000 ]
    mass: 118.710000
    reduced_to: 17
  - symbol: Sn # 20
    coordinates: [  0.750000000000000,  0.750000000000000,  0.000000000000000 ]
    mass: 118.710000
    reduced_to: 17
  - symbol: Sn # 21
    coordinates: [  0.250000000000000,  0.250000000000000,  0.500000000000000 ]
    mass: 118.710000
    reduced_to: 17
  - symbol: Sn # 22
    coordinates: [  0.750000000000000,  0.250000000000000,  0.500000000000000 ]
    mass: 118.710000
    reduced_to: 17
  - symbol: Sn # 23
    coordinates: [  0.250000000000000,  0.750000000000000,  0.500000000000000 ]
    mass: 118.710000
    reduced_to: 17
  - symbol: Sn # 24
    coordinates: [  0.750000000000000,  0.750000000000000,  0.500000000000000 ]
    mass: 118.710000
    reduced_to: 17

displacements:
- atom:    1
  displacement:
    [   0.0100000000000000,  0.0000000000000000,  0.0000000000000000 ]
  forces:
  - [  -0.0181254297494888,  0.0011923797428608,  0.0000003632594598 ]
  - [   0.0069627948105335,  0.0036456435918808,  0.0000001630105544 ]
  - [   0.0071701779961586,  0.0035138167440891, -0.0000001708776836 ]
  - [   0.0076491460204124,  0.0037375353276730, -0.0000005954861990 ]
  - [   0.0069304183125496,  0.0038280189037323,  0.0001088890712708 ]
  - [   0.0070349499583244,  0.0036217644810677,  0.0001934586471180 ]
  - [   0.0070349648594856,  0.0036209151148796, -0.0001930791186169 ]
  - [   0.0069315619766712,  0.0038278177380562, -0.0001083390088752 ]
  - [  -0.0090081728994846, -0.0037696324288845, -0.0000004686880857 ]
  - [  -0.0075277984142303, -0.0030441433191299,  0.0000000604304660 ]
  - [  -0.0025128424167633, -0.0062771104276180,  0.0000002439865057 ]
  - [  -0.0053944922983646, -0.0029455646872520,  0.0000001778971637 ]
  - [  -0.0058872625231743, -0.0030508376657963,  0.0026284111663699 ]
  - [  -0.0066803880035877, -0.0038263350725174, -0.0000287985603791 ]
  - [  -0.0066810511052608, -0.0038254596292973,  0.0000293752455036 ]
  - [  -0.0058877319097519, -0.0030506327748299, -0.0026282095350325 ]
  - [   0.0058226301334798,  0.0028306413441896, -0.0000002261185728 ]
  - [   0.0081370063126087, -0.0038314349949360, -0.0000003787699825 ]
  - [  -0.0000179092749022,  0.0011354333255440, -0.0000000669660949 ]
  - [  -0.0007883002981544, -0.0001009484331007, -0.0000004542653187 ]
  - [   0.0024983319453895,  0.0014738477766514, -0.0041062999516726 ]
  - [  -0.0000793313229224, -0.0000896825731616, -0.0000249485710810 ]
  - [  -0.0000796713939053, -0.0000896556302905,  0.0000245233095484 ]
  - [   0.0024983831681311,  0.0014736109878868,  0.0041063548997045 ]
- atom:    1
  displacement:
    [  -0.0100000000000000,  0.0000000000000000,  0.0000000000000000 ]
  forces:
  - [   0.0316778495907784,  0.0064006149768829,  0.0000002584420145 ]
  - [   0.0065329447388649,  0.0037112273275852,  0.0000001562002581 ]
  - [   0.0063231103122234,  0.0038485378026962, -0.0000000850086508 ]
  - [   0.0058446414768696,  0.0036273039877415, -0.0000005339206837 ]
  - [   0.0065649598836899,  0.0035270191729069, -0.0001091819722205 ]
  - [   0.0064594186842442,  0.0037367753684521, -0.0001989629381569 ]
  - [   0.0064593665301800,  0.0037361234426498,  0.0001994614722207 ]
  - [   0.0065661221742630,  0.0035268627107143,  0.0001097093336284 ]
  - [  -0.0044763982295990, -0.0035968981683254, -0.0000004411413101 ]
  - [  -0.0059619247913361, -0.0042975917458534,  0.0000000539948815 ]
  - [  -0.0110494121909142, -0.0010161958634853,  0.0000002143533493 ]
  - [  -0.0080502256751060, -0.0043811760842800,  0.0000001867738320 ]
  - [  -0.0075966641306877, -0.0043052248656750, -0.0026483756955713 ]
  - [  -0.0068135336041451, -0.0035283379256725,  0.0000318658858305 ]
  - [  -0.0068140849471092, -0.0035274252295494, -0.0000312051415676 ]
  - [  -0.0075971707701683, -0.0043049156665802,  0.0026486977003515 ]
  - [  -0.0060956506058574, -0.0030033066868782, -0.0000002351662260 ]
  - [  -0.0079161245375872,  0.0036760699003935, -0.0000000957879820 ]
  - [  -0.0000035010598367, -0.0011905711144209, -0.0000003248387657 ]
  - [   0.0007852948037907,  0.0001019309420371, -0.0000002538836270 ]
  - [  -0.0025087469257414, -0.0014603544259444,  0.0040543228387833 ]
  - [   0.0000892711977940,  0.0000903195468709,  0.0000308186317852 ]
  - [   0.0000887170754140,  0.0000904589032871, -0.0000313977943733 ]
  - [  -0.0025082854554057, -0.0014611640945077, -0.0040546329692006 ]
- atom:   17
  displacement:
    [   0.0100000000000000,  0.0000000000000000,  0.0000000000000000 ]
  forces:
  - [   0.0128417089581490,  0.0066807903349400,  0.0000003835157258 ]
  - [   0.0146753080189228, -0.0002503767609596, -0.0000000596919563 ]
  - [   0.0067586265504360,  0.0051458179950714, -0.0000000404870661 ]
  - [   0.0059603415429592,  0.0035770237445831, -0.0000006687369023 ]
  - [   0.0092666298151016,  0.0051424913108349, -0.0042827865108848 ]
  - [   0.0066565684974194,  0.0035878196358681, -0.0000303513079416 ]
  - [   0.0066563710570335,  0.0035868622362614,  0.0000308550297632 ]
  - [   0.0092676803469658,  0.0051425248384476,  0.0042833108454943 ]
  - [  -0.0009240061044693, -0.0008482262492180, -0.0000006284972187 ]
  - [   0.0013775378465652, -0.0077845863997936,  0.0000000787076715 ]
  - [  -0.0067735686898232, -0.0022913478314877,  0.0000001383341441 ]
  - [  -0.0075330473482609, -0.0037803426384926,  0.0000001879088813 ]
  - [  -0.0042594075202942, -0.0022084228694439, -0.0043404470197856 ]
  - [  -0.0068261176347733, -0.0037672519683838, -0.0000246152958425 ]
  - [  -0.0068267621099949, -0.0037661120295525,  0.0000253693578998 ]
  - [  -0.0042596645653248, -0.0022082552313805,  0.0043408162891865 ]
  - [  -0.0377278402447701, -0.0076294406317174, -0.0000006013979146 ]
  - [   0.0006638967897743,  0.0001677620166447, -0.0000007102971722 ]
  - [   0.0005470761097968,  0.0002425343991490, -0.0000001782427717 ]
  - [   0.0006213088054210, -0.0001205800363095, -0.0000001464668458 ]
  - [   0.0005400922964327,  0.0003245882689953, -0.0000596270547248 ]
  - [  -0.0006210318533704,  0.0003657187626231, -0.0008494514040649 ]
  - [  -0.0006216836627573,  0.0003663184761535,  0.0008491782355122 ]
  - [   0.0005401066737249,  0.0003246385022067,  0.0000599916384090 ]

force_constants:
  format: "full"
  shape: [ 24, 24 ]
  elements:
  - # (1, 1)
    - [     2.490159728025299,     0.260411527693169,     0.000000000000125 ]
    - [     0.260411527693169,     2.154312827149073,     0.000000000000068 ]
    - [     0.000000000000125,     0.000000000000068,     2.012377521115054 ]
  - # (1, 2)
    - [    -0.021498387249521,     0.003279577328956,     0.000000000000003 ]
    - [     0.003279577328952,    -0.055265458844049,    -0.000000000000004 ]
    - [     0.000000000000003,     0.000000000000005,     0.009334193615150 ]
  - # (1, 3)
    - [    -0.042360881057156,     0.016732522273277,    -0.000000000000013 ]
    - [     0.016732522273273,    -0.034402965036410,    -0.000000000000008 ]
    - [    -0.000000000000033,    -0.000000000000009,     0.009334193615155 ]
  - # (1, 4)
    - [    -0.090229466165202,    -0.005511801004513,     0.000000000000024 ]
    - [    -0.005511801004512,    -0.083121020152822,     0.000000000000006 ]
    - [     0.000000000000017,     0.000000000000017,    -0.080116855286015 ]
  - # (1, 5)
    - [    -0.018274243494549,    -0.015047766913400,    -0.010898278323363 ]
    - [    -0.015047766913412,     0.001132523662536,    -0.005940023019629 ]
    - [    -0.010898278323380,    -0.005940023019625,    -0.050287932646469 ]
  - # (1, 6)
    - [    -0.028782479072715,     0.005755246370940,    -0.019624054402815 ]
    - [     0.005755246370917,    -0.036204891108664,     0.036004642744349 ]
    - [    -0.019624054402842,     0.036004642744406,    -0.039341744005340 ]
  - # (1, 7)
    - [    -0.028782479072722,     0.005755246370957,     0.019624054402851 ]
    - [     0.005755246370948,    -0.036204891108729,    -0.036004642744369 ]
    - [     0.019624054402838,    -0.036004642744369,    -0.039341744005268 ]
  - # (1, 8)
    - [    -0.018274243494579,    -0.015047766913398,     0.010898278323365 ]
    - [    -0.015047766913389,     0.001132523662553,     0.005940023019617 ]
    - [     0.010898278323365,     0.005940023019625,    -0.050287932646455 ]
  - # (1, 9)
    - [     0.226584494506223,     0.008636479020016,     0.000000000000030 ]
    - [     0.008636479020016,     0.215446221408052,     0.000000000000009 ]
    - [     0.000000000000023,     0.000000000000020,     0.210738974752769 ]
  - # (1, 10)
    - [     0.078286299402519,    -0.062669459514912,     0.000000000000003 ]
    - [    -0.062669459514916,    -0.556034190772272,    -0.000000000000066 ]
    - [     0.000000000000002,    -0.000000000000190,     0.029592850906595 ]
  - # (1, 11)
    - [    -0.426824080137127,     0.263045298720897,    -0.000000000000043 ]
    - [     0.263045298720894,    -0.050923811232629,     0.000000000000037 ]
    - [    -0.000000000000044,     0.000000000000046,     0.029592850906591 ]
  - # (1, 12)
    - [    -0.132790907825129,    -0.071780803859337,    -0.000000000000005 ]
    - [    -0.071780803859337,    -0.040216816608390,    -0.000000000000003 ]
    - [    -0.000000000000005,    -0.000000000000003,    -0.001093239962472 ]
  - # (1, 13)
    - [    -0.085478003088445,    -0.062718486474352,    -0.263862678690362 ]
    - [    -0.062718486474322,    -0.004591379148819,    -0.143816329417707 ]
    - [    -0.263862678690487,    -0.143816329417834,    -0.358085658226306 ]
  - # (1, 14)
    - [    -0.006658725048211,     0.014900554656905,     0.003031120832052 ]
    - [     0.014900554656896,    -0.025875635863151,    -0.005561257650001 ]
    - [     0.003031120832039,    -0.005561257650001,    -0.033997068904203 ]
  - # (1, 15)
    - [    -0.006658725048211,     0.014900554656892,    -0.003031120832013 ]
    - [     0.014900554656871,    -0.025875635863084,     0.005561257650010 ]
    - [    -0.003031120832020,     0.005561257650024,    -0.033997068904271 ]
  - # (1, 16)
    - [    -0.085478003088493,    -0.062718486474390,     0.263862678690277 ]
    - [    -0.062718486474423,    -0.004591379148875,     0.143816329417781 ]
    - [     0.263862678690512,     0.143816329417855,    -0.358085658225969 ]
  - # (1, 17)
    - [    -0.595897191343886,    -0.291662991945589,    -0.000000000000079 ]
    - [    -0.291662991945593,    -0.219745978634810,    -0.000000000000047 ]
    - [    -0.000000000000089,    -0.000000000000045,    -0.060777301681909 ]
  - # (1, 18)
    - [    -0.802617034035035,     0.375354878146263,    -0.000000000000072 ]
    - [     0.401738139982850,    -0.166322825667346,     0.000000000000061 ]
    - [    -0.000000000000084,     0.000000000000056,     0.018823997943210 ]
  - # (1, 19)
    - [     0.000731055136229,    -0.116291857504232,     0.000000000000016 ]
    - [    -0.142675119340814,    -0.969670914838610,    -0.000000000000100 ]
    - [    -0.000000000000001,    -0.000000000000096,     0.018823997943210 ]
  - # (1, 20)
    - [     0.078659921162705,     0.010154767700339,     0.000000000000039 ]
    - [     0.010154767700336,     0.065563545239989,     0.000000000000018 ]
    - [     0.000000000000029,     0.000000000000019,     0.060028766983490 ]
  - # (1, 21)
    - [    -0.250372362741971,    -0.146723411884176,     0.408075053843033 ]
    - [    -0.146723411884134,    -0.061146472460474,     0.222418178508321 ]
    - [     0.431240815780315,     0.235044499390644,    -0.638597026557074 ]
  - # (1, 22)
    - [     0.008464038235906,     0.008984795716896,     0.002785991227983 ]
    - [     0.008984795716897,    -0.003123451086318,    -0.005111513492142 ]
    - [     0.002785991227968,    -0.005111513492143,    -0.008020545085933 ]
  - # (1, 23)
    - [     0.008464038235908,     0.008984795716895,    -0.002785991227897 ]
    - [     0.008984795716896,    -0.003123451086320,     0.005111513492182 ]
    - [    -0.002785991227913,     0.005111513492180,    -0.008020545085933 ]
  - # (1, 24)
    - [    -0.250372362741837,    -0.146723411884103,    -0.408075053843139 ]
    - [    -0.146723411884061,    -0.061146472460434,    -0.222418178508386 ]
    - [    -0.431240815780339,    -0.235044499390650,    -0.638597026557605 ]
  - # (2, 1)
    - [    -0.021498387249521,     0.003279577328952,     0.000000000000003 ]
    - [     0.003279577328956,    -0.055265458844049,     0.000000000000005 ]
    - [     0.000000000000003,    -0.000000000000004,     0.009334193615150 ]
  - # (2, 2)
    - [     2.490159728025290,     0.260411527693174,     0.000000000000094 ]
    - [     0.260411527693174,     2.154312827149069,     0.000000000000054 ]
    - [     0.000000000000094,     0.000000000000054,     2.012377521114958 ]
  - # (2, 3)
    - [    -0.090229466165208,    -0.005511801004506,    -0.000000000000053 ]
    - [    -0.005511801004506,    -0.083121020152825,    -0.000000000000026 ]
    - [    -0.000000000000063,    -0.000000000000037,    -0.080116855286106 ]
  - # (2, 4)
    - [    -0.042360881057160,     0.016732522273271,     0.000000000000004 ]
    - [     0.016732522273275,    -0.034402965036410,     0.000000000000004 ]
    - [    -0.000000000000003,     0.000000000000005,     0.009334193615150 ]
  - # (2, 5)
    - [    -0.028782479072673,     0.005755246370890,    -0.019624054402819 ]
    - [     0.005755246370882,    -0.036204891108653,     0.036004642744350 ]
    - [    -0.019624054402862,     0.036004642744391,    -0.039341744005394 ]
  - # (2, 6)
    - [    -0.018274243494594,    -0.015047766913363,    -0.010898278323378 ]
    - [    -0.015047766913365,     0.001132523662513,    -0.005940023019623 ]
    - [    -0.010898278323390,    -0.005940023019634,    -0.050287932646511 ]
  - # (2, 7)
    - [    -0.018274243494593,    -0.015047766913357,     0.010898278323377 ]
    - [    -0.015047766913363,     0.001132523662467,     0.005940023019630 ]
    - [     0.010898278323365,     0.005940023019621,    -0.050287932646420 ]
  - # (2, 8)
    - [    -0.028782479072714,     0.005755246370904,     0.019624054402801 ]
    - [     0.005755246370915,    -0.036204891108621,    -0.036004642744355 ]
    - [     0.019624054402815,    -0.036004642744417,    -0.039341744005394 ]
  - # (2, 9)
    - [     0.078286299402516,    -0.062669459514918,     0.000000000000013 ]
    - [    -0.062669459514914,    -0.556034190772273,    -0.000000000000058 ]
    - [     0.000000000000007,    -0.000000000000057,     0.029592850906591 ]
  - # (2, 10)
    - [     0.226584494506217,     0.008636479020023,     0.000000000000048 ]
    - [     0.008636479020023,     0.215446221408049,     0.000000000000029 ]
    - [     0.000000000000049,     0.000000000000024,     0.210738974752677 ]
  - # (2, 11)
    - [    -0.132790907825139,    -0.071780803859332,    -0.000000000000036 ]
    - [    -0.071780803859332,    -0.040216816608393,    -0.000000000000017 ]
    - [    -0.000000000000036,    -0.000000000000017,    -0.001093239962567 ]
  - # (2, 12)
    - [    -0.426824080137127,     0.263045298720894,    -0.000000000000044 ]
    - [     0.263045298720897,    -0.050923811232629,     0.000000000000046 ]
    - [    -0.000000000000043,     0.000000000000037,     0.029592850906591 ]
  - # (2, 13)
    - [    -0.006658725048204,     0.014900554656859,     0.003031120832009 ]
    - [     0.014900554656860,    -0.025875635863046,    -0.005561257650011 ]
    - [     0.003031120832008,    -0.005561257650026,    -0.033997068904325 ]
  - # (2, 14)
    - [    -0.085478003088404,    -0.062718486474286,    -0.263862678690272 ]
    - [    -0.062718486474292,    -0.004591379148887,    -0.143816329417718 ]
    - [    -0.263862678690284,    -0.143816329417727,    -0.358085658226001 ]
  - # (2, 15)
    - [    -0.085478003088549,    -0.062718486474366,     0.263862678690318 ]
    - [    -0.062718486474348,    -0.004591379148886,     0.143816329417684 ]
    - [     0.263862678690502,     0.143816329417846,    -0.358085658226011 ]
  - # (2, 16)
    - [    -0.006658725048173,     0.014900554656841,    -0.003031120832029 ]
    - [     0.014900554656844,    -0.025875635863067,     0.005561257650005 ]
    - [    -0.003031120832040,     0.005561257650009,    -0.033997068904325 ]
  - # (2, 17)
    - [    -0.802617034035042,     0.375354878146270,    -0.000000000000082 ]
    - [     0.401738139982854,    -0.166322825667352,     0.000000000000062 ]
    - [    -0.000000000000089,     0.000000000000050,     0.018823997943207 ]
  - # (2, 18)
    - [    -0.595897191343889,    -0.291662991945594,    -0.000000000000101 ]
    - [    -0.291662991945588,    -0.219745978634808,    -0.000000000000052 ]
    - [    -0.000000000000115,    -0.000000000000062,    -0.060777301682002 ]
  - # (2, 19)
    - [     0.078659921162702,     0.010154767700335,     0.000000000000017 ]
    - [     0.010154767700340,     0.065563545239991,     0.000000000000012 ]
    - [     0.000000000000003,     0.000000000000002,     0.060028766983398 ]
  - # (2, 20)
    - [     0.000731055136222,    -0.116291857504225,     0.000000000000006 ]
    - [    -0.142675119340810,    -0.969670914838616,    -0.000000000000099 ]
    - [    -0.000000000000006,    -0.000000000000102,     0.018823997943207 ]
  - # (2, 21)
    - [     0.008464038235910,     0.008984795716875,     0.002785991227927 ]
    - [     0.008984795716852,    -0.003123451086220,    -0.005111513492162 ]
    - [     0.002785991227924,    -0.005111513492175,    -0.008020545086050 ]
  - # (2, 22)
    - [    -0.250372362742026,    -0.146723411884183,     0.408075053843119 ]
    - [    -0.146723411884178,    -0.061146472460608,     0.222418178508473 ]
    - [     0.431240815780091,     0.235044499390518,    -0.638597026556707 ]
  - # (2, 23)
    - [    -0.250372362741750,    -0.146723411884033,    -0.408075053842969 ]
    - [    -0.146723411884028,    -0.061146472460526,    -0.222418178508386 ]
    - [    -0.431240815779971,    -0.235044499390453,    -0.638597026557064 ]
  - # (2, 24)
    - [     0.008464038235911,     0.008984795716876,    -0.002785991227952 ]
    - [     0.008984795716851,    -0.003123451086221,     0.005111513492154 ]
    - [    -0.002785991227960,     0.005111513492156,    -0.008020545086050 ]
  - # (3, 1)
    - [    -0.042360881057156,     0.016732522273273,    -0.000000000000033 ]
    - [     0.016732522273277,    -0.034402965036410,    -0.000000000000009 ]
    - [    -0.000000000000013,    -0.000000000000008,     0.009334193615155 ]
  - # (3, 2)
    - [    -0.090229466165208,    -0.005511801004506,    -0.000000000000063 ]
    - [    -0.005511801004506,    -0.083121020152825,    -0.000000000000037 ]
    - [    -0.000000000000053,    -0.000000000000026,    -0.080116855286106 ]
  - # (3, 3)
    - [     2.490159728025298,     0.260411527693177,     0.000000000001579 ]
    - [     0.260411527693177,     2.154312827149070,     0.000000000000858 ]
    - [     0.000000000001579,     0.000000000000858,     2.012377521114967 ]
  - # (3, 4)
    - [    -0.021498387249518,     0.003279577328954,    -0.000000000000023 ]
    - [     0.003279577328958,    -0.055265458844047,    -0.000000000000027 ]
    - [    -0.000000000000014,    -0.000000000000007,     0.009334193615154 ]
  - # (3, 5)
    - [    -0.028782479072669,     0.005755246370892,     0.019624054402759 ]
    - [     0.005755246370884,    -0.036204891108652,    -0.036004642744388 ]
    - [     0.019624054402784,    -0.036004642744434,    -0.039341744005389 ]
  - # (3, 6)
    - [    -0.018274243494590,    -0.015047766913361,     0.010898278323323 ]
    - [    -0.015047766913363,     0.001132523662514,     0.005940023019593 ]
    - [     0.010898278323321,     0.005940023019597,    -0.050287932646488 ]
  - # (3, 7)
    - [    -0.018274243494586,    -0.015047766913354,    -0.010898278323384 ]
    - [    -0.015047766913360,     0.001132523662469,    -0.005940023019634 ]
    - [    -0.010898278323399,    -0.005940023019639,    -0.050287932646430 ]
  - # (3, 8)
    - [    -0.028782479072710,     0.005755246370906,    -0.019624054402866 ]
    - [     0.005755246370917,    -0.036204891108620,     0.036004642744325 ]
    - [    -0.019624054402892,     0.036004642744375,    -0.039341744005389 ]
  - # (3, 9)
    - [    -0.426824080137124,     0.263045298720895,    -0.000000000000156 ]
    - [     0.263045298720900,    -0.050923811232628,     0.000000000000101 ]
    - [    -0.000000000000055,     0.000000000000038,     0.029592850906595 ]
  - # (3, 10)
    - [    -0.132790907825132,    -0.071780803859328,    -0.000000000000132 ]
    - [    -0.071780803859328,    -0.040216816608391,    -0.000000000000074 ]
    - [    -0.000000000000132,    -0.000000000000074,    -0.001093239962558 ]
  - # (3, 11)
    - [     0.226584494506217,     0.008636479020023,     0.000000000000049 ]
    - [     0.008636479020023,     0.215446221408049,     0.000000000000024 ]
    - [     0.000000000000048,     0.000000000000029,     0.210738974752677 ]
  - # (3, 12)
    - [     0.078286299402519,    -0.062669459514916,     0.000000000000002 ]
    - [    -0.062669459514912,    -0.556034190772272,    -0.000000000000190 ]
    - [     0.000000000000003,    -0.000000000000066,     0.029592850906595 ]
  - # (3, 13)
    - [    -0.006658725048200,     0.014900554656861,    -0.003031120832055 ]
    - [     0.014900554656862,    -0.025875635863045,     0.005561257649991 ]
    - [    -0.003031120832068,     0.005561257649994,    -0.033997068904321 ]
  - # (3, 14)
    - [    -0.085478003088487,    -0.062718486474332,     0.263862678690304 ]
    - [    -0.062718486474337,    -0.004591379148912,     0.143816329417735 ]
    - [     0.263862678690219,     0.143816329417692,    -0.358085658225660 ]
  - # (3, 15)
    - [    -0.085478003088546,    -0.062718486474364,    -0.263862678690435 ]
    - [    -0.062718486474346,    -0.004591379148885,    -0.143816329417748 ]
    - [    -0.263862678690632,    -0.143816329417917,    -0.358085658226456 ]
  - # (3, 16)
    - [    -0.006658725048170,     0.014900554656843,     0.003031120831987 ]
    - [     0.014900554656846,    -0.025875635863066,    -0.005561257650033 ]
    - [     0.003031120831980,    -0.005561257650042,    -0.033997068904321 ]
  - # (3, 17)
    - [     0.000731055136225,    -0.116291857504223,    -0.000000000000037 ]
    - [    -0.142675119340809,    -0.969670914838614,    -0.000000000000336 ]
    - [    -0.000000000000017,    -0.000000000000109,     0.018823997943211 ]
  - # (3, 18)
    - [     0.078659921162705,     0.010154767700337,     0.000000000000022 ]
    - [     0.010154767700342,     0.065563545239992,     0.000000000000010 ]
    - [     0.000000000000006,     0.000000000000003,     0.060028766983402 ]
  - # (3, 19)
    - [    -0.595897191343886,    -0.291662991945592,    -0.000000000000371 ]
    - [    -0.291662991945586,    -0.219745978634807,    -0.000000000000205 ]
    - [    -0.000000000000152,    -0.000000000000083,    -0.060777301681998 ]
  - # (3, 20)
    - [    -0.802617034035039,     0.375354878146271,    -0.000000000000300 ]
    - [     0.401738139982856,    -0.166322825667351,     0.000000000000147 ]
    - [    -0.000000000000101,     0.000000000000044,     0.018823997943211 ]
  - # (3, 21)
    - [     0.008464038235913,     0.008984795716877,    -0.002785991227969 ]
    - [     0.008984795716854,    -0.003123451086219,     0.005111513492139 ]
    - [    -0.002785991227980,     0.005111513492145,    -0.008020545086045 ]
  - # (3, 22)
    - [    -0.250372362741881,    -0.146723411884104,    -0.408075053843100 ]
    - [    -0.146723411884099,    -0.061146472460565,    -0.222418178508462 ]
    - [    -0.431240815780198,    -0.235044499390577,    -0.638597026557243 ]
  - # (3, 23)
    - [    -0.250372362741889,    -0.146723411884108,     0.408075053842988 ]
    - [    -0.146723411884103,    -0.061146472460567,     0.222418178508396 ]
    - [     0.431240815779864,     0.235044499390394,    -0.638597026556519 ]
  - # (3, 24)
    - [     0.008464038235914,     0.008984795716878,     0.002785991227909 ]
    - [     0.008984795716853,    -0.003123451086220,    -0.005111513492177 ]
    - [     0.002785991227904,    -0.005111513492186,    -0.008020545086045 ]
  - # (4, 1)
    - [    -0.090229466165202,    -0.005511801004512,     0.000000000000017 ]
    - [    -0.005511801004513,    -0.083121020152822,     0.000000000000017 ]
    - [     0.000000000000024,     0.000000000000006,    -0.080116855286015 ]
  - # (4, 2)
    - [    -0.042360881057160,     0.016732522273275,    -0.000000000000003 ]
    - [     0.016732522273271,    -0.034402965036410,     0.000000000000005 ]
    - [     0.000000000000004,     0.000000000000004,     0.009334193615150 ]
  - # (4, 3)
    - [    -0.021498387249518,     0.003279577328958,    -0.000000000000014 ]
    - [     0.003279577328954,    -0.055265458844047,    -0.000000000000007 ]
    - [    -0.000000000000023,    -0.000000000000027,     0.009334193615154 ]
  - # (4, 4)
    - [     2.490159728025299,     0.260411527693170,     0.000000000000124 ]
    - [     0.260411527693170,     2.154312827149073,     0.000000000000068 ]
    - [     0.000000000000124,     0.000000000000068,     2.012377521115054 ]
  - # (4, 5)