# Thermal properties / unit cell (natom)

unit:
  temperature:   K
  free_energy:   kJ/mol
  entropy:       J/K/mol
  heat_capacity: J/K/mol

natom: 3    
cutoff_frequency: 0.00000
num_modes: 324000
num_integrated_modes: 318883

zero_point_energy:      11.5291110

thermal_properties:
- temperature:         0.0000000
  free_energy:        11.5291110
  entropy:             0.0000000
  heat_capacity:       0.0000000
  energy:             11.5291110

- temperature:        10.0000000
  free_energy:        11.5265893
  entropy:             0.8237760
  heat_capacity:       1.9370123
  energy:             11.5348270

- temperature:        20.0000000
  free_energy:        11.5047739
  entropy:             3.8656938
  heat_capacity:       7.7604973
  energy:             11.5820878

- temperature:        30.0000000
  free_energy:        11.4454568
  entropy:             8.0739279
  heat_capacity:      13.0665535
  energy:             11.6876746

- temperature:        40.0000000
  free_energy:        11.3430843
  entropy:            12.3734287
  heat_capacity:      16.8058252
  energy:             11.8380214

- temperature:        50.0000000
  free_energy:        11.1987434
  entropy:            16.4561126
  heat_capacity:      19.8586966
  energy:             12.0215491

- temperature:        60.0000000
  free_energy:        11.0146159
  entropy:            20.3438933
  heat_capacity:      22.9109124
  energy:             12.2352495

- temperature:        70.0000000
  free_energy:        10.7922405
  entropy:            24.1181610
  heat_capacity:      26.1779704
  energy:             12.4805118

- temperature:        80.0000000
  free_energy:        10.5324346
  entropy:            27.8367027
  heat_capacity:      29.6112614
  energy:             12.7593709

- temperature:        90.0000000
  free_energy:        10.2356049
  entropy:            31.5249641
  heat_capacity:      33.0794288
  energy:             13.0728517

- temperature:       100.0000000
  free_energy:         9.9020238
  entropy:            35.1863252
  heat_capacity:      36.4579733
  energy:             13.4206563

- temperature:       110.0000000
  free_energy:         9.5319940
  entropy:            38.8129041
  heat_capacity:      39.6584710
  energy:             13.8014134

- temperature:       120.0000000
  free_energy:         9.1259213
  entropy:            42.3928121
  heat_capacity:      42.6298524
  energy:             14.2130588

- temperature:       130.0000000
  free_energy:         8.6843332
  entropy:            45.9141421
  heat_capacity:      45.3502501
  energy:             14.6531717

- temperature:       140.0000000
  free_energy:         8.2078677
  entropy:            49.3667960
  heat_capacity:      47.8176452
  energy:             15.1192191

- temperature:       150.0000000
  free_energy:         7.6972521
  entropy:            52.7430812
  heat_capacity:      50.0421668
  energy:             15.6087143

- temperature:       160.0000000
  free_energy:         7.1532786
  entropy:            56.0376865
  heat_capacity:      52.0405643
  energy:             16.1193084

- temperature:       170.0000000
  free_energy:         6.5767816
  entropy:            59.2473876
  heat_capacity:      53.8325522
  energy:             16.6488375

- temperature:       180.0000000
  free_energy:         5.9686190
  entropy:            62.3706695
  heat_capacity:      55.4385402
  energy:             17.1953395

- temperature:       190.0000000
  free_energy:         5.3296570
  entropy:            65.4073549
  heat_capacity:      56.8783132
  energy:             17.7570544

- temperature:       200.0000000
  free_energy:         4.6607579
  entropy:            68.3582778
  heat_capacity:      58.1703276
  energy:             18.3324134

- temperature:       210.0000000
  free_energy:         3.9627721
  entropy:            71.2250121
  heat_capacity:      59.3313932
  energy:             18.9200246

- temperature:       220.0000000
  free_energy:         3.2365313
  entropy:            74.0096543
  heat_capacity:      60.3765855
  energy:             19.5186553

- temperature:       230.0000000
  free_energy:         2.4828445
  entropy:            76.7146539
  heat_capacity:      61.3192890
  energy:             20.1272149

- temperature:       240.0000000
  free_energy:         1.7024948
  entropy:            79.3426838
  heat_capacity:      62.1713103
  energy:             20.7447389

- temperature:       250.0000000
  free_energy:         0.8962381
  entropy:            81.8965419
  heat_capacity:      62.9430219
  energy:             21.3703735

- temperature:       260.0000000
  free_energy:         0.0648017
  entropy:            84.3790783
  heat_capacity:      63.6435152
  energy:             22.0033621

- temperature:       270.0000000
  free_energy:        -0.7911153
  entropy:            86.7931420
  heat_capacity:      64.2807505
  energy:             22.6430331

- temperature:       280.0000000
  free_energy:        -1.6708422
  entropy:            89.1415422
  heat_capacity:      64.8616961
  energy:             23.2887896

- temperature:       290.0000000
  free_energy:        -2.5737364
  entropy:            91.4270213
  heat_capacity:      65.3924548
  energy:             23.9400998

- temperature:       300.0000000
  free_energy:        -3.4991818
  entropy:            93.6522370
  heat_capacity:      65.8783767
  energy:             24.5964893

- temperature:       310.0000000
  free_energy:        -4.4465888
  entropy:            95.8197496
  heat_capacity:      66.3241578
  energy:             25.2575336

- temperature:       320.0000000
  free_energy:        -5.4153927
  entropy:            97.9320160
  heat_capacity:      66.7339265
  energy:             25.9228524

- temperature:       330.0000000
  free_energy:        -6.4050528
  entropy:            99.9913850
  heat_capacity:      67.1113183
  energy:             26.5921043

- temperature:       340.0000000
  free_energy:        -7.4150515
  entropy:           102.0000975
  heat_capacity:      67.4595408
  energy:             27.2649816

- temperature:       350.0000000
  free_energy:        -8.4448930
  entropy:           103.9602867
  heat_capacity:      67.7814295
  energy:             27.9412073

- temperature:       360.0000000
  free_energy:        -9.4941023
  entropy:           105.8739809
  heat_capacity:      68.0794958
  energy:             28.6205308

- temperature:       370.0000000
  free_energy:       -10.5622241
  entropy:           107.7431064
  heat_capacity:      68.3559687
  energy:             29.3027253

- temperature:       380.0000000
  free_energy:       -11.6488219
  entropy:           109.5694916
  heat_capacity:      68.6128304
  energy:             29.9875849

- temperature:       390.0000000
  free_energy:       -12.7534772
  entropy:           111.3548710
  heat_capacity:      68.8518476
  energy:             30.6749224

- temperature:       400.0000000
  free_energy:       -13.8757882
  entropy:           113.1008894
  heat_capacity:      69.0745973
  energy:             31.3645676

- temperature:       410.0000000
  free_energy:       -15.0153690
  entropy:           114.8091071
  heat_capacity:      69.2824909
  energy:             32.0563649

- temperature:       420.0000000
  free_energy:       -16.1718493
  entropy:           116.4810033
  heat_capacity:      69.4767932
  energy:             32.7501721

- temperature:       430.0000000
  free_energy:       -17.3448727
  entropy:           118.1179813
  heat_capacity:      69.6586407
  energy:             33.4458592

- temperature:       440.0000000
  free_energy:       -18.5340969
  entropy:           119.7213722
  heat_capacity:      69.8290555
  energy:             34.1433069

- temperature:       450.0000000
  free_energy:       -19.7391924
  entropy:           121.2924394
  heat_capacity:      69.9889594
  energy:             34.8424053

- temperature:       460.0000000
  free_energy:       -20.9598420
  entropy:           122.8323821
  heat_capacity:      70.1391848
  energy:             35.5430538

- temperature:       470.0000000
  free_energy:       -22.1957401
  entropy:           124.3423391
  heat_capacity:      70.2804847
  energy:             36.2451593

- temperature:       480.0000000
  free_energy:       -23.4465924
  entropy:           125.8233926
  heat_capacity:      70.4135415
  energy:             36.9486360

- temperature:       490.0000000
  free_energy:       -24.7121150
  entropy:           127.2765709
  heat_capacity:      70.5389749
  energy:             37.6534047

- temperature:       500.0000000
  free_energy:       -25.9920342
  entropy:           128.7028523
  heat_capacity:      70.6573479
  energy:             38.3593920

- temperature:       510.0000000
  free_energy:       -27.2860855
  entropy:           130.1031674
  heat_capacity:      70.7691737
  energy:             39.0665298

- temperature:       520.0000000
  free_energy:       -28.5940139
  entropy:           131.4784022
  heat_capacity:      70.8749201
  energy:             39.7747552

- temperature:       530.0000000
  free_energy:       -29.9155728
  entropy:           132.8294004
  heat_capacity:      70.9750144
  energy:             40.4840094

- temperature:       540.0000000
  free_energy:       -31.2505238
  entropy:           134.1569663
  heat_capacity:      71.0698475
  energy:             41.1942379

- temperature:       550.0000000
  free_energy:       -32.5986366
  entropy:           135.4618665
  heat_capacity:      71.1597777
  energy:             41.9053900

- temperature:       560.0000000
  free_energy:       -33.9596881
  entropy:           136.7448327
  heat_capacity:      71.2451334
  energy:             42.6174183

- temperature:       570.0000000
  free_energy:       -35.3334625
  entropy:           138.0065630
  heat_capacity:      71.3262164
  energy:             43.3302784

- temperature:       580.0000000
  free_energy:       -36.7197508
  entropy:           139.2477242
  heat_capacity:      71.4033043
  energy:             44.0439293

- temperature:       590.0000000
  free_energy:       -38.1183505
  entropy:           140.4689535
  heat_capacity:      71.4766527
  energy:             44.7583321

- temperature:       600.0000000
  free_energy:       -39.5290654
  entropy:           141.6708601
  heat_capacity:      71.5464974
  energy:             45.4734506

- temperature:       610.0000000
  free_energy:       -40.9517052
  entropy:           142.8540267
  heat_capacity:      71.6130559
  energy:             46.1892511

- temperature:       620.0000000
  free_energy:       -42.3860854
  entropy:           144.0190110
  heat_capacity:      71.6765293
  energy:             46.9057015

- temperature:       630.0000000
  free_energy:       -43.8320266
  entropy:           145.1663470
  heat_capacity:      71.7371038
  energy:             47.6227720

- temperature:       640.0000000
  free_energy:       -45.2893552
  entropy:           146.2965463
  heat_capacity:      71.7949518
  energy:             48.3404345

- temperature:       650.0000000
  free_energy:       -46.7579021
  entropy:           147.4100993
  heat_capacity:      71.8502332
  energy:             49.0586625

- temperature:       660.0000000
  free_energy:       -48.2375032
  entropy:           148.5074762
  heat_capacity:      71.9030964
  energy:             49.7774311

- temperature:       670.0000000
  free_energy:       -49.7279992
  entropy:           149.5891283
  heat_capacity:      71.9536794
  energy:             50.4967168

- temperature:       680.0000000
  free_energy:       -51.2292348
  entropy:           150.6554887
  heat_capacity:      72.0021104
  energy:             51.2164975

- temperature:       690.0000000
  free_energy:       -52.7410594
  entropy:           151.7069734
  heat_capacity:      72.0485090
  energy:             51.9367522

- temperature:       700.0000000
  free_energy:       -54.2633261
  entropy:           152.7439819
  heat_capacity:      72.0929866
  energy:             52.6574613

- temperature:       710.0000000
  free_energy:       -55.7958920
  entropy:           153.7668985
  heat_capacity:      72.1356470
  energy:             53.3786059

- temperature:       720.0000000
  free_energy:       -57.3386183
  entropy:           154.7760927
  heat_capacity:      72.1765872
  energy:             54.1001685

- temperature:       730.0000000
  free_energy:       -58.8913693
  entropy:           155.7719200
  heat_capacity:      72.2158979
  energy:             54.8221322

- temperature:       740.0000000
  free_energy:       -60.4540133
  entropy:           156.7547224
  heat_capacity:      72.2536640
  energy:             55.5444813

- temperature:       750.0000000
  free_energy:       -62.0264215
  entropy:           157.7248295
  heat_capacity:      72.2899648
  energy:             56.2672006

- temperature:       760.0000000
  free_energy:       -63.6084686
  entropy:           158.6825586
  heat_capacity:      72.3248747
  energy:             56.9902759

- temperature:       770.0000000
  free_energy:       -65.2000324
  entropy:           159.6282157
  heat_capacity:      72.3584634
  energy:             57.7136937

- temperature:       780.0000000
  free_energy:       -66.8009937
  entropy:           160.5620958
  heat_capacity:      72.3907965
  energy:             58.4374410

- temperature:       790.0000000
  free_energy:       -68.4112360
  entropy:           161.4844831
  heat_capacity:      72.4219354
  energy:             59.1615057

- temperature:       800.0000000
  free_energy:       -70.0306459
  entropy:           162.3956524
  heat_capacity:      72.4519379
  energy:             59.8858760

- temperature:       810.0000000
  free_energy:       -71.6591126
  entropy:           163.2958684
  heat_capacity:      72.4808584
  energy:             60.6105408

- temperature:       820.0000000
  free_energy:       -73.2965276
  entropy:           164.1853870
  heat_capacity:      72.5087479
  energy:             61.3354897

- temperature:       830.0000000
  free_energy:       -74.9427855
  entropy:           165.0644554
  heat_capacity:      72.5356547
  energy:             62.0607125

- temperature:       840.0000000
  free_energy:       -76.5977827
  entropy:           165.9333123
  heat_capacity:      72.5616243
  energy:             62.7861997

- temperature:       850.0000000
  free_energy:       -78.2614184
  entropy:           166.7921887
  heat_capacity:      72.5866993
  energy:             63.5119420

- temperature:       860.0000000
  free_energy:       -79.9335940
  entropy:           167.6413079
  heat_capacity:      72.6109203
  energy:             64.2379308

- temperature:       870.0000000
  free_energy:       -81.6142128
  entropy:           168.4808856
  heat_capacity:      72.6343255
  energy:             64.9641577

- temperature:       880.0000000
  free_energy:       -83.3031806
  entropy:           169.3111310
  heat_capacity:      72.6569508
  energy:             65.6906147

- temperature:       890.0000000
  free_energy:       -85.0004050
  entropy:           170.1322463
  heat_capacity:      72.6788305
  energy:             66.4172942

- temperature:       900.0000000
  free_energy:       -86.7057957
  entropy:           170.9444274
  heat_capacity:      72.6999968
  energy:             67.1441889

- temperature:       910.0000000
  free_energy:       -88.4192644
  entropy:           171.7478640
  heat_capacity:      72.7204802
  energy:             67.8712919

- temperature:       920.0000000
  free_energy:       -90.1407245
  entropy:           172.5427400
  heat_capacity:      72.7403097
  energy:             68.5985964

- temperature:       930.0000000
  free_energy:       -91.8700912
  entropy:           173.3292336
  heat_capacity:      72.7595128
  energy:             69.3260960

- temperature:       940.0000000
  free_energy:       -93.6072818
  entropy:           174.1075174
  heat_capacity:      72.7781154
  energy:             70.0537846

- temperature:       950.0000000
  free_energy:       -95.3522148
  entropy:           174.8777591
  heat_capacity:      72.7961422
  energy:             70.7816564

- temperature:       960.0000000
  free_energy:       -97.1048107
  entropy:           175.6401211
  heat_capacity:      72.8136167
  energy:             71.5097056

- temperature:       970.0000000
  free_energy:       -98.8649915
  entropy:           176.3947612
  heat_capacity:      72.8305611
  energy:             72.2379269

- temperature:       980.0000000
  free_energy:      -100.6326807
  entropy:           177.1418325
  heat_capacity:      72.8469966
  energy:             72.9663151

- temperature:       990.0000000
  free_energy:      -102.4078034
  entropy:           177.8814835
  heat_capacity:      72.8629433
  energy:             73.6948652

- temperature:      1000.0000000
  free_energy:      -104.1902861
  entropy:           178.6138585
  heat_capacity:      72.8784202
  energy:             74.4235724
