# Thermal properties / unit cell (natom)

unit:
  temperature:   K
  free_energy:   kJ/mol
  entropy:       J/K/mol
  heat_capacity: J/K/mol

natom: 8    
cutoff_frequency: 0.00000
num_modes: 181944
num_integrated_modes: 181943

zero_point_energy:      24.1397785

thermal_properties:
- temperature:         0.0000000
  free_energy:        24.1397785
  entropy:             0.0000000
  heat_capacity:       0.0000000
  energy:             24.1397785

- temperature:        10.0000000
  free_energy:        24.1377900
  entropy:             0.7348188
  heat_capacity:       2.2884526
  energy:             24.1451382

- temperature:        20.0000000
  free_energy:        24.1085665
  entropy:             6.2000295
  heat_capacity:      17.3120499
  energy:             24.2325671

- temperature:        30.0000000
  free_energy:        23.9952862
  entropy:            17.1093954
  heat_capacity:      37.7768352
  energy:             24.5085680

- temperature:        40.0000000
  free_energy:        23.7582975
  entropy:            30.5013809
  heat_capacity:      55.5925418
  energy:             24.9783527

- temperature:        50.0000000
  free_energy:        23.3832155
  entropy:            44.5449706
  heat_capacity:      70.4477996
  energy:             25.6104640

- temperature:        60.0000000
  free_energy:        22.8675133
  entropy:            58.5675666
  heat_capacity:      83.5538565
  energy:             26.3815673

- temperature:        70.0000000
  free_energy:        22.2126440
  entropy:            72.3597423
  heat_capacity:      95.5291320
  energy:             27.2778259

- temperature:        80.0000000
  free_energy:        21.4213492
  entropy:            85.8435152
  heat_capacity:     106.5041895
  energy:             28.2888304

- temperature:        90.0000000
  free_energy:        20.4969571
  entropy:            98.9725852
  heat_capacity:     116.4539418
  energy:             29.4044898

- temperature:       100.0000000
  free_energy:        19.4431966
  entropy:           111.7122623
  heat_capacity:     125.3594869
  energy:             30.6144228

- temperature:       110.0000000
  free_energy:        18.2640924
  entropy:           124.0381310
  heat_capacity:     133.2485769
  energy:             31.9082868

- temperature:       120.0000000
  free_energy:        16.9638604
  entropy:           135.9363997
  heat_capacity:     140.1885952
  energy:             33.2762283

- temperature:       130.0000000
  free_energy:        15.5468042
  entropy:           147.4029937
  heat_capacity:     146.2692488
  energy:             34.7091934

- temperature:       140.0000000
  free_energy:        14.0172273
  entropy:           158.4417591
  heat_capacity:     151.5878849
  energy:             36.1990735

- temperature:       150.0000000
  free_energy:        12.3793631
  entropy:           169.0624465
  heat_capacity:     156.2399589
  energy:             37.7387301

- temperature:       160.0000000
  free_energy:        10.6373261
  entropy:           179.2788771
  heat_capacity:     160.3138428
  energy:             39.3219465

- temperature:       170.0000000
  free_energy:         8.7950786
  entropy:           189.1074445
  heat_capacity:     163.8885600
  energy:             40.9433441

- temperature:       180.0000000
  free_energy:         6.8564108
  entropy:           198.5659700
  heat_capacity:     167.0332716
  energy:             42.5982854

- temperature:       190.0000000
  free_energy:         4.8249313
  entropy:           207.6728684
  heat_capacity:     169.8077049
  energy:             44.2827763

- temperature:       200.0000000
  free_energy:         2.7040640
  entropy:           216.4465628
  heat_capacity:     172.2630265
  energy:             45.9933766

- temperature:       210.0000000
  free_energy:         0.4970505
  entropy:           224.9050893
  heat_capacity:     174.4428712
  energy:             47.7271193

- temperature:       220.0000000
  free_energy:        -1.7930452
  entropy:           233.0658428
  heat_capacity:     176.3843716
  energy:             49.4814402

- temperature:       230.0000000
  free_energy:        -4.1633292
  entropy:           240.9454227
  heat_capacity:     178.1191121
  energy:             51.2541180

- temperature:       240.0000000
  free_energy:        -6.6110690
  entropy:           248.5595509
  heat_capacity:     179.6739762
  energy:             53.0432233

- temperature:       250.0000000
  free_energy:        -9.1336848
  entropy:           255.9230383
  heat_capacity:     181.0718804
  energy:             54.8470747

- temperature:       260.0000000
  free_energy:       -11.7287407
  entropy:           263.0497843
  heat_capacity:     182.3323990
  energy:             56.6642032

- temperature:       270.0000000
  free_energy:       -14.3939349
  entropy:           269.9527990
  heat_capacity:     183.4722922
  energy:             58.4933209

- temperature:       280.0000000
  free_energy:       -17.1270915
  entropy:           276.6442381
  heat_capacity:     184.5059490
  energy:             60.3332952

- temperature:       290.0000000
  free_energy:       -19.9261523
  entropy:           283.1354465
  heat_capacity:     185.4457579
  energy:             62.1831272

- temperature:       300.0000000
  free_energy:       -22.7891684
  entropy:           289.4370056
  heat_capacity:     186.3024158
  energy:             64.0419333

- temperature:       310.0000000
  free_energy:       -25.7142932
  entropy:           295.5587824
  heat_capacity:     187.0851866
  energy:             65.9089294

- temperature:       320.0000000
  free_energy:       -28.6997755
  entropy:           301.5099786
  heat_capacity:     187.8021168
  energy:             67.7834177

- temperature:       330.0000000
  free_energy:       -31.7439528
  entropy:           307.2991774
  heat_capacity:     188.4602165
  energy:             69.6647757

- temperature:       340.0000000
  free_energy:       -34.8452458
  entropy:           312.9343888
  heat_capacity:     189.0656104
  energy:             71.5524464

- temperature:       350.0000000
  free_energy:       -38.0021523
  entropy:           318.4230928
  heat_capacity:     189.6236650
  energy:             73.4459302

- temperature:       360.0000000
  free_energy:       -41.2132426
  entropy:           323.7722787
  heat_capacity:     190.1390953
  energy:             75.3447777

- temperature:       370.0000000
  free_energy:       -44.4771546
  entropy:           328.9884826
  heat_capacity:     190.6160558
  energy:             77.2485839

- temperature:       380.0000000
  free_energy:       -47.7925894
  entropy:           334.0778219
  heat_capacity:     191.0582164
  energy:             79.1569829

- temperature:       390.0000000
  free_energy:       -51.1583073
  entropy:           339.0460268
  heat_capacity:     191.4688273
  energy:             81.0696431

- temperature:       400.0000000
  free_energy:       -54.5731241
  entropy:           343.8984701
  heat_capacity:     191.8507744
  energy:             82.9862639

- temperature:       410.0000000
  free_energy:       -58.0359077
  entropy:           348.6401936
  heat_capacity:     192.2066263
  energy:             84.9065717

- temperature:       420.0000000
  free_energy:       -61.5455748
  entropy:           353.2759330
  heat_capacity:     192.5386744
  energy:             86.8303171

- temperature:       430.0000000
  free_energy:       -65.1010880
  entropy:           357.8101410
  heat_capacity:     192.8489675
  energy:             88.7572726

- temperature:       440.0000000
  free_energy:       -68.7014531
  entropy:           362.2470073
  heat_capacity:     193.1393419
  energy:             90.6872301

- temperature:       450.0000000
  free_energy:       -72.3457168
  entropy:           366.5904787
  heat_capacity:     193.4114462
  energy:             92.6199986

- temperature:       460.0000000
  free_energy:       -76.0329638
  entropy:           370.8442759
  heat_capacity:     193.6667643
  energy:             94.5554031

- temperature:       470.0000000
  free_energy:       -79.7623151
  entropy:           375.0119097
  heat_capacity:     193.9066341
  energy:             96.4932824

- temperature:       480.0000000
  free_energy:       -83.5329259
  entropy:           379.0966962
  heat_capacity:     194.1322643
  energy:             98.4334883

- temperature:       490.0000000
  free_energy:       -87.3439834
  entropy:           383.1017699
  heat_capacity:     194.3447489
  energy:            100.3758839

- temperature:       500.0000000
  free_energy:       -91.1947055
  entropy:           387.0300965
  heat_capacity:     194.5450798
  energy:            102.3203428

- temperature:       510.0000000
  free_energy:       -95.0843389
  entropy:           390.8844840
  heat_capacity:     194.7341582
  energy:            104.2667480

- temperature:       520.0000000
  free_energy:       -99.0121576
  entropy:           394.6675937
  heat_capacity:     194.9128037
  energy:            106.2149912

- temperature:       530.0000000
  free_energy:      -102.9774616
  entropy:           398.3819497
  heat_capacity:     195.0817637
  energy:            108.1649718

- temperature:       540.0000000
  free_energy:      -106.9795754
  entropy:           402.0299478
  heat_capacity:     195.2417201
  energy:            110.1165964

- temperature:       550.0000000
  free_energy:      -111.0178469
  entropy:           405.6138640
  heat_capacity:     195.3932964
  energy:            112.0697783

- temperature:       560.0000000
  free_energy:      -115.0916463
  entropy:           409.1358618
  heat_capacity:     195.5370637
  energy:            114.0244363

- temperature:       570.0000000
  free_energy:      -119.2003647
  entropy:           412.5979998
  heat_capacity:     195.6735453
  energy:            115.9804952

- temperature:       580.0000000
  free_energy:      -123.3434133
  entropy:           416.0022377
  heat_capacity:     195.8032218
  energy:            117.9378846

- temperature:       590.0000000
  free_energy:      -127.5202226
  entropy:           419.3504426
  heat_capacity:     195.9265353
  energy:            119.8965385

- temperature:       600.0000000
  free_energy:      -131.7302413
  entropy:           422.6443946
  heat_capacity:     196.0438926
  energy:            121.8563954

- temperature:       610.0000000
  free_energy:      -135.9729354
  entropy:           425.8857919
  heat_capacity:     196.1556687
  energy:            123.8173977

- temperature:       620.0000000
  free_energy:      -140.2477874
  entropy:           429.0762560
  heat_capacity:     196.2622100
  energy:            125.7794913

- temperature:       630.0000000
  free_energy:      -144.5542959
  entropy:           432.2173356
  heat_capacity:     196.3638362
  energy:            127.7426255

- temperature:       640.0000000
  free_energy:      -148.8919744
  entropy:           435.3105111
  heat_capacity:     196.4608435
  energy:            129.7067527

- temperature:       650.0000000
  free_energy:      -153.2603511
  entropy:           438.3571986
  heat_capacity:     196.5535059
  energy:            131.6718279

- temperature:       660.0000000
  free_energy:      -157.6589680
  entropy:           441.3587532
  heat_capacity:     196.6420778
  energy:            133.6378092

- temperature:       670.0000000
  free_energy:      -162.0873801
  entropy:           444.3164727
  heat_capacity:     196.7267952
  energy:            135.6046566

- temperature:       680.0000000
  free_energy:      -166.5451554
  entropy:           447.2316006
  heat_capacity:     196.8078773
  energy:            137.5723330

- temperature:       690.0000000
  free_energy:      -171.0318741
  entropy:           450.1053288
  heat_capacity:     196.8855283
  energy:            139.5408028

- temperature:       700.0000000
  free_energy:      -175.5471278
  entropy:           452.9388008
  heat_capacity:     196.9599380
  energy:            141.5100327

- temperature:       710.0000000
  free_energy:      -180.0905196
  entropy:           455.7331139
  heat_capacity:     197.0312836
  energy:            143.4799913

- temperature:       720.0000000
  free_energy:      -184.6616631
  entropy:           458.4893220
  heat_capacity:     197.0997303
  energy:            145.4506487

- temperature:       730.0000000
  free_energy:      -189.2601824
  entropy:           461.2084372
  heat_capacity:     197.1654323
  energy:            147.4219768

- temperature:       740.0000000
  free_energy:      -193.8857115
  entropy:           463.8914326
  heat_capacity:     197.2285338
  energy:            149.3939487

- temperature:       750.0000000
  free_energy:      -198.5378938
  entropy:           466.5392440
  heat_capacity:     197.2891697
  energy:            151.3665392

- temperature:       760.0000000
  free_energy:      -203.2163821
  entropy:           469.1527715
  heat_capacity:     197.3474662
  energy:            153.3397243

- temperature:       770.0000000
  free_energy:      -207.9208378
  entropy:           471.7328818
  heat_capacity:     197.4035418
  energy:            155.3134811

- temperature:       780.0000000
  free_energy:      -212.6509311
  entropy:           474.2804092
  heat_capacity:     197.4575074
  energy:            157.2877881

- temperature:       790.0000000
  free_energy:      -217.4063401
  entropy:           476.7961578
  heat_capacity:     197.5094670
  energy:            159.2626246

- temperature:       800.0000000
  free_energy:      -222.1867509
  entropy:           479.2809025
  heat_capacity:     197.5595187
  energy:            161.2379711

- temperature:       810.0000000
  free_energy:      -226.9918573
  entropy:           481.7353904
  heat_capacity:     197.6077542
  energy:            163.2138089

- temperature:       820.0000000
  free_energy:      -231.8213603
  entropy:           484.1603423
  heat_capacity:     197.6542602
  energy:            165.1901204

- temperature:       830.0000000
  free_energy:      -236.6749680
  entropy:           486.5564538
  heat_capacity:     197.6991180
  energy:            167.1668886

- temperature:       840.0000000
  free_energy:      -241.5523954
  entropy:           488.9243964
  heat_capacity:     197.7424045
  energy:            169.1440975

- temperature:       850.0000000
  free_energy:      -246.4533642
  entropy:           491.2648187
  heat_capacity:     197.7841917
  energy:            171.1217317

- temperature:       860.0000000
  free_energy:      -251.3776022
  entropy:           493.5783474
  heat_capacity:     197.8245481
  energy:            173.0997766

- temperature:       870.0000000
  free_energy:      -256.3248435
  entropy:           495.8655881
  heat_capacity:     197.8635380
  energy:            175.0782181

- temperature:       880.0000000
  free_energy:      -261.2948283
  entropy:           498.1271264
  heat_capacity:     197.9012222
  energy:            177.0570430

- temperature:       890.0000000
  free_energy:      -266.2873023
  entropy:           500.3635288
  heat_capacity:     197.9376582
  energy:            179.0362384

- temperature:       900.0000000
  free_energy:      -271.3020169
  entropy:           502.5753434
  heat_capacity:     197.9729004
  energy:            181.0157922

- temperature:       910.0000000
  free_energy:      -276.3387289
  entropy:           504.7631006
  heat_capacity:     198.0070001
  energy:            182.9956926

- temperature:       920.0000000
  free_energy:      -281.3972004
  entropy:           506.9273141
  heat_capacity:     198.0400062
  energy:            184.9759285

- temperature:       930.0000000
  free_energy:      -286.4771984
  entropy:           509.0684813
  heat_capacity:     198.0719647
  energy:            186.9564893

- temperature:       940.0000000
  free_energy:      -291.5784948
  entropy:           511.1870844
  heat_capacity:     198.1029195
  energy:            188.9373645

- temperature:       950.0000000
  free_energy:      -296.7008664
  entropy:           513.2835904
  heat_capacity:     198.1329119
  energy:            190.9185444

- temperature:       960.0000000
  free_energy:      -301.8440945
  entropy:           515.3584522
  heat_capacity:     198.1619815
  energy:            192.9000197

- temperature:       970.0000000
  free_energy:      -307.0079648
  entropy:           517.4121092
  heat_capacity:     198.1901655
  energy:            194.8817811

- temperature:       980.0000000
  free_energy:      -312.1922674
  entropy:           519.4449873
  heat_capacity:     198.2174995
  energy:            196.8638201

- temperature:       990.0000000
  free_energy:      -317.3967967
  entropy:           521.4575000
  heat_capacity:     198.2440172
  energy:            198.8461284

- temperature:      1000.0000000
  free_energy:      -322.6213509
  entropy:           523.4500487
  heat_capacity:     198.2697508
  energy:            200.8286979
