phonopy:
  version: "2.37.1"
  frequency_unit_conversion_factor: 15.633302
  symmetry_tolerance: 1.00000e-05

space_group:
  type: "Cmcm"
  number: 63
  Hall_symbol: "-C 2c 2"

primitive_matrix:
- [  1.000000000000000,  0.000000000000000,  0.000000000000000 ]
- [  0.000000000000000,  1.000000000000000,  0.000000000000000 ]
- [  0.000000000000000,  0.000000000000000,  1.000000000000000 ]

supercell_matrix:
- [   2,   0,   0 ]
- [   0,   2,   0 ]
- [   0,   0,   3 ]

primitive_cell:
  lattice:
  - [     7.428209230461642,     0.000000000000000,     0.000000000000000 ] # a
  - [    -6.132926441467569,     4.191123421833693,     0.000000000000000 ] # b
  - [    -0.000001490167251,     0.000000267289906,     4.655250599919824 ] # c
  points:
  - symbol: Li # 1
    coordinates: [  0.913829850925947,  0.086170138454102,  0.249999992037403 ]
    mass: 6.940000
  - symbol: Li # 2
    coordinates: [  0.086170143728894,  0.913829871533581,  0.750000015138970 ]
    mass: 6.940000
  - symbol: Sn # 3
    coordinates: [  0.570727395097381,  0.429272633936387,  0.250000014206818 ]
    mass: 118.710000
  - symbol: Sn # 4
    coordinates: [  0.429272597554910,  0.570727358724191,  0.749999995315455 ]
    mass: 118.710000
  - symbol: Sn # 5
    coordinates: [  0.241780001107749,  0.758219997738306,  0.250000023829566 ]
    mass: 118.710000
  - symbol: Sn # 6
    coordinates: [  0.758220011401104,  0.241779999262315,  0.749999959452434 ]
    mass: 118.710000
  reciprocal_lattice: # without 2pi
  - [     0.134621948436670,     0.196994081078125,     0.000000031782325 ] # a*
  - [     0.000000000000000,     0.238599511240946,    -0.000000013699636 ] # b*
  - [     0.000000000000000,     0.000000000000000,     0.214811206944954 ] # c*

unit_cell:
  lattice:
  - [     7.428209230461640,     0.000000000000000,     0.000000000000000 ] # a
  - [    -6.132926441467567,     4.191123421833692,     0.000000000000000 ] # b
  - [    -0.000001490167251,     0.000000267289906,     4.655250599919823 ] # c
  points:
  - symbol: Li # 1
    coordinates: [  0.913829850925947,  0.086170138454102,  0.249999992037403 ]
    mass: 6.940000
    reduced_to: 1
  - symbol: Li # 2
    coordinates: [  0.086170143728894,  0.913829871533582,  0.750000015138970 ]
    mass: 6.940000
    reduced_to: 2
  - symbol: Sn # 3
    coordinates: [  0.570727395097381,  0.429272633936387,  0.250000014206818 ]
    mass: 118.710000
    reduced_to: 3
  - symbol: Sn # 4
    coordinates: [  0.429272597554910,  0.570727358724191,  0.749999995315455 ]
    mass: 118.710000
    reduced_to: 4
  - symbol: Sn # 5
    coordinates: [  0.241780001107749,  0.758219997738306,  0.250000023829567 ]
    mass: 118.710000
    reduced_to: 5
  - symbol: Sn # 6
    coordinates: [  0.758220011401104,  0.241779999262315,  0.749999959452434 ]
    mass: 118.710000
    reduced_to: 6

supercell:
  lattice:
  - [    14.856418460923280,     0.000000000000000,     0.000000000000000 ] # a
  - [   -12.265852882935134,     8.382246843667383,     0.000000000000000 ] # b
  - [    -0.000004470501752,     0.000000801869719,    13.965751799759468 ] # c
  points:
  - symbol: Li # 1
    coordinates: [  0.456914925462974,  0.043085069227051,  0.083333330679134 ]
    mass: 6.940000
    reduced_to: 1
  - symbol: Li # 2
    coordinates: [  0.956914925462974,  0.043085069227051,  0.083333330679134 ]
    mass: 6.940000
    reduced_to: 1
  - symbol: Li # 3
    coordinates: [  0.456914925462974,  0.543085069227051,  0.083333330679134 ]
    mass: 6.940000
    reduced_to: 1
  - symbol: Li # 4
    coordinates: [  0.956914925462974,  0.543085069227051,  0.083333330679134 ]
    mass: 6.940000
    reduced_to: 1
  - symbol: Li # 5
    coordinates: [  0.456914925462974,  0.043085069227051,  0.416666664012468 ]
    mass: 6.940000
    reduced_to: 1
  - symbol: Li # 6
    coordinates: [  0.956914925462974,  0.043085069227051,  0.416666664012468 ]
    mass: 6.940000
    reduced_to: 1
  - symbol: Li # 7
    coordinates: [  0.456914925462974,  0.543085069227051,  0.416666664012468 ]
    mass: 6.940000
    reduced_to: 1
  - symbol: Li # 8
    coordinates: [  0.956914925462974,  0.543085069227051,  0.416666664012468 ]
    mass: 6.940000
    reduced_to: 1
  - symbol: Li # 9
    coordinates: [  0.456914925462974,  0.043085069227051,  0.749999997345801 ]
    mass: 6.940000
    reduced_to: 1
  - symbol: Li # 10
    coordinates: [  0.956914925462974,  0.043085069227051,  0.749999997345801 ]
    mass: 6.940000
    reduced_to: 1
  - symbol: Li # 11
    coordinates: [  0.456914925462974,  0.543085069227051,  0.749999997345801 ]
    mass: 6.940000
    reduced_to: 1
  - symbol: Li # 12
    coordinates: [  0.956914925462974,  0.543085069227051,  0.749999997345801 ]
    mass: 6.940000
    reduced_to: 1
  - symbol: Li # 13
    coordinates: [  0.043085071864447,  0.456914935766791,  0.250000005046323 ]
    mass: 6.940000
    reduced_to: 13
  - symbol: Li # 14
    coordinates: [  0.543085071864447,  0.456914935766791,  0.250000005046323 ]
    mass: 6.940000
    reduced_to: 13
  - symbol: Li # 15
    coordinates: [  0.043085071864447,  0.956914935766791,  0.250000005046323 ]
    mass: 6.940000
    reduced_to: 13
  - symbol: Li # 16
    coordinates: [  0.543085071864447,  0.956914935766791,  0.250000005046323 ]
    mass: 6.940000
    reduced_to: 13
  - symbol: Li # 17
    coordinates: [  0.043085071864447,  0.456914935766791,  0.583333338379657 ]
    mass: 6.940000
    reduced_to: 13
  - symbol: Li # 18
    coordinates: [  0.543085071864447,  0.456914935766791,  0.583333338379657 ]
    mass: 6.940000
    reduced_to: 13
  - symbol: Li # 19
    coordinates: [  0.043085071864447,  0.956914935766791,  0.583333338379657 ]
    mass: 6.940000
    reduced_to: 13
  - symbol: Li # 20
    coordinates: [  0.543085071864447,  0.956914935766791,  0.583333338379657 ]
    mass: 6.940000
    reduced_to: 13
  - symbol: Li # 21
    coordinates: [  0.043085071864447,  0.456914935766791,  0.916666671712990 ]
    mass: 6.940000
    reduced_to: 13
  - symbol: Li # 22
    coordinates: [  0.543085071864447,  0.456914935766791,  0.916666671712990 ]
    mass: 6.940000
    reduced_to: 13
  - symbol: Li # 23
    coordinates: [  0.043085071864447,  0.956914935766791,  0.916666671712990 ]
    mass: 6.940000
    reduced_to: 13
  - symbol: Li # 24
    coordinates: [  0.543085071864447,  0.956914935766791,  0.916666671712990 ]
    mass: 6.940000
    reduced_to: 13
  - symbol: Sn # 25
    coordinates: [  0.285363697548690,  0.214636316968194,  0.083333338068939 ]
    mass: 118.710000
    reduced_to: 25
  - symbol: Sn # 26
    coordinates: [  0.785363697548690,  0.214636316968194,  0.083333338068939 ]
    mass: 118.710000
    reduced_to: 25
  - symbol: Sn # 27
    coordinates: [  0.285363697548690,  0.714636316968194,  0.083333338068939 ]
    mass: 118.710000
    reduced_to: 25
  - symbol: Sn # 28
    coordinates: [  0.785363697548690,  0.714636316968194,  0.083333338068939 ]
    mass: 118.710000
    reduced_to: 25
  - symbol: Sn # 29
    coordinates: [  0.285363697548690,  0.214636316968194,  0.416666671402273 ]
    mass: 118.710000
    reduced_to: 25
  - symbol: Sn # 30
    coordinates: [  0.785363697548690,  0.214636316968194,  0.416666671402273 ]
    mass: 118.710000
    reduced_to: 25
  - symbol: Sn # 31
    coordinates: [  0.285363697548690,  0.714636316968194,  0.416666671402273 ]
    mass: 118.710000
    reduced_to: 25
  - symbol: Sn # 32
    coordinates: [  0.785363697548690,  0.714636316968194,  0.416666671402273 ]
    mass: 118.710000
    reduced_to: 25
  - symbol: Sn # 33
    coordinates: [  0.285363697548690,  0.214636316968194,  0.750000004735606 ]
    mass: 118.710000
    reduced_to: 25
  - symbol: Sn # 34
    coordinates: [  0.785363697548690,  0.214636316968194,  0.750000004735606 ]
    mass: 118.710000
    reduced_to: 25
  - symbol: Sn # 35
    coordinates: [  0.285363697548690,  0.714636316968194,  0.750000004735606 ]
    mass: 118.710000
    reduced_to: 25
  - symbol: Sn # 36
    coordinates: [  0.785363697548690,  0.714636316968194,  0.750000004735606 ]
    mass: 118.710000
    reduced_to: 25
  - symbol: Sn # 37
    coordinates: [  0.214636298777455,  0.285363679362096,  0.249999998438485 ]
    mass: 118.710000
    reduced_to: 37
  - symbol: Sn # 38
    coordinates: [  0.714636298777455,  0.285363679362096,  0.249999998438485 ]
    mass: 118.710000
    reduced_to: 37
  - symbol: Sn # 39
    coordinates: [  0.214636298777455,  0.785363679362096,  0.249999998438485 ]
    mass: 118.710000
    reduced_to: 37
  - symbol: Sn # 40
    coordinates: [  0.714636298777455,  0.785363679362096,  0.249999998438485 ]
    mass: 118.710000
    reduced_to: 37
  - symbol: Sn # 41
    coordinates: [  0.214636298777455,  0.285363679362096,  0.583333331771818 ]
    mass: 118.710000
    reduced_to: 37
  - symbol: Sn # 42
    coordinates: [  0.714636298777455,  0.285363679362096,  0.583333331771818 ]
    mass: 118.710000
    reduced_to: 37
  - symbol: Sn # 43
    coordinates: [  0.214636298777455,  0.785363679362096,  0.583333331771818 ]
    mass: 118.710000
    reduced_to: 37
  - symbol: Sn # 44
    coordinates: [  0.714636298777455,  0.785363679362096,  0.583333331771818 ]
    mass: 118.710000
    reduced_to: 37
  - symbol: Sn # 45
    coordinates: [  0.214636298777455,  0.285363679362096,  0.916666665105152 ]
    mass: 118.710000
    reduced_to: 37
  - symbol: Sn # 46
    coordinates: [  0.714636298777455,  0.285363679362096,  0.916666665105152 ]
    mass: 118.710000
    reduced_to: 37
  - symbol: Sn # 47
    coordinates: [  0.214636298777455,  0.785363679362096,  0.916666665105152 ]
    mass: 118.710000
    reduced_to: 37
  - symbol: Sn # 48
    coordinates: [  0.714636298777455,  0.785363679362096,  0.916666665105152 ]
    mass: 118.710000
    reduced_to: 37
  - symbol: Sn # 49
    coordinates: [  0.120890000553875,  0.379109998869153,  0.083333341276522 ]
    mass: 118.710000
    reduced_to: 49
  - symbol: Sn # 50
    coordinates: [  0.620890000553875,  0.379109998869153,  0.083333341276522 ]
    mass: 118.710000
    reduced_to: 49
  - symbol: Sn # 51
    coordinates: [  0.120890000553875,  0.879109998869153,  0.083333341276522 ]
    mass: 118.710000
    reduced_to: 49
  - symbol: Sn # 52
    coordinates: [  0.620890000553875,  0.879109998869153,  0.083333341276522 ]
    mass: 118.710000
    reduced_to: 49
  - symbol: Sn # 53
    coordinates: [  0.120890000553875,  0.379109998869153,  0.416666674609856 ]
    mass: 118.710000
    reduced_to: 49
  - symbol: Sn # 54
    coordinates: [  0.620890000553875,  0.379109998869153,  0.416666674609856 ]
    mass: 118.710000
    reduced_to: 49
  - symbol: Sn # 55
    coordinates: [  0.120890000553875,  0.879109998869153,  0.416666674609856 ]
    mass: 118.710000
    reduced_to: 49
  - symbol: Sn # 56
    coordinates: [  0.620890000553875,  0.879109998869153,  0.416666674609856 ]
    mass: 118.710000
    reduced_to: 49
  - symbol: Sn # 57
    coordinates: [  0.120890000553875,  0.379109998869153,  0.750000007943189 ]
    mass: 118.710000
    reduced_to: 49
  - symbol: Sn # 58
    coordinates: [  0.620890000553875,  0.379109998869153,  0.750000007943189 ]
    mass: 118.710000
    reduced_to: 49
  - symbol: Sn # 59
    coordinates: [  0.120890000553875,  0.879109998869153,  0.750000007943189 ]
    mass: 118.710000
    reduced_to: 49
  - symbol: Sn # 60
    coordinates: [  0.620890000553875,  0.879109998869153,  0.750000007943189 ]
    mass: 118.710000
    reduced_to: 49
  - symbol: Sn # 61
    coordinates: [  0.379110005700552,  0.120889999631157,  0.249999986484145 ]
    mass: 118.710000
    reduced_to: 61
  - symbol: Sn # 62
    coordinates: [  0.879110005700552,  0.120889999631157,  0.249999986484145 ]
    mass: 118.710000
    reduced_to: 61
  - symbol: Sn # 63
    coordinates: [  0.379110005700552,  0.620889999631157,  0.249999986484145 ]
    mass: 118.710000
    reduced_to: 61
  - symbol: Sn # 64
    coordinates: [  0.879110005700552,  0.620889999631157,  0.249999986484145 ]
    mass: 118.710000
    reduced_to: 61
  - symbol: Sn # 65
    coordinates: [  0.379110005700552,  0.120889999631157,  0.583333319817478 ]
    mass: 118.710000
    reduced_to: 61
  - symbol: Sn # 66
    coordinates: [  0.879110005700552,  0.120889999631157,  0.583333319817478 ]
    mass: 118.710000
    reduced_to: 61
  - symbol: Sn # 67
    coordinates: [  0.379110005700552,  0.620889999631157,  0.583333319817478 ]
    mass: 118.710000
    reduced_to: 61
  - symbol: Sn # 68
    coordinates: [  0.879110005700552,  0.620889999631157,  0.583333319817478 ]
    mass: 118.710000
    reduced_to: 61
  - symbol: Sn # 69
    coordinates: [  0.379110005700552,  0.120889999631157,  0.916666653150811 ]
    mass: 118.710000
    reduced_to: 61
  - symbol: Sn # 70
    coordinates: [  0.879110005700552,  0.120889999631157,  0.916666653150811 ]
    mass: 118.710000
    reduced_to: 61
  - symbol: Sn # 71
    coordinates: [  0.379110005700552,  0.620889999631157,  0.916666653150811 ]
    mass: 118.710000
    reduced_to: 61
  - symbol: Sn # 72
    coordinates: [  0.879110005700552,  0.620889999631157,  0.916666653150811 ]
    mass: 118.710000
    reduced_to: 61

displacements:
- atom:    1
  displacement:
    [   0.0072860998192852,  0.0000000003932647,  0.0068492882421031 ]
  forces:
  - [  -0.0102453678846359, -0.0001152940094471, -0.0069974497891963 ]
  - [  -0.0001992043107748,  0.0000409120693803,  0.0000028577430840 ]
  - [  -0.0001775603741407,  0.0000749668106437,  0.0000027428873182 ]
  - [  -0.0003554411232471,  0.0001194961369038, -0.0002560477878433 ]
  - [  -0.0001490712165833,  0.0000020787119865, -0.0000492119870614 ]
  - [  -0.0002018865197897,  0.0000594463199377, -0.0000030975788832 ]
  - [  -0.0001985430717468,  0.0000635413452983, -0.0000013606622815 ]
  - [  -0.0001101456582546, -0.0001179464161396, -0.0006016289698891 ]
  - [  -0.0003504380583763,  0.0000643506646156,  0.0001589141029399 ]
  - [  -0.0002069473266602,  0.0000575166195631,  0.0000019618310034 ]
  - [  -0.0002014636993408,  0.0000684382393956,  0.0000020689330995 ]
  - [  -0.0001925025135279, -0.0000871643424034, -0.0005054696230218 ]
  - [   0.0002307575196028,  0.0000008884817362,  0.0001839393080445 ]
  - [   0.0002129785716534, -0.0000195866450667,  0.0000329774229613 ]
  - [   0.0001784302294254, -0.0000889403745532,  0.0000202241390070 ]
  - [   0.0009905863553286, -0.0003417413681746,  0.0006477995193563 ]
  - [   0.0002003889530897, -0.0000407807528973,  0.0000521460315213 ]
  - [   0.0001766234636307, -0.0000562258064747, -0.0000098500750028 ]
  - [   0.0001786705106497, -0.0000533778220415, -0.0000103743514046 ]
  - [   0.0001939628273249, -0.0000813184306026,  0.0000868227871251 ]
  - [   0.0002312622964382,  0.0000003408640623,  0.0001916323089972 ]
  - [   0.0002577267587185, -0.0000752806663513,  0.0000809219345683 ]
  - [   0.0002466961741447, -0.0000687278807163,  0.0000930626993068 ]
  - [   0.0003044009208679, -0.0001300834119320, -0.0000784268413554 ]
  - [   0.0071739107370377, -0.0021921750158072,  0.0000205781416298 ]
  - [   0.0100128501653671, -0.0005975440144539, -0.0001755747944117 ]
  - [   0.0077727362513542, -0.0036074183881283, -0.0001729121431708 ]
  - [   0.0073566362261772, -0.0021549519151449,  0.0000239007731579 ]
  - [   0.0069939792156219, -0.0021655857563019,  0.0000011073425412 ]
  - [   0.0068748071789742, -0.0021140612661839, -0.0001637293025851 ]
  - [   0.0069139748811722, -0.0021802037954330, -0.0000629732385278 ]
  - [   0.0069902911782265, -0.0021580513566732, -0.0000012751552276 ]
  - [   0.0073503032326698, -0.0022743921726942,  0.0003254227340221 ]
  - [   0.0070521011948586, -0.0021335817873478, -0.0000502052716911 ]
  - [   0.0070733428001404, -0.0022633466869593, -0.0001439247280359 ]
  - [   0.0070793405175209, -0.0021848157048225,  0.0000119606847875 ]
  - [  -0.0069799646735191,  0.0021566785871983, -0.0000007949947758 ]
  - [  -0.0061057284474373,  0.0040241740643978,  0.0022007967345417 ]
  - [  -0.0071027129888535,  0.0011198204010725,  0.0012062605237588 ]
  - [  -0.0070502534508705,  0.0021820515394211,  0.0000030520650398 ]
  - [  -0.0070431306958199,  0.0021743476390839, -0.0000609601847827 ]
  - [  -0.0070044249296188,  0.0021736584603786,  0.0000687025603838 ]
  - [  -0.0069816559553146,  0.0021508820354939,  0.0000647896958981 ]
  - [  -0.0070117041468620,  0.0021712835878134, -0.0000260970555246 ]
  - [  -0.0070117786526680,  0.0021681226789951,  0.0000519172754139 ]
  - [  -0.0076456815004349,  0.0013262834399939,  0.0006796430679969 ]
  - [  -0.0068608522415161,  0.0041773002594709,  0.0016340054571629 ]
  - [  -0.0070364028215408,  0.0021760296076536,  0.0000136707676575 ]
  - [   0.0467301234602928, -0.0144830029457808,  0.0000385327148251 ]
  - [   0.0471565909683704, -0.0151775572448969, -0.0002696645678952 ]
  - [   0.0482548549771309, -0.0138878077268600, -0.0002672469709069 ]
  - [   0.0469223707914352, -0.0145255383104086,  0.0000013615936041 ]
  - [   0.0468048974871635, -0.0144561342895031, -0.0000394899398088 ]
  - [   0.0467064268887043, -0.0144567806273699, -0.0000309515744448 ]
  - [   0.0467162989079952, -0.0144437178969383,  0.0000276220380329 ]
  - [   0.0466057881712914, -0.0144126266241074, -0.0002531101927161 ]
  - [   0.0467337444424629, -0.0144341308623552,  0.0000264719128609 ]
  - [   0.0467844456434250, -0.0143591035157442, -0.0000684745609760 ]
  - [   0.0467272475361824, -0.0145668871700764, -0.0001249098568223 ]
  - [   0.0467139892280102, -0.0144442580640316,  0.0000278288498521 ]
  - [  -0.0472618304193020,  0.0145559795200825,  0.0000209668651223 ]
  - [  -0.0467180386185646,  0.0143820764496922,  0.0000647324995953 ]
  - [  -0.0467324182391167,  0.0144952256232500,  0.0000251386263699 ]
  - [  -0.0465376377105713,  0.0143366195261478,  0.0000029370357879 ]
  - [  -0.0467413403093815,  0.0144516229629517, -0.0000427193008363 ]
  - [  -0.0467690974473953,  0.0144537724554539,  0.0000143132638186 ]
  - [  -0.0467828363180161,  0.0144560281187296,  0.0000140732154250 ]
  - [  -0.0467878505587578,  0.0144510762766004,  0.0000559516483918 ]
  - [  -0.0438576750457287,  0.0135053750127554,  0.0026553641073406 ]
  - [  -0.0466991476714611,  0.0143440943211317, -0.0001253252848983 ]
  - [  -0.0466943904757500,  0.0145153207704425, -0.0000849531497806 ]
  - [  -0.0468985103070736,  0.0144504262134433, -0.0001609709579498 ]
- atom:    1
  displacement:
    [  -0.0072860998192852, -0.0000000003932647, -0.0068492882421031 ]
  forces:
  - [   0.0098948832601309,  0.0001765023916960,  0.0070627797394991 ]
  - [  -0.0001873727887869,  0.0000789212062955, -0.0000015072239421 ]
  - [  -0.0002127047628164,  0.0000441921874881, -0.0000017057898276 ]
  - [  -0.0000362899154425,  0.0000015189871192,  0.0002514827356208 ]
  - [  -0.0002386569976807,  0.0001170802861452,  0.0000525406794623 ]
  - [  -0.0001872740685940,  0.0000609932467341,  0.0000048158690333 ]
  - [  -0.0001924056559801,  0.0000556195154786,  0.0000048503279686 ]
  - [  -0.0002772491425276,  0.0002309447154403,  0.0005894468049519 ]
  - [  -0.0000398252159357,  0.0000559762120247, -0.0001651680795476 ]
  - [  -0.0001816283911467,  0.0000614542514086, -0.0000015557743609 ]
  - [  -0.0001878608018160,  0.0000524474307895,  0.0000001559965312 ]
  - [  -0.0001956894993782,  0.0002110926434398,  0.0005118765984662 ]
  - [   0.0001591034233570, -0.0001210113987327, -0.0001818507880671 ]
  - [   0.0001787561923265, -0.0001041777431965, -0.0000358371289622 ]
  - [   0.0002140812575817, -0.0000293767079711, -0.0000234757317230 ]
  - [  -0.0005637966096401,  0.0002112872898579, -0.0006158561445773 ]
  - [   0.0001884959638119, -0.0000790078192949, -0.0000536635052413 ]
  - [   0.0002154782414436, -0.0000637331977487,  0.0000105153885670 ]
  - [   0.0002121534198523, -0.0000683097168803,  0.0000100371544249 ]
  - [   0.0001967102289200, -0.0000402843579650, -0.0000879247236298 ]
  - [   0.0001505129039288, -0.0001187575981021, -0.0001839445903897 ]
  - [   0.0001326985657215, -0.0000481624156237, -0.0000843896123115 ]
  - [   0.0001445636153221, -0.0000504087656736, -0.0000973711721599 ]
  - [   0.0000851601362228,  0.0000102771446109,  0.0000783185751061 ]
  - [   0.0068134516477585, -0.0021373387426138, -0.0000173493062903 ]
  - [   0.0040514990687370, -0.0036832634359598,  0.0001639863476157 ]
  - [   0.0062233209609985, -0.0007340516895056,  0.0001664413139224 ]
  - [   0.0066424533724785, -0.0021754615008831, -0.0000225671592489 ]
  - [   0.0070071592926979, -0.0021659433841705,  0.0000018109567463 ]
  - [   0.0071243569254875, -0.0022118147462606,  0.0001628426834941 ]
  - [   0.0070825293660164, -0.0021494459360838,  0.0000681187957525 ]
  - [   0.0070105716586113, -0.0021697115153074,  0.0000072856491897 ]
  - [   0.0066419839859009, -0.0020517930388451, -0.0003222017548978 ]
  - [   0.0069452375173569, -0.0021950621157885,  0.0000505903735757 ]
  - [   0.0069271251559258, -0.0020619370043278,  0.0001512840390205 ]
  - [   0.0069187358021736, -0.0021407138556242, -0.0000048826041166 ]
  - [  -0.0070220082998276,  0.0021707452833652, -0.0000037759214138 ]
  - [  -0.0078815966844559,  0.0003539081662893, -0.0021507791243494 ]
  - [  -0.0068986043334007,  0.0032044984400272, -0.0012040416477248 ]
  - [  -0.0069521442055702,  0.0021506138145924, -0.0000062452054408 ]
  - [  -0.0069601461291313,  0.0021537784487009,  0.0000547192757949 ]
  - [  -0.0069966390728951,  0.0021553672850132, -0.0000693001784384 ]
  - [  -0.0070186108350754,  0.0021782889962196, -0.0000729679886717 ]
  - [  -0.0069880262017250,  0.0021588113158941,  0.0000197403132915 ]
  - [  -0.0069875866174698,  0.0021618120372295, -0.0000607999972999 ]
  - [  -0.0063435584306717,  0.0030093360692263, -0.0006761993281543 ]
  - [  -0.0071361809968948,  0.0001055859029293, -0.0016624487470835 ]
  - [  -0.0069639682769775,  0.0021522492170334, -0.0000227206619456 ]
  - [   0.0468174144625664, -0.0144298691302538, -0.0000391638022847 ]
  - [   0.0464031994342804, -0.0137248486280441,  0.0002777264453471 ]
  - [   0.0452644117176533, -0.0150472875684500,  0.0002801380178425 ]
  - [   0.0466242283582687, -0.0143836401402950, -0.0000002672895789 ]
  - [   0.0467481315135956, -0.0144561771303415,  0.0000375751405954 ]
  - [   0.0468455106019974, -0.0144550632685423,  0.0000310903415084 ]
  - [   0.0468346439301968, -0.0144660379737616, -0.0000280183157884 ]
  - [   0.0469409674406052, -0.0144975017756224,  0.0002446258440614 ]
  - [   0.0468209050595760, -0.0144782010465860, -0.0000263703987002 ]
  - [   0.0467686280608177, -0.0145555976778269,  0.0000706631690264 ]
  - [   0.0468291603028774, -0.0143381357192993,  0.0001319256261922 ]
  - [   0.0468403622508049, -0.0144644062966108, -0.0000275438651443 ]
  - [  -0.0462832301855087,  0.0143568599596620, -0.0000250455923378 ]
  - [  -0.0468348115682602,  0.0145305022597313, -0.0000595623932895 ]
  - [  -0.0468227639794350,  0.0144157055765390, -0.0000219577777898 ]
  - [  -0.0470147468149662,  0.0145720802247524, -0.0000042498677431 ]
  - [  -0.0468122139573097,  0.0144586991518736,  0.0000434825196862 ]
  - [  -0.0467831939458847,  0.0144565487280488, -0.0000136182643473 ]
  - [  -0.0467709526419640,  0.0144540425390005, -0.0000135867157951 ]
  - [  -0.0467646978795528,  0.0144587811082602, -0.0000568871619180 ]
  - [  -0.0497984774410725,  0.0154450228437781, -0.0027670580893755 ]
  - [  -0.0468532256782055,  0.0145671255886555,  0.0001200281549245 ]
  - [  -0.0468571335077286,  0.0143951093778014,  0.0000836814288050 ]
  - [  -0.0466532520949841,  0.0144627634435892,  0.0001692778896540 ]
- atom:   25
  displacement:
    [   0.0072860998192852,  0.0000000003932647,  0.0068492882421031 ]
  forces:
  - [  -0.0000105332583189,  0.0000318968668580,  0.0000224910872930 ]
  - [   0.0027545914053917,  0.0018319371156394, -0.0001633641077206 ]
  - [   0.0005814079195261, -0.0016239564865828, -0.0001670876808930 ]
  - [   0.0001578778028488,  0.0000702133402228,  0.0000245323553827 ]
  - [   0.0001338645815849, -0.0000435272231698,  0.0003569402615540 ]
  - [  -0.0001782681792974,  0.0001026466488838, -0.0000103944912553 ]
  - [  -0.0002398695796728, -0.0000047320500016, -0.0000200718641281 ]
  - [  -0.0001533534377813,  0.0000500213354826,  0.0000509887540829 ]
  - [  -0.0001734960824251,  0.0000516092404723, -0.0000295496101899 ]
  - [  -0.0002819821238518, -0.0001840684562922, -0.0001977407373488 ]
  - [  -0.0001628324389458,  0.0002909088507295, -0.0001857336610556 ]
  - [  -0.0001654289662838,  0.0000538900494576, -0.0000450606166851 ]
  - [   0.0001747757196426, -0.0000554388388991,  0.0000462422249257 ]
  - [   0.0010222960263491,  0.0020115184597671,  0.0022719129920006 ]
  - [  -0.0000013075768948, -0.0012711705639958,  0.0013044438092038 ]
  - [   0.0001453310251236, -0.0000435411930084,  0.0000043751670091 ]
  - [   0.0001532286405563, -0.0000495789572597, -0.0000585280940868 ]
  - [   0.0001915991306305, -0.0001061838120222,  0.0000688300351612 ]
  - [   0.0002132821828127, -0.0000188723206520,  0.0000682733370923 ]
  - [   0.0001832637935877, -0.0000545196235180, -0.0000234020189964 ]
  - [   0.0002238415181637, -0.0000692484900355,  0.0000110820983537 ]
  - [  -0.0003907289355993, -0.0008168946951628,  0.0006086515495554 ]
  - [   0.0004209633916616,  0.0018195584416389,  0.0015349551104009 ]
  - [   0.0001592952758074, -0.0000490574166179,  0.0000174955785042 ]
  - [  -0.0105253159999847, -0.0017108879983425, -0.0165606420487165 ]
  - [   0.0068405792117119, -0.0022254940122366, -0.0000086524432845 ]
  - [   0.0069660842418671, -0.0020437967032194, -0.0000110510645754 ]
  - [   0.0071492344141006, -0.0016068145632744,  0.0001091354861273 ]
  - [   0.0068606212735176, -0.0021390337496996,  0.0003813453949988 ]
  - [   0.0069733485579491, -0.0021629091352224, -0.0000017499551177 ]
  - [   0.0069915652275085, -0.0021546669304371,  0.0000124238431454 ]
  - [   0.0070046335458755, -0.0022367201745510, -0.0003056985733565 ]
  - [   0.0067848265171051, -0.0021145418286324,  0.0004557380452752 ]
  - [   0.0069525092840195, -0.0022019799798727,  0.0000149216502905 ]
  - [   0.0070006251335144, -0.0021114759147167,  0.0000043399631977 ]
  - [   0.0070055425167084, -0.0022340696305037, -0.0003031797241420 ]
  - [  -0.0077739432454109,  0.0024989042431116,  0.0015959811862558 ]
  - [  -0.0065151005983353,  0.0023715272545815,  0.0001470608840464 ]
  - [  -0.0067889541387558,  0.0017283596098423,  0.0000017215643311 ]
  - [  -0.0069209039211273,  0.0021662395447493,  0.0000382759717468 ]
  - [  -0.0068824887275696,  0.0021314863115549, -0.0002932086354122 ]
  - [  -0.0069722384214401,  0.0021646302193403, -0.0000234097242355 ]
  - [  -0.0069821029901505,  0.0021500997245312, -0.0000270500313491 ]
  - [  -0.0069979503750801,  0.0021601952612400,  0.0000175411114469 ]
  - [  -0.0010932609438896,  0.0004428457468748,  0.0086737796664238 ]
  - [  -0.0068667605519295,  0.0019958168268204, -0.0002294256119058 ]
  - [  -0.0068673714995384,  0.0022378005087376, -0.0000824903254397 ]
  - [  -0.0069750100374222,  0.0021810811012983, -0.0000192533480003 ]
  - [   0.0471340231597424, -0.0145602691918612, -0.0000962516496656 ]
  - [   0.0503800660371780, -0.0121690053492785, -0.0003006611368619 ]
  - [   0.0475525707006454, -0.0168960392475128, -0.0002976629475597 ]
  - [   0.0463798120617867, -0.0144344158470631, -0.0001081312075257 ]
  - [   0.0467739664018154, -0.0144468434154987,  0.0000457046553493 ]
  - [   0.0467718094587326, -0.0141536481678486,  0.0002637133002281 ]
  - [   0.0465907081961632, -0.0146995056420565,  0.0003177128382958 ]
  - [   0.0467503704130650, -0.0144535303115845,  0.0000346675515175 ]
  - [   0.0477016493678093, -0.0147331617772579,  0.0007553612813354 ]
  - [   0.0468143522739410, -0.0145174041390419,  0.0000319555401802 ]
  - [   0.0468318387866020, -0.0144219826906919, -0.0000197024783120 ]
  - [   0.0467114374041557, -0.0144397523254156,  0.0000670980662107 ]
  - [  -0.0460184365510941,  0.0140826636925340,  0.0015422780998051 ]
  - [  -0.0468979366123676,  0.0143357412889600,  0.0000549013420823 ]
  - [  -0.0467986389994621,  0.0145979896187782,  0.0000752279447624 ]
  - [  -0.0467075332999229,  0.0144969131797552,  0.0001276599796256 ]
  - [  -0.0467914454638958,  0.0144612919539213, -0.0001643877476454 ]
  - [  -0.0468028858304024,  0.0144150191918015, -0.0000427431659773 ]
  - [  -0.0467757433652878,  0.0145030710846186, -0.0000426935730502 ]
  - [  -0.0467821508646011,  0.0144549971446395, -0.0000781276030466 ]
  - [  -0.0460111498832703,  0.0140810571610928, -0.0008499613031745 ]
  - [  -0.0465454198420048,  0.0144265554845333, -0.0000587304821238 ]
  - [  -0.0465570315718651,  0.0143242683261633, -0.0000780054833740 ]
  - [  -0.0468301698565483,  0.0145360194146633, -0.0002559522399679 ]
- atom:   25
  displacement:
    [  -0.0072860998192852, -0.0000000003932647, -0.0068492882421031 ]
  forces:
  - [  -0.0003708358854055,  0.0000863382592797, -0.0000152867905854 ]
  - [  -0.0032068416476250, -0.0017521791160107,  0.0001758336147759 ]
  - [  -0.0009675547480583,  0.0017475103959441,  0.0001720217114780 ]
  - [  -0.0005560200661421,  0.0000494457781315, -0.0000220284910029 ]
  - [  -0.0005182567983866,  0.0001615118235350, -0.0003505595086608 ]
  - [  -0.0002125669270754,  0.0000155437737703,  0.0000136760063469 ]
  - [  -0.0001517925411463,  0.0001277346163988,  0.0000259983353317 ]
  - [  -0.0002355948090553,  0.0000700345262885, -0.0000490407401230 ]
  - [  -0.0002164728939533,  0.0000684559345245,  0.0000305659268633 ]
  - [  -0.0001045092940331,  0.0003124605864286,  0.0002049901522696 ]
  - [  -0.0002290774136782, -0.0001779356971383,  0.0001948294229805 ]
  - [  -0.0002238601446152,  0.0000665681436658,  0.0000466203564429 ]
  - [   0.0002169255167246, -0.0000673485919833, -0.0000470215854875 ]
  - [  -0.0006221272051334, -0.0020737918093801, -0.0022188697475940 ]
  - [   0.0003795642405748,  0.0011340649798512, -0.0012939672451466 ]