phonopy:
  version: "2.37.1"
  frequency_unit_conversion_factor: 15.633302
  symmetry_tolerance: 1.00000e-05

space_group:
  type: "R-3m"
  number: 166
  Hall_symbol: "-R 3 2\""

primitive_matrix:
- [ -0.000000000000000, -0.000000000000000,  1.000000000000000 ]
- [  1.000000000000000,  0.000000000000000,  0.000000000000000 ]
- [  0.000000000000000,  1.000000000000000, -0.000000000000000 ]

supercell_matrix:
- [   2,   0,   0 ]
- [   0,   2,   0 ]
- [   0,   0,   2 ]

primitive_cell:
  lattice:
  - [     7.048682894473050,     2.998500138007488,     0.000000000000000 ] # a
  - [     7.048683212326551,     1.436943047004934,     2.631766860681757 ] # b
  - [     7.659956515438491,    -0.000000000000000,    -0.000000000000000 ] # c
  points:
  - symbol: Li # 1
    coordinates: [  0.777929348898140,  0.777929351566356,  0.777929347647282 ]
    mass: 6.940000
  - symbol: Li # 2
    coordinates: [  0.222070651704295,  0.222070648948224,  0.222070652344152 ]
    mass: 6.940000
  - symbol: Li # 3
    coordinates: [  0.999999999328974,  0.999999999553927,  0.000000000011752 ]
    mass: 6.940000
  reciprocal_lattice: # without 2pi
  - [     0.000000000000000,     0.333500068025510,    -0.182090826921040 ] # a*
  - [     0.000000000000000,    -0.000000000000000,     0.379972867255024 ] # b*
  - [     0.130549043977537,    -0.306886366790614,    -0.182090834430989 ] # c*

unit_cell:
  lattice:
  - [     7.659956515438492,     0.000000000000000,     0.000000000000000 ] # a
  - [     7.048682894473051,     2.998500138007488,     0.000000000000000 ] # b
  - [     7.048683212326555,     1.436943047004934,     2.631766860681757 ] # c
  points:
  - symbol: Li # 1
    coordinates: [  0.777929347647281,  0.777929348898140,  0.777929351566356 ]
    mass: 6.940000
    reduced_to: 1
  - symbol: Li # 2
    coordinates: [  0.222070652344152,  0.222070651704295,  0.222070648948224 ]
    mass: 6.940000
    reduced_to: 2
  - symbol: Li # 3
    coordinates: [  0.000000000011752,  0.999999999328974,  0.999999999553927 ]
    mass: 6.940000
    reduced_to: 3

supercell:
  lattice:
  - [    15.319913030876984,     0.000000000000000,     0.000000000000000 ] # a
  - [    14.097365788946101,     5.997000276014977,     0.000000000000000 ] # b
  - [    14.097366424653110,     2.873886094009868,     5.263533721363514 ] # c
  points:
  - symbol: Li # 1
    coordinates: [  0.388964673823641,  0.388964674449070,  0.388964675783178 ]
    mass: 6.940000
    reduced_to: 1
  - symbol: Li # 2
    coordinates: [  0.888964673823641,  0.388964674449070,  0.388964675783178 ]
    mass: 6.940000
    reduced_to: 1
  - symbol: Li # 3
    coordinates: [  0.388964673823641,  0.888964674449070,  0.388964675783178 ]
    mass: 6.940000
    reduced_to: 1
  - symbol: Li # 4
    coordinates: [  0.888964673823641,  0.888964674449070,  0.388964675783178 ]
    mass: 6.940000
    reduced_to: 1
  - symbol: Li # 5
    coordinates: [  0.388964673823641,  0.388964674449070,  0.888964675783178 ]
    mass: 6.940000
    reduced_to: 1
  - symbol: Li # 6
    coordinates: [  0.888964673823641,  0.388964674449070,  0.888964675783178 ]
    mass: 6.940000
    reduced_to: 1
  - symbol: Li # 7
    coordinates: [  0.388964673823641,  0.888964674449070,  0.888964675783178 ]
    mass: 6.940000
    reduced_to: 1
  - symbol: Li # 8
    coordinates: [  0.888964673823641,  0.888964674449070,  0.888964675783178 ]
    mass: 6.940000
    reduced_to: 1
  - symbol: Li # 9
    coordinates: [  0.111035326172076,  0.111035325852148,  0.111035324474112 ]
    mass: 6.940000
    reduced_to: 9
  - symbol: Li # 10
    coordinates: [  0.611035326172076,  0.111035325852148,  0.111035324474112 ]
    mass: 6.940000
    reduced_to: 9
  - symbol: Li # 11
    coordinates: [  0.111035326172076,  0.611035325852148,  0.111035324474112 ]
    mass: 6.940000
    reduced_to: 9
  - symbol: Li # 12
    coordinates: [  0.611035326172076,  0.611035325852148,  0.111035324474112 ]
    mass: 6.940000
    reduced_to: 9
  - symbol: Li # 13
    coordinates: [  0.111035326172076,  0.111035325852148,  0.611035324474112 ]
    mass: 6.940000
    reduced_to: 9
  - symbol: Li # 14
    coordinates: [  0.611035326172076,  0.111035325852148,  0.611035324474112 ]
    mass: 6.940000
    reduced_to: 9
  - symbol: Li # 15
    coordinates: [  0.111035326172076,  0.611035325852148,  0.611035324474112 ]
    mass: 6.940000
    reduced_to: 9
  - symbol: Li # 16
    coordinates: [  0.611035326172076,  0.611035325852148,  0.611035324474112 ]
    mass: 6.940000
    reduced_to: 9
  - symbol: Li # 17
    coordinates: [  0.000000000005876,  0.499999999664487,  0.499999999776963 ]
    mass: 6.940000
    reduced_to: 17
  - symbol: Li # 18
    coordinates: [  0.500000000005876,  0.499999999664487,  0.499999999776963 ]
    mass: 6.940000
    reduced_to: 17
  - symbol: Li # 19
    coordinates: [  0.000000000005876,  0.999999999664487,  0.499999999776963 ]
    mass: 6.940000
    reduced_to: 17
  - symbol: Li # 20
    coordinates: [  0.500000000005876,  0.999999999664487,  0.499999999776963 ]
    mass: 6.940000
    reduced_to: 17
  - symbol: Li # 21
    coordinates: [  0.000000000005876,  0.499999999664487,  0.999999999776963 ]
    mass: 6.940000
    reduced_to: 17
  - symbol: Li # 22
    coordinates: [  0.500000000005876,  0.499999999664487,  0.999999999776963 ]
    mass: 6.940000
    reduced_to: 17
  - symbol: Li # 23
    coordinates: [  0.000000000005876,  0.999999999664487,  0.999999999776963 ]
    mass: 6.940000
    reduced_to: 17
  - symbol: Li # 24
    coordinates: [  0.500000000005876,  0.999999999664487,  0.999999999776963 ]
    mass: 6.940000
    reduced_to: 17

displacements:
- atom:    1
  displacement:
    [   0.0100000000000000,  0.0000000000000000,  0.0000000000000000 ]
  forces:
  - [  -0.0166002847254276, -0.0011811769800261, -0.0007009144173935 ]
  - [  -0.0057293120771646, -0.0011806124821305, -0.0007003895007074 ]
  - [  -0.0057377908378839, -0.0011572844814509, -0.0006984006613493 ]
  - [  -0.0056563969701529, -0.0024580380413681, -0.0006779829273000 ]
  - [  -0.0057378560304642, -0.0011677425354719, -0.0006811209022999 ]
  - [  -0.0056586256250739, -0.0017729569226503, -0.0018326721619815 ]
  - [  -0.0059208748862147, -0.0011520284460858, -0.0006836813408881 ]
  - [  -0.0057194093242288, -0.0011680284515023, -0.0006932115647942 ]
  - [   0.0052962074987590,  0.0011762892827392,  0.0006987757515162 ]
  - [   0.0057253204286098,  0.0010936220642179,  0.0006491232197732 ]
  - [   0.0056691439822316,  0.0012298636138439,  0.0006297286599874 ]
  - [   0.0082250349223614,  0.0017117168754339, -0.0008418348152190 ]
  - [   0.0056686643511057,  0.0011419304646552,  0.0007775137200952 ]
  - [   0.0082253841683269,  0.0000809226185083,  0.0019053462892771 ]
  - [   0.0070848139002919,  0.0027398727834225,  0.0016248496249318 ]
  - [   0.0057795485481620,  0.0011874204501510,  0.0007041813805699 ]
  - [   0.0028190375305712, -0.0010702218860388, -0.0006345661822706 ]
  - [  -0.0005791990552098, -0.0001341968018096, -0.0000796421954874 ]
  - [   0.0000074187119026,  0.0000141198761412,  0.0000467472746095 ]
  - [   0.0016504623927176,  0.0017003789544106, -0.0005120094865561 ]
  - [   0.0000085037900135,  0.0000475556589663, -0.0000099192111520 ]
  - [   0.0016514880117029,  0.0003651836887002,  0.0017377891344950 ]
  - [  -0.0004786001518369, -0.0000037753488868, -0.0000023793254513 ]
  - [   0.0000073188566603, -0.0000428065977758, -0.0000253400285146 ]
- atom:    1
  displacement:
    [  -0.0100000000000000,  0.0000000000000000,  0.0000000000000000 ]
  forces:
  - [   0.0051929242908955, -0.0011448306031525, -0.0006795016815886 ]
  - [  -0.0057745291851461, -0.0011633103713393, -0.0006901840679348 ]
  - [  -0.0057622464373708, -0.0011887376895174, -0.0006917929276824 ]
  - [  -0.0058437539264560,  0.0001124320551753, -0.0007100315997377 ]
  - [  -0.0057622808963060, -0.0011769942939281, -0.0007118920329958 ]
  - [  -0.0058459416031837, -0.0005692178383470,  0.0004389381501824 ]
  - [  -0.0055781602859497, -0.0011946604354307, -0.0007089879363775 ]
  - [  -0.0057837450876832, -0.0011768718250096, -0.0006984448991716 ]
  - [   0.0062123392708600,  0.0011699078604579,  0.0006950676906854 ]
  - [   0.0057772081345320,  0.0012519261799753,  0.0007430504774675 ]
  - [   0.0058373836800456,  0.0011146971955895,  0.0007632174529135 ]
  - [   0.0033215587027371,  0.0006472254171968,  0.0022017497103661 ]
  - [   0.0058368444442749,  0.0012038473505527,  0.0006124153733253 ]
  - [   0.0033219242468476,  0.0022420771420002, -0.0004875632002950 ]
  - [   0.0044254786334932, -0.0003739716485143, -0.0002227593213320 ]
  - [   0.0057207108475268,  0.0011576041579247,  0.0006865179166198 ]
  - [  -0.0028788666240871,  0.0010944008827209,  0.0006497378926724 ]
  - [   0.0004825474461541,  0.0001124716727645,  0.0000666789856041 ]
  - [  -0.0000093345297500, -0.0000128372630570, -0.0000463276919618 ]
  - [  -0.0016710958443582, -0.0017282254993916,  0.0005193296819925 ]
  - [  -0.0000084048369899, -0.0000470407321700,  0.0000110509026854 ]
  - [  -0.0016701221466064, -0.0003726296126842, -0.0017656724667177 ]
  - [   0.0004719621501863,  0.0000011383090168,  0.0000005750480341 ]
  - [  -0.0000123975332826,  0.0000416028124164,  0.0000248097385338 ]
- atom:   17
  displacement:
    [   0.0100000000000000,  0.0000000000000000,  0.0000000000000000 ]
  forces:
  - [  -0.0028712481725961, -0.0022632367908955, -0.0013430459657684 ]
  - [  -0.0062336837872863, -0.0012849867343903, -0.0007623345591128 ]
  - [  -0.0057408083230257, -0.0011594599345699, -0.0007466683164239 ]
  - [  -0.0040793432854116,  0.0005520418053493, -0.0012120127212256 ]
  - [  -0.0057407887652516, -0.0012111589312553, -0.0006598986219615 ]
  - [  -0.0040815835818648, -0.0007991120219231,  0.0010653939098120 ]
  - [  -0.0062230620533228, -0.0011741351336241, -0.0006967510562390 ]
  - [  -0.0057419752702117, -0.0011285655200481, -0.0006697576027364 ]
  - [   0.0057619041763246,  0.0012157014571130,  0.0007221249397844 ]
  - [   0.0052730608731508,  0.0011690196115524,  0.0006938048754819 ]
  - [   0.0074035660363734,  0.0015374859794974,  0.0024295311886817 ]
  - [   0.0057584093883634,  0.0011341935023665,  0.0007325212936848 ]
  - [   0.0074030510149896,  0.0028689976315945,  0.0001850295811892 ]
  - [   0.0057588228955865,  0.0011858937796205,  0.0006439620628953 ]
  - [   0.0051699490286410,  0.0010388512164354,  0.0006155408918858 ]
  - [   0.0085697090253234,  0.0001063607633114,  0.0000627953559160 ]
  - [  -0.0104327425360680,  0.0000805668532848,  0.0000481323804706 ]
  - [   0.0000288701630780,  0.0000002012675395,  0.0000001260377758 ]
  - [   0.0000237753847614,  0.0000105120925582, -0.0000002369379217 ]
  - [   0.0001004447694868, -0.0012931264936924, -0.0000802082940936 ]
  - [   0.0000248410797212,  0.0000045830311137,  0.0000094078022812 ]
  - [   0.0001012138091028, -0.0006904890760779, -0.0010967731941491 ]
  - [  -0.0002358879428357,  0.0000985895749182,  0.0000584777590120 ]
  - [   0.0000034823024180,  0.0000012742311810,  0.0000008436290955 ]

force_constants:
  format: "full"
  shape: [ 24, 24 ]
  elements:
  - # (1, 1)
    - [     1.089668464941993,     0.001814549949651,     0.001076659020504 ]
    - [     0.001814549949651,     1.081137398881086,     0.000219486780964 ]
    - [     0.001076659020504,     0.000219486780964,     1.080897725378908 ]
  - # (1, 2)
    - [    -0.002252841847477,     0.000867325458686,     0.000514622897302 ]
    - [     0.000867325889552,     0.000448900510641,    -0.000359556921391 ]
    - [     0.000514623262361,    -0.000359558048351,     0.000841543003489 ]
  - # (1, 3)
    - [    -0.001213997834629,    -0.001574723343281,     0.000332808569504 ]
    - [    -0.001574721557716,    -0.000589945581263,     0.000532313673748 ]
    - [     0.000332805297416,     0.000532313359864,     0.000841540119552 ]
  - # (1, 4)
    - [    -0.009358819878933,     0.128528277346623,    -0.001612801026208 ]
    - [     0.128528256329213,    -0.613630857682124,    -0.000328788524941 ]
    - [    -0.001612804914839,    -0.000328764572005,     0.028389452294175 ]
  - # (1, 5)
    - [    -0.001213998539145,    -0.000462534785484,    -0.001541612497146 ]
    - [    -0.000462536855723,     0.000960586596880,    -0.000314276215909 ]
    - [    -0.001541612266235,    -0.000314274663414,    -0.000708992578761 ]
  - # (1, 6)
    - [    -0.009358809228861,     0.060177843722627,     0.113581435934751 ]
    - [     0.060177828745303,    -0.119328635083844,    -0.270217497238148 ]
    - [     0.113581418531610,    -0.270217518925968,    -0.465912875113586 ]
  - # (1, 7)
    - [     0.017143741936545,    -0.002122664664541,    -0.001259525586801 ]
    - [    -0.002122664330679,    -0.145831192965717,     0.293115415955640 ]
    - [    -0.001259525058257,     0.293115414026732,    -0.465912828083010 ]
  - # (1, 8)
    - [    -0.003208776543343,    -0.000441266839717,    -0.000261826541616 ]
    - [    -0.000441264768635,    -0.001134170328626,    -0.000053373488559 ]
    - [    -0.000261823698503,    -0.000053373441817,    -0.001075884237761 ]
  - # (1, 9)
    - [     0.045814601621731,    -0.000316755176328,    -0.000187950818353 ]
    - [    -0.000316753129627,     0.047303811214079,    -0.000038314909844 ]
    - [    -0.000187948023556,    -0.000038314870003,     0.047345657165347 ]
  - # (1, 10)
    - [     0.002602397219362,     0.007914238492664,     0.004695902827998 ]
    - [     0.007914238826527,     0.003349525831917,     0.006008782244263 ]
    - [     0.004695903356542,     0.006008780315354,    -0.003212050071970 ]
  - # (1, 11)
    - [     0.008418508404969,    -0.005757905232754,     0.006673315598364 ]
    - [    -0.005757903924540,    -0.002466578590703,    -0.003691057626463 ]
    - [     0.006673314562635,    -0.003691057075503,    -0.003212051451722 ]
  - # (1, 12)
    - [    -0.245165389329006,    -0.053226038839651,     0.152188585610144 ]
    - [    -0.053226043717677,     0.005075351690598,     0.031025133662061 ]
    - [     0.152188604846542,     0.031025136654045,    -0.062637513885368 ]
  - # (1, 13)
    - [     0.008418507043673,     0.003097826533787,    -0.008251670180837 ]
    - [     0.003097827686328,    -0.006145834273236,    -0.001682181912776 ]
    - [    -0.008251671299468,    -0.001682180948846,     0.000467208356833 ]
  - # (1, 14)
    - [    -0.245165406256636,     0.108068053198385,    -0.119648085106522 ]
    - [     0.108068054983950,    -0.020988155613166,     0.045255778227634 ]
    - [    -0.119648088378610,     0.045255777913750,    -0.036573956472797 ]
  - # (1, 15)
    - [    -0.132958749788560,    -0.155700195563317,    -0.092384594906915 ]
    - [    -0.155700195132451,    -0.133194808444256,    -0.088480717125701 ]
    - [    -0.092384594541856,    -0.088480718252662,    -0.036573955146788 ]
  - # (1, 16)
    - [    -0.002933870906731,    -0.001489603867354,    -0.000883857304362 ]
    - [    -0.001489603867354,     0.004069451063422,    -0.000180183667796 ]
    - [    -0.000883857304362,    -0.000180183667796,     0.004266217612221 ]
  - # (1, 17)
    - [    -0.284913191403947,     0.108196152900270,     0.064198123847773 ]
    - [     0.107864967638224,    -0.017542164162830,    -0.019249190417463 ]
    - [     0.064001615291477,    -0.019249190911376,     0.003477917747886 ]
  - # (1, 18)
    - [     0.053132964883541,     0.012327611046547,     0.007314579262242 ]
    - [     0.012327611711597,    -0.004824966427244,     0.001491146531910 ]
    - [     0.007314572982419,     0.001491144102450,    -0.006453301555576 ]
  - # (1, 19)
    - [    -0.000870280109672,    -0.001339968934851,    -0.004594982008571 ]
    - [    -0.001339965612149,     0.005429536091720,    -0.000936732159582 ]
    - [     0.005142760084576,     0.001048400713684,    -0.001415683461072 ]
  - # (1, 20)
    - [    -0.166114796276582,    -0.171398760803590,     0.051539921662187 ]
    - [    -0.171067563803539,    -0.136340567986467,     0.042843521301927 ]
    - [     0.051359103219156,     0.042766608597240,     0.003477914925139 ]
  - # (1, 21)
    - [    -0.000870279561732,    -0.004675129273391,     0.001025924620674 ]
    - [     0.003871635100105,     0.000203306182551,     0.003901923344168 ]
    - [    -0.003640598951695,     0.001916790333132,     0.003810549332137 ]
  - # (1, 22)
    - [    -0.166114804594369,    -0.036901518675334,    -0.175134717036118 ]
    - [    -0.036901505212543,     0.007376678589912,    -0.035702912423340 ]
    - [    -0.174757381953390,    -0.035626000443962,    -0.140239291701248 ]
  - # (1, 23)
    - [     0.047510021878682,     0.000249900527984,     0.000148276540252 ]
    - [     0.000249901188522,     0.046335109942766,     0.000030226525716 ]
    - [     0.000148275903828,     0.000030226390350,     0.046302107865617 ]
  - # (1, 24)
    - [    -0.000995195830874,     0.004165286822369,     0.002471466621754 ]
    - [    -0.004381476136337,     0.000328220543905,    -0.003188945616118 ]
    - [    -0.002599749968294,    -0.003188943365862,     0.003810549958358 ]
  - # (2, 1)
    - [    -0.002252841847477,     0.000867325889552,     0.000514623262361 ]
    - [     0.000867325458686,     0.000448900510641,    -0.000359558048351 ]
    - [     0.000514622897302,    -0.000359556921391,     0.000841543003489 ]
  - # (2, 2)
    - [     1.089668463794334,     0.001814551180987,     0.001076656087561 ]
    - [     0.001814551180987,     1.081137402557282,     0.000219487458124 ]
    - [     0.001076656087561,     0.000219487458124,     1.080897728914183 ]
  - # (2, 3)
    - [    -0.009358817204249,     0.128528264162587,    -0.001612801975267 ]
    - [     0.128528265517286,    -0.613630909036549,    -0.000328790332830 ]
    - [    -0.001612805612414,    -0.000328789519754,     0.028389454498041 ]
  - # (2, 4)
    - [    -0.001213999761458,    -0.001574720768732,     0.000332809011492 ]
    - [    -0.001574719593012,    -0.000589938559241,     0.000532316317575 ]
    - [     0.000332808734189,     0.000532318906391,     0.000841539811512 ]
  - # (2, 5)
    - [    -0.009358810317074,     0.060177845639904,     0.113581434910830 ]
    - [     0.060177827767603,    -0.119328635292694,    -0.270217497467984 ]
    - [     0.113581417749307,    -0.270217517340676,    -0.465912875228965 ]
  - # (2, 6)
    - [    -0.001213998598590,    -0.000462535040560,    -0.001541614041109 ]
    - [    -0.000462535077553,     0.000960590481927,    -0.000314276435873 ]
    - [    -0.001541614781935,    -0.000314274444585,    -0.000708988928109 ]
  - # (2, 7)
    - [    -0.003208776823368,    -0.000441266348372,    -0.000261831072039 ]
    - [    -0.000441266445376,    -0.001134173941085,    -0.000053375837206 ]
    - [    -0.000261830908554,    -0.000053376639154,    -0.001075880481805 ]
  - # (2, 8)
    - [     0.017143741744823,    -0.002122682999796,    -0.001259493684407 ]
    - [    -0.002122661948357,    -0.145831188624643,     0.293115417403541 ]
    - [    -0.001259522604505,     0.293115441875856,    -0.465912867463330 ]
  - # (2, 9)
    - [     0.002602396038004,     0.007914239395088,     0.004695905003850 ]
    - [     0.007914240295668,     0.003349532336278,     0.006008783689397 ]
    - [     0.004695906685027,     0.006008784799710,    -0.003212051072605 ]
  - # (2, 10)
    - [     0.045814599954113,    -0.000316754015240,    -0.000187951805131 ]
    - [    -0.000316754112244,     0.047303811536642,    -0.000038314825275 ]
    - [    -0.000187951641646,    -0.000038315627223,     0.047345658373873 ]
  - # (2, 11)
    - [    -0.245165389388451,    -0.053226039094726,     0.152188584066181 ]
    - [    -0.053226041939507,     0.005075355575645,     0.031025133442096 ]
    - [     0.152188602330843,     0.031025136872874,    -0.062637510234716 ]
  - # (2, 12)
    - [     0.008418507316756,    -0.005757903315477,     0.006673314574443 ]
    - [    -0.005757904902241,    -0.002466578799553,    -0.003691057856299 ]
    - [     0.006673313780332,    -0.003691055490211,    -0.003212051567101 ]
  - # (2, 13)
    - [    -0.245165407860510,     0.108068055900750,    -0.119648085959156 ]
    - [     0.108068057456592,    -0.020988150702201,     0.045255780784205 ]
    - [    -0.119648078910193,     0.045255778813937,    -0.036573952213454 ]
  - # (2, 14)
    - [     0.008418506985013,     0.003097825249194,    -0.008251673004625 ]
    - [     0.003097826603893,    -0.006145838116406,    -0.001682185324140 ]
    - [    -0.008251676641772,    -0.001682184511063,     0.000467211480126 ]
  - # (2, 15)
    - [    -0.002933872054390,    -0.001489602636018,    -0.000883860237305 ]
    - [    -0.001489602636018,     0.004069454739618,    -0.000180182990636 ]
    - [    -0.000883860237305,    -0.000180182990636,     0.004266221147495 ]
  - # (2, 16)
    - [    -0.132958749788560,    -0.155700195132451,    -0.092384594541856 ]
    - [    -0.155700195563317,    -0.133194808444256,    -0.088480718252662 ]
    - [    -0.092384594906915,    -0.088480717125701,    -0.036573955146788 ]
  - # (2, 17)
    - [     0.053132964706392,     0.012327613698581,     0.007314571160801 ]
    - [     0.012327613773513,    -0.004824970145103,     0.001491147186141 ]
    - [     0.007314571077182,     0.001491147838138,    -0.006453296355438 ]
  - # (2, 18)
    - [    -0.284913191574641,     0.108196152835943,     0.064198127353728 ]
    - [     0.107864946427646,    -0.017542151892875,    -0.019249187274892 ]
    - [     0.064001648499519,    -0.019249202352472,     0.003477910960190 ]
  - # (2, 19)
    - [    -0.166114786042188,    -0.171398748513949,     0.051539916083350 ]
    - [    -0.171067559794217,    -0.136340567909193,     0.042843522405545 ]
    - [     0.051359087142462,     0.042766598420006,     0.003477920588787 ]
  - # (2, 20)
    - [    -0.000870278874870,    -0.001339968813298,    -0.004594980804495 ]
    - [    -0.001339969010719,     0.005429541114239,    -0.000936734971301 ]
    - [     0.005142762827071,     0.001048401455932,    -0.001415682610795 ]
  - # (2, 21)
    - [    -0.166114804261431,    -0.036901518931528,    -0.175134721021768 ]
    - [    -0.036901506440416,     0.007376679850242,    -0.035702913393745 ]
    - [    -0.174757382632984,    -0.035626000658111,    -0.140239288092026 ]
  - # (2, 22)
    - [    -0.000870281042328,    -0.004675127354994,     0.001025926038439 ]
    - [     0.003871637128448,     0.000203308598417,     0.003901923864773 ]
    - [    -0.003640601570104,     0.001916792351401,     0.003810549258188 ]
  - # (2, 23)
    - [    -0.000995198150194,     0.004165286050154,     0.002471466435585 ]
    - [    -0.004381477577177,     0.000328223004093,    -0.003188945224420 ]
    - [    -0.002599750779600,    -0.003188944755291,     0.003810552192970 ]
  - # (2, 24)
    - [     0.047510023050343,     0.000249902962402,     0.000148274158536 ]
    - [     0.000249903429832,     0.046335111158775,     0.000030225684217 ]
    - [     0.000148273417131,     0.000030229583899,     0.046302109166279 ]
  - # (3, 1)
    - [    -0.001213997834629,    -0.001574721557716,     0.000332805297416 ]
    - [    -0.001574723343281,    -0.000589945581263,     0.000532313359864 ]
    - [     0.000332808569504,     0.000532313673748,     0.000841540119552 ]
  - # (3, 2)
    - [    -0.009358817204249,     0.128528265517286,    -0.001612805612414 ]
    - [     0.128528264162587,    -0.613630909036549,    -0.000328789519754 ]
    - [    -0.001612801975267,    -0.000328790332830,     0.028389454498041 ]
  - # (3, 3)
    - [     1.089668464063030,     0.001814550751270,     0.001076657347108 ]
    - [     0.001814550751270,     1.081137398151375,     0.000219486244774 ]
    - [     0.001076657347108,     0.000219486244774,     1.080897723125407 ]
  - # (3, 4)
    - [    -0.002252843582275,     0.000867327724001,     0.000514624616399 ]
    - [     0.000867327232052,     0.000448903053186,    -0.000359555420976 ]
    - [     0.000514627922024,    -0.000359553993573,     0.000841536938160 ]
  - # (3, 5)
    - [     0.017143742639017,    -0.002122697545537,    -0.001259466806196 ]
    - [    -0.002122667706928,    -0.145831172633644,     0.293115383316493 ]
    - [    -0.001259519871794,     0.293115422288613,    -0.465912841734821 ]
  - # (3, 6)
    - [    -0.003208774994784,    -0.000441268636537,    -0.000261826189057 ]
    - [    -0.000441269956341,    -0.001134169947305,    -0.000053379083721 ]
    - [    -0.000261823108760,    -0.000053378013792,    -0.001075883829476 ]
  - # (3, 7)
    - [    -0.001214000262320,    -0.000462531960224,    -0.001541621258869 ]
    - [    -0.000462533411927,     0.000960582182457,    -0.000314273546089 ]
    - [    -0.001541617458237,    -0.000314275161114,    -0.000708991485082 ]
  - # (3, 8)
    - [    -0.009358814567049,     0.060177854685361,     0.113581446701133 ]
    - [     0.060177821272067,    -0.119328612536942,    -0.270217449867740 ]
    - [     0.113581415201815,    -0.270217505949566,    -0.465912857091341 ]
  - # (3, 9)
    - [     0.008418506762746,    -0.005757900962018,     0.006673310727049 ]
    - [    -0.005757900887913,    -0.002466578984026,    -0.003691053021493 ]
    - [     0.006673316219463,    -0.003691052702986,    -0.003212053738545 ]
  - # (3, 10)
    - [    -0.245165375628973,    -0.053226033661157,     0.152188570193505 ]
    - [    -0.053226035112860,     0.005075349126277,     0.031025131754039 ]
    - [     0.152188573994137,     0.031025130139015,    -0.062637498108508 ]
  - # (3, 11)
    - [     0.045814601701991,    -0.000316753744977,    -0.000187951028452 ]
    - [    -0.000316755035072,     0.047303813460243,    -0.000038316345829 ]
    - [    -0.000187947992155,    -0.000038315288464,     0.047345657177088 ]
  - # (3, 12)
    - [     0.002602397971215,     0.007914237830755,     0.004695907180431 ]
    - [     0.007914234462995,     0.003349530081737,     0.006008778693897 ]
    - [     0.004695910399314,     0.006008780246961,    -0.003212053834911 ]
  - # (3, 13)
    - [    -0.132958746267620,    -0.155700189445687,    -0.092384591868500 ]
    - [    -0.155700174602176,    -0.133194788454640,    -0.088480705303298 ]
    - [    -0.092384577350659,    -0.088480700670557,    -0.036573951958443 ]
  - # (3, 14)
    - [    -0.002933871785694,    -0.001489603065735,    -0.000883858977758 ]
    - [    -0.001489603065735,     0.004069450333712,    -0.000180184203987 ]
    - [    -0.000883858977758,    -0.000180184203987,     0.004266215358719 ]
  - # (3, 15)
    - [     0.008418506985013,     0.003097826603893,    -0.008251676641772 ]
    - [     0.003097825249194,    -0.006145838116406,    -0.001682184511063 ]
    - [    -0.008251673004625,    -0.001682185324139,     0.000467211480126 ]
  - # (3, 16)
    - [    -0.245165406256636,     0.108068054983950,    -0.119648088378610 ]
    - [     0.108068053198385,    -0.020988155613166,     0.045255777913750 ]
    - [    -0.119648085106522,     0.045255778227634,    -0.036573956472797 ]
  - # (3, 17)
    - [    -0.000870279870022,    -0.001339965956025,    -0.004594987296100 ]
    - [    -0.001339967293434,     0.005429533968854,    -0.000936732834814 ]
    - [     0.005142759723063,     0.001048401362256,    -0.001415684933335 ]
  - # (3, 18)
    - [    -0.166114798689190,    -0.171398758340785,     0.051539920174139 ]
    - [    -0.171067565697791,    -0.136340568909475,     0.042843521988798 ]
    - [     0.051359102725932,     0.042766608070531,     0.003477912078266 ]
  - # (3, 19)
    - [    -0.284913192522560,     0.108196152508628,     0.064198124189818 ]
    - [     0.107864968335562,    -0.017542162769674,    -0.019249190592307 ]
    - [     0.064001617251682,    -0.019249191782255,     0.003477916966646 ]
  - # (3, 20)
    - [     0.053132966417186,     0.012327611170926,     0.007314575804806 ]
    - [     0.012327612621902,    -0.004824966233946,     0.001491144994963 ]
    - [     0.007314575074336,     0.001491144406852,    -0.006453300962205 ]
  - # (3, 21)
    - [     0.047510021600400,     0.000249902466456,     0.000148270316729 ]
    - [     0.000249900935995,     0.046335109952871,     0.000030227061758 ]
    - [     0.000148277187019,     0.000030227240684,     0.046302108070906 ]
  - # (3, 22)
    - [    -0.000995199876023,     0.004165289226890,     0.002471467419638 ]
    - [    -0.004381475415549,     0.000328225595286,    -0.003188941356150 ]
    - [    -0.002599745178310,    -0.003188941832393,     0.003810546540317 ]
  - # (3, 23)
    - [    -0.000870279012151,    -0.004675128989095,     0.001025922815185 ]
    - [     0.003871633800412,     0.000203301725838,     0.003901920147362 ]
    - [    -0.003640601799224,     0.001916786490588,     0.003810549370188 ]
  - # (3, 24)
    - [    -0.166114809786422,    -0.036901519603923,    -0.175134728725630 ]
    - [    -0.036901520493414,     0.007376671185200,    -0.035702929868479 ]
    - [    -0.174757389792087,    -0.035626003135998,    -0.140239297573952 ]
  - # (4, 1)
    - [    -0.009358819878933,     0.128528256329213,    -0.001612804914839 ]
    - [     0.128528277346623,    -0.613630857682124,    -0.000328764572005 ]
    - [    -0.001612801026208,    -0.000328788524941,     0.028389452294175 ]
  - # (4, 2)
    - [    -0.001213999761458,    -0.001574719593012,     0.000332808734189 ]
    - [    -0.001574720768732,    -0.000589938559241,     0.000532318906391 ]
    - [     0.000332809011492,     0.000532316317575,     0.000841539811512 ]
  - # (4, 3)
    - [    -0.002252843582275,     0.000867327232052,     0.000514627922024 ]
    - [     0.000867327724001,     0.000448903053186,    -0.000359553993573 ]
    - [     0.000514624616399,    -0.000359555420976,     0.000841536938160 ]
  - # (4, 4)
    - [     1.089668523225838,     0.001814523716521,     0.001076505092369 ]
    - [     0.001814523716521,     1.081137232811846,     0.000219384977508 ]
    - [     0.001076505092369,     0.000219384977508,     1.080897832814167 ]
  - # (4, 5)