# Thermal properties / unit cell (natom)

unit:
  temperature:   K
  free_energy:   kJ/mol
  entropy:       J/K/mol
  heat_capacity: J/K/mol

natom: 4    
cutoff_frequency: 0.00000
num_modes: 210912
num_integrated_modes: 206324

zero_point_energy:      11.1077633

thermal_properties:
- temperature:         0.0000000
  free_energy:        11.1077633
  entropy:             0.0000000
  heat_capacity:       0.0000000
  energy:             11.1077633

- temperature:        10.0000000
  free_energy:        11.1016815
  entropy:             2.0403905
  heat_capacity:       4.7745475
  energy:             11.1220854

- temperature:        20.0000000
  free_energy:        11.0505858
  entropy:             8.6882259
  heat_capacity:      15.8011161
  energy:             11.2243503

- temperature:        30.0000000
  free_energy:        10.9223476
  entropy:            17.0814430
  heat_capacity:      25.9669936
  energy:             11.4347909

- temperature:        40.0000000
  free_energy:        10.7082221
  entropy:            25.7271949
  heat_capacity:      34.2652337
  energy:             11.7373099

- temperature:        50.0000000
  free_energy:        10.4086063
  entropy:            34.1426389
  heat_capacity:      41.2441618
  energy:             12.1157382

- temperature:        60.0000000
  free_energy:        10.0265367
  entropy:            42.2104515
  heat_capacity:      47.3069310
  energy:             12.5591638

- temperature:        70.0000000
  free_energy:         9.5656224
  entropy:            49.9114173
  heat_capacity:      52.6310702
  energy:             13.0594216

- temperature:        80.0000000
  free_energy:         9.0295107
  entropy:            57.2519256
  heat_capacity:      57.3184447
  energy:             13.6096647

- temperature:        90.0000000
  free_energy:         8.4217369
  entropy:            64.2466237
  heat_capacity:      61.4482154
  energy:             14.2039330

- temperature:       100.0000000
  free_energy:         7.7456719
  entropy:            70.9132518
  heat_capacity:      65.0881034
  energy:             14.8369970

- temperature:       110.0000000
  free_energy:         7.0045030
  entropy:            77.2705167
  heat_capacity:      68.2972008
  energy:             15.5042599

- temperature:       120.0000000
  free_energy:         6.2012305
  entropy:            83.3370734
  heat_capacity:      71.1275755
  energy:             16.2016793

- temperature:       130.0000000
  free_energy:         5.3386702
  entropy:            89.1310260
  heat_capacity:      73.6254247
  energy:             16.9257035

- temperature:       140.0000000
  free_energy:         4.4194608
  entropy:            94.6696855
  heat_capacity:      75.8318284
  energy:             17.6732168

- temperature:       150.0000000
  free_energy:         3.4460727
  entropy:            99.9694531
  heat_capacity:      77.7832428
  energy:             18.4414906

- temperature:       160.0000000
  free_energy:         2.4208165
  entropy:           105.0457686
  heat_capacity:      79.5118747
  energy:             19.2281395

- temperature:       170.0000000
  free_energy:         1.3458538
  entropy:           109.9130967
  heat_capacity:      81.0460258
  energy:             20.0310802

- temperature:       180.0000000
  free_energy:         0.2232061
  entropy:           114.5849360
  heat_capacity:      82.4104414
  energy:             20.8484946

- temperature:       190.0000000
  free_energy:        -0.9452353
  entropy:           119.0738456
  heat_capacity:      83.6266668
  energy:             21.6787954

- temperature:       200.0000000
  free_energy:        -2.1577000
  entropy:           123.3914828
  heat_capacity:      84.7134018
  energy:             22.5205966

- temperature:       210.0000000
  free_energy:        -3.4125301
  entropy:           127.5486483
  heat_capacity:      85.6868422
  energy:             23.3726860

- temperature:       220.0000000
  free_energy:        -4.7081715
  entropy:           131.5553369
  heat_capacity:      86.5609975
  energy:             24.2340027

- temperature:       230.0000000
  free_energy:        -6.0431661
  entropy:           135.4207901
  heat_capacity:      87.3479816
  energy:             25.1036156

- temperature:       240.0000000
  free_energy:        -7.4161450
  entropy:           139.1535492
  heat_capacity:      88.0582713
  energy:             25.9807068

- temperature:       250.0000000
  free_energy:        -8.8258212
  entropy:           142.7615077
  heat_capacity:      88.7009347
  energy:             26.8645557

- temperature:       260.0000000
  free_energy:       -10.2709836
  entropy:           146.2519613
  heat_capacity:      89.2838296
  energy:             27.7545264

- temperature:       270.0000000
  free_energy:       -11.7504913
  entropy:           149.6316563
  heat_capacity:      89.8137759
  energy:             28.6500559

- temperature:       280.0000000
  free_energy:       -13.2632683
  entropy:           152.9068342
  heat_capacity:      90.2967025
  energy:             29.5506452

- temperature:       290.0000000
  free_energy:       -14.8082989
  entropy:           156.0832738
  heat_capacity:      90.7377741
  energy:             30.4558505

- temperature:       300.0000000
  free_energy:       -16.3846226
  entropy:           159.1663296
  heat_capacity:      91.1414991
  energy:             31.3652763

- temperature:       310.0000000
  free_energy:       -17.9913308
  entropy:           162.1609678
  heat_capacity:      91.5118212
  energy:             32.2785692

- temperature:       320.0000000
  free_energy:       -19.6275626
  entropy:           165.0717987
  heat_capacity:      91.8521984
  energy:             33.1954130

- temperature:       330.0000000
  free_energy:       -21.2925017
  entropy:           167.9031068
  heat_capacity:      92.1656691
  energy:             34.1155236

- temperature:       340.0000000
  free_energy:       -22.9853730
  entropy:           170.6588782
  heat_capacity:      92.4549096
  energy:             35.0386456

- temperature:       350.0000000
  free_energy:       -24.7054399
  entropy:           173.3428250
  heat_capacity:      92.7222823
  energy:             35.9645489

- temperature:       360.0000000
  free_energy:       -26.4520016
  entropy:           175.9584083
  heat_capacity:      92.9698775
  energy:             36.8930254

- temperature:       370.0000000
  free_energy:       -28.2243910
  entropy:           178.5088586
  heat_capacity:      93.1995487
  energy:             37.8238867

- temperature:       380.0000000
  free_energy:       -30.0219718
  entropy:           180.9971944
  heat_capacity:      93.4129431
  energy:             38.7569621

- temperature:       390.0000000
  free_energy:       -31.8441372
  entropy:           183.4262396
  heat_capacity:      93.6115279
  energy:             39.6920962

- temperature:       400.0000000
  free_energy:       -33.6903078
  entropy:           185.7986386
  heat_capacity:      93.7966125
  energy:             40.6291477

- temperature:       410.0000000
  free_energy:       -35.5599295
  entropy:           188.1168704
  heat_capacity:      93.9693680
  energy:             41.5679874

- temperature:       420.0000000
  free_energy:       -37.4524724
  entropy:           190.3832615
  heat_capacity:      94.1308440
  energy:             42.5084974

- temperature:       430.0000000
  free_energy:       -39.3674292
  entropy:           192.5999977
  heat_capacity:      94.2819831
  energy:             43.4505698

- temperature:       440.0000000
  free_energy:       -41.3043137
  entropy:           194.7691345
  heat_capacity:      94.4236331
  energy:             44.3941055

- temperature:       450.0000000
  free_energy:       -43.2626597
  entropy:           196.8926069
  heat_capacity:      94.5565586
  energy:             45.3390134

- temperature:       460.0000000
  free_energy:       -45.2420197
  entropy:           198.9722382
  heat_capacity:      94.6814498
  energy:             46.2852099

- temperature:       470.0000000
  free_energy:       -47.2419641
  entropy:           201.0097484
  heat_capacity:      94.7989312
  energy:             47.2326177

- temperature:       480.0000000
  free_energy:       -49.2620797
  entropy:           203.0067612
  heat_capacity:      94.9095688
  energy:             48.1811657

- temperature:       490.0000000
  free_energy:       -51.3019694
  entropy:           204.9648110
  heat_capacity:      95.0138764
  energy:             49.1307880

- temperature:       500.0000000
  free_energy:       -53.3612509
  entropy:           206.8853491
  heat_capacity:      95.1123211
  energy:             50.0814237

- temperature:       510.0000000
  free_energy:       -55.4395559
  entropy:           208.7697495
  heat_capacity:      95.2053284
  energy:             51.0330163

- temperature:       520.0000000
  free_energy:       -57.5365298
  entropy:           210.6193138
  heat_capacity:      95.2932863
  energy:             51.9855134

- temperature:       530.0000000
  free_energy:       -59.6518302
  entropy:           212.4352766
  heat_capacity:      95.3765494
  energy:             52.9388664

- temperature:       540.0000000
  free_energy:       -61.7851272
  entropy:           214.2188094
  heat_capacity:      95.4554420
  energy:             53.8930299

- temperature:       550.0000000
  free_energy:       -63.9361020
  entropy:           215.9710248
  heat_capacity:      95.5302612
  energy:             54.8479616

- temperature:       560.0000000
  free_energy:       -66.1044468
  entropy:           217.6929808
  heat_capacity:      95.6012795
  energy:             55.8036224

- temperature:       570.0000000
  free_energy:       -68.2898641
  entropy:           219.3856834
  heat_capacity:      95.6687475
  energy:             56.7599754

- temperature:       580.0000000
  free_energy:       -70.4920662
  entropy:           221.0500905
  heat_capacity:      95.7328954
  energy:             57.7169863

- temperature:       590.0000000
  free_energy:       -72.7107747
  entropy:           222.6871146
  heat_capacity:      95.7939355
  energy:             58.6746230

- temperature:       600.0000000
  free_energy:       -74.9457201
  entropy:           224.2976257
  heat_capacity:      95.8520633
  energy:             59.6328553

- temperature:       610.0000000
  free_energy:       -77.1966416
  entropy:           225.8824536
  heat_capacity:      95.9074595
  energy:             60.5916551

- temperature:       620.0000000
  free_energy:       -79.4632862
  entropy:           227.4423906
  heat_capacity:      95.9602911
  energy:             61.5509959

- temperature:       630.0000000
  free_energy:       -81.7454089
  entropy:           228.9781934
  heat_capacity:      96.0107126
  energy:             62.5108529

- temperature:       640.0000000
  free_energy:       -84.0427721
  entropy:           230.4905855
  heat_capacity:      96.0588672
  energy:             63.4712026

- temperature:       650.0000000
  free_energy:       -86.3551449
  entropy:           231.9802586
  heat_capacity:      96.1048876
  energy:             64.4320231

- temperature:       660.0000000
  free_energy:       -88.6823037
  entropy:           233.4478748
  heat_capacity:      96.1488971
  energy:             65.3932937

- temperature:       670.0000000
  free_energy:       -91.0240310
  entropy:           234.8940683
  heat_capacity:      96.1910104
  energy:             66.3549948

- temperature:       680.0000000
  free_energy:       -93.3801157
  entropy:           236.3194465
  heat_capacity:      96.2313339
  energy:             67.3171079

- temperature:       690.0000000
  free_energy:       -95.7503525
  entropy:           237.7245918
  heat_capacity:      96.2699670
  energy:             68.2796158

- temperature:       700.0000000
  free_energy:       -98.1345419
  entropy:           239.1100627
  heat_capacity:      96.3070022
  energy:             69.2425019

- temperature:       710.0000000
  free_energy:      -100.5324900
  entropy:           240.4763955
  heat_capacity:      96.3425258
  energy:             70.2057508

- temperature:       720.0000000
  free_energy:      -102.9440078
  entropy:           241.8241048
  heat_capacity:      96.3766183
  energy:             71.1693477

- temperature:       730.0000000
  free_energy:      -105.3689116
  entropy:           243.1536853
  heat_capacity:      96.4093553
  energy:             72.1332787

- temperature:       740.0000000
  free_energy:      -107.8070226
  entropy:           244.4656124
  heat_capacity:      96.4408070
  energy:             73.0975305

- temperature:       750.0000000
  free_energy:      -110.2581666
  entropy:           245.7603431
  heat_capacity:      96.4710396
  energy:             74.0620907

- temperature:       760.0000000
  free_energy:      -112.7221737
  entropy:           247.0383172
  heat_capacity:      96.5001148
  energy:             75.0269474

- temperature:       770.0000000
  free_energy:      -115.1988785
  entropy:           248.2999582
  heat_capacity:      96.5280907
  energy:             75.9920894

- temperature:       780.0000000
  free_energy:      -117.6881197
  entropy:           249.5456737
  heat_capacity:      96.5550217
  energy:             76.9575058

- temperature:       790.0000000
  free_energy:      -120.1897402
  entropy:           250.7758565
  heat_capacity:      96.5809588
  energy:             77.9231865

- temperature:       800.0000000
  free_energy:      -122.7035864
  entropy:           251.9908852
  heat_capacity:      96.6059501
  energy:             78.8891218

- temperature:       810.0000000
  free_energy:      -125.2295086
  entropy:           253.1911248
  heat_capacity:      96.6300408
  energy:             79.8553025

- temperature:       820.0000000
  free_energy:      -127.7673607
  entropy:           254.3769274
  heat_capacity:      96.6532735
  energy:             80.8217198

- temperature:       830.0000000
  free_energy:      -130.3170001
  entropy:           255.5486330
  heat_capacity:      96.6756882
  energy:             81.7883652

- temperature:       840.0000000
  free_energy:      -132.8782875
  entropy:           256.7065695
  heat_capacity:      96.6973227
  energy:             82.7552309

- temperature:       850.0000000
  free_energy:      -135.4510867
  entropy:           257.8510540
  heat_capacity:      96.7182126
  energy:             83.7223092

- temperature:       860.0000000
  free_energy:      -138.0352648
  entropy:           258.9823925
  heat_capacity:      96.7383915
  energy:             84.6895928

- temperature:       870.0000000
  free_energy:      -140.6306917
  entropy:           260.1008810
  heat_capacity:      96.7578911
  energy:             85.6570748

- temperature:       880.0000000
  free_energy:      -143.2372405
  entropy:           261.2068056
  heat_capacity:      96.7767416
  energy:             86.6247485

- temperature:       890.0000000
  free_energy:      -145.8547869
  entropy:           262.3004431
  heat_capacity:      96.7949712
  energy:             87.5926075

- temperature:       900.0000000
  free_energy:      -148.4832093
  entropy:           263.3820613
  heat_capacity:      96.8126069
  energy:             88.5606459

- temperature:       910.0000000
  free_energy:      -151.1223889
  entropy:           264.4519194
  heat_capacity:      96.8296740
  energy:             89.5288578

- temperature:       920.0000000
  free_energy:      -153.7722093
  entropy:           265.5102684
  heat_capacity:      96.8461966
  energy:             90.4972376

- temperature:       930.0000000
  free_energy:      -156.4325567
  entropy:           266.5573513
  heat_capacity:      96.8621975
  energy:             91.4657800

- temperature:       940.0000000
  free_energy:      -159.1033196
  entropy:           267.5934037
  heat_capacity:      96.8776985
  energy:             92.4344799

- temperature:       950.0000000
  free_energy:      -161.7843888
  entropy:           268.6186538
  heat_capacity:      96.8927199
  energy:             93.4033323

- temperature:       960.0000000
  free_energy:      -164.4756574
  entropy:           269.6333230
  heat_capacity:      96.9072814
  energy:             94.3723327

- temperature:       970.0000000
  free_energy:      -167.1770207
  entropy:           270.6376260
  heat_capacity:      96.9214014
  energy:             95.3414765

- temperature:       980.0000000
  free_energy:      -169.8883760
  entropy:           271.6317708
  heat_capacity:      96.9350976
  energy:             96.3107593

- temperature:       990.0000000
  free_energy:      -172.6096229
  entropy:           272.6159596
  heat_capacity:      96.9483867
  energy:             97.2801771

- temperature:      1000.0000000
  free_energy:      -175.3406627
  entropy:           273.5903885
  heat_capacity:      96.9612846
  energy:             98.2497258
