4
Lattice="4.058190635718177 0.002007387424023438 -0.0028051809859936357 -0.003004155122774864 4.05753489107411 -0.0026335691221677274 0.003327995158048075 0.003132394120836606 4.447073376346636" Properties=species:S:1:pos:R:3:forces:R:3 structure_index=0 total_energy=-11.800252914428711 stress="0.066167913377285 -0.009283156134188175 0.0008111225324682891 -0.009283236227929592 0.06281495839357376 0.00077946821693331 0.0008110950002446771 0.0007794989505782723 0.09977973252534866" pbc="T T T"
Li       1.08543622       4.03354908       0.59693076       0.00004594       0.00025864      -0.00008173
Li       3.11613107       2.00602533       0.59687816      -0.00019245      -0.00039959      -0.00013001
Ga       1.08858828       2.00632550       2.82101541      -0.00006071       0.00040835       0.00101719
Sn       3.11614588       4.03621908       2.81932726       0.00020722      -0.00026740      -0.00080545
16
Lattice="5.441808908565955 0.001521377647757994 -0.06087941112223465 0.0027047891844246765 6.411617255972297 0.11669326582245367 -0.08228096406439134 0.0793587068047153 10.167299156458087" Properties=species:S:1:pos:R:3:forces:R:3 structure_index=1 total_energy=-50.12059020996094 stress="-0.001250279601663351 -3.7619272916344926e-05 0.002944191684946418 -3.7629368307534605e-05 0.00010104393732035533 -0.00243583507835865 0.0029441278893500566 -0.00243592937476933 -0.000707681174390018" pbc="T T T"
Li       0.47579390       2.83592501       7.06169328       0.00112844      -0.01415507      -0.00712961
Li       4.98576444       1.31033572       1.91799363      -0.00061290       0.02619975       0.01646288
Li       2.20999368       5.91157228       2.02485985      -0.02234078      -0.01444833       0.00418779
Ga       4.05486077       2.85663468       4.58969246      -0.00867830       0.00533548      -0.01107924
Ga       4.95798047       4.53162409       1.97158549      -0.01525342      -0.00978970       0.01027485
Ga       4.05099213       6.10143014       9.86759122       0.03420689       0.01680514       0.02828229
Ga       3.02714757       4.37039374       7.04665372       0.00752498      -0.01714262      -0.00151441
Ga       3.99154144       6.04014565       4.40531709      -0.00690892       0.00737567      -0.00560700
Ga       1.39874296       4.45536211       9.60354843       0.03779401      -0.00515555      -0.01735290
Ga       3.08322202       1.32773600       6.98008604       0.00422290       0.01215687      -0.00446455
Sn       1.29888117       1.19903187       4.50902567      -0.00781339      -0.00497525       0.00270244
Sn       1.40570100       1.13993292       9.58119595       0.02469844      -0.01643175      -0.01104212
Sn       1.28181037       4.43405554       4.56776556      -0.01579368      -0.00075434      -0.01673492
Sn       4.15712414       3.00584046       9.48984627       0.00627169       0.03149064      -0.00938850
Sn       2.38226046       2.87689274       1.97832548      -0.00345855      -0.00422082       0.00215033
Sn       0.05991237       5.97699745       7.22481504      -0.03498742      -0.01229012       0.02025273
9
Lattice="3.213736888855613 -0.00014906279637915424 0.0010962694643933324 0.006369361355847023 6.804823797535932 -3.920048462249215 -0.0029939417288811915 -0.008443431618494332 7.852705717089484" Properties=species:S:1:pos:R:3:forces:R:3 structure_index=2 total_energy=-26.406309127807617 stress="0.0456768199801445 8.652577525936067e-05 -0.0003492723044473678 8.647383219795302e-05 0.022306306287646294 -0.000150140214827843 -0.0003493291442282498 -0.00015018280828371644 0.02233346737921238" pbc="T T T"
Li       0.33133135       2.81471022       3.86519558       0.00043612      -0.00159002      -0.00852526
Li       0.33531695       5.08843209      -2.71778836       0.00002189       0.00124588       0.00019984
Li       0.33502414       5.12089210      -0.12009683       0.00039217      -0.00364345       0.00149835
Li       0.32786585       0.54620842       5.13203671       0.00011185       0.00110532      -0.00248160
Li       0.33026475       0.51763636      -0.12410157       0.00064778       0.00695194       0.00535057
Ga       0.32895300       2.81999812       1.20665054      -0.00210796      -0.00545835       0.00129992
Sn       1.94101205       5.08113850       2.51628650      -0.00029548      -0.00715385      -0.00135172
Sn       1.93970273       2.82074518      -1.40757277       0.00038305      -0.00093994       0.00771744
Sn       1.93590248       0.55120605       2.51247568       0.00041054       0.00948247      -0.00370758
16
Lattice="4.080271078354968 0.002271888534282352 0.0012254882057921596 -0.002262767785021857 4.103874510168345 -0.00012698016106461234 -0.006164321234850703 0.0001580035755027831 16.95782119090577" Properties=species:S:1:pos:R:3:forces:R:3 structure_index=3 total_energy=-45.9664192199707 stress="-0.014297549612820148 0.00010294879029970616 -5.737939500249922e-05 0.0001030571002047509 -0.012808014638721943 -3.258456490584649e-05 -5.711638732464053e-05 -3.280263626947999e-05 -0.014370787888765335" pbc="T T T"
Li       1.82774884       3.44823623       6.38374791      -0.00110437      -0.00001735      -0.02127894
Li       1.82043662       3.45420067      14.99034540       0.00112604      -0.00062444       0.01903791
Li       3.86334744       1.40335997      14.77692948      -0.00062515      -0.00111245       0.00973220
Li       3.86702498       1.39766892      10.82521090      -0.00053662       0.00053253      -0.02428371
Li       3.86680888       3.44885319       8.50819287      -0.00010192      -0.00024757      -0.00496508
Li       1.82608146       3.45299322       2.28246910       0.00043449      -0.00008722       0.03083800
Ga       1.82776687       1.39542903       8.42404637       0.00023180       0.00181065       0.00271915
Ga       3.85918695       3.45518679      16.91760062       0.00043661      -0.00078614       0.00364899
Ga       1.82859561       1.39737577       4.50124253      -0.00131240       0.00054685       0.00639642
Ga       1.82488821       1.40028917      12.91646049      -0.00007216      -0.00140004       0.00469986
Ga       3.86435291       3.45363136      12.88922671      -0.00091544      -0.00015881       0.01412752
Ga       1.82031326       1.40218901      16.90805379       0.00203056       0.00036322       0.00148736
Ga       3.86754432       3.45102738       4.54831944       0.00069869       0.00014347       0.00057457
Ga       3.86856889       1.39732452       6.58575679      -0.00015816       0.00088361      -0.01591614
Sn       1.82570477       3.44827550      10.66853033       0.00015415       0.00164233      -0.04647373
Sn       3.86751246       1.40236861       2.19378482      -0.00028608      -0.00148864       0.01965559
10
Lattice="4.3512463152678915 -0.0039561109127647445 -0.00018801398397339455 0.0038778744038486094 4.275571754437672 -0.8045193621163651 0.0001552477089095102 -0.10756124119739702 11.167118074294395" Properties=species:S:1:pos:R:3:forces:R:3 structure_index=4 total_energy=-31.119487762451172 stress="-0.015265366062521935 8.207312930608168e-05 -0.00011478360829642043 8.209983934648335e-05 -0.0346798337996006 0.005663888528943062 -0.00011480825196485966 0.005663796328008175 -0.009268378838896751" pbc="T T T"
Li       4.02071118       3.86618440       0.46659780       0.00036098      -0.00152309      -0.01190274
Li       1.84588762       3.36196871       9.51959651      -0.00086528       0.00342717       0.00597099
Li       1.84473506       2.60215330       5.44194606       0.00023599      -0.00404741      -0.00807189
Li       1.84377947       0.84775399       7.89814242      -0.00077454      -0.00635389      -0.02511763
Ga       1.84168259       0.01790629       3.47566837       0.00086440      -0.00204254       0.01668962
Ga       4.01871393       1.23133917       9.95582822       0.00066812       0.00050048       0.01151192
Sn       4.02087693       3.00124399       7.59482506       0.00065942       0.00849548       0.03666716
Sn       4.01868097       0.44162987       5.74262763      -0.00044683      -0.00366314      -0.01374211
Sn       4.01956449       2.15882275       3.11349720      -0.00061328       0.00592056       0.01062901
Sn       1.84328110       1.70591412       0.74497691      -0.00008899      -0.00071363      -0.02263434
19
Lattice="6.88991200342833 -0.006321235117636279 -1.7548444830043834 -3.411299375814997 5.883884331844264 -2.086466205756251 -0.05517394969085619 0.015680781311067295 8.02407261951109" Properties=species:S:1:pos:R:3:forces:R:3 structure_index=5 total_energy=-48.93651580810547 stress="-0.004428102169185877 0.0021351841278374195 0.0006587256793864071 0.00213515292853117 -0.004294464364647865 -0.0009820348350331187 0.0006588101969100535 -0.0009817600948736072 -0.004175341222435236" pbc="T T T"
Li       0.67487903       2.55209007      -0.80928133       0.01504145       0.01810089      -0.00878501
Li       3.10059313       2.33852361       5.79417591       0.00136983      -0.00593418      -0.00167976
Li       2.84012270       2.32958160       3.24264185      -0.00253591       0.00266854      -0.00856029
Li       1.38385934       4.08669636       1.49629710      -0.00898122       0.00638956      -0.01519877
Li       0.68256106       1.20973873       1.91291153      -0.00457865       0.00875157       0.00528731
Li       3.00120730       4.93295781      -0.71368917       0.01920938       0.00869544       0.01710514
Li       5.37657586       0.66882915       4.79364058      -0.00631996      -0.03495383       0.02019034
Li       1.98134013       0.21292852       7.08673053       0.00124257       0.00589833      -0.00064328
Li      -1.56797656       3.31828756       0.92368175      -0.00020202      -0.00658858      -0.00020426
Li       5.18028495       1.61141262       2.00441283       0.00327126       0.01152743      -0.00732371
Li       4.20470364       4.34630491       1.83144617      -0.00802551      -0.00320627       0.00451327
Li      -0.36716229       5.48337412      -0.55229330      -0.01912588       0.00226871      -0.00331208
Ga      -0.63567052       5.70563411       2.19103284      -0.02362747       0.00377921      -0.00760005
Ga       3.02297454       2.24926876       0.49791879       0.00891593      -0.00438297       0.00063161
Ga       3.28504989       4.95389252       4.48594180       0.02225123      -0.01790859       0.04129496
Ga       4.78811967       0.60951165      -0.50138130      -0.01193883      -0.02239772      -0.00521561
Ga       0.62314829       1.13659981       4.86098580       0.01512372       0.02783001       0.02072912
Ga      -1.63171088       3.29380100       6.03710449       0.00187897      -0.00888168      -0.01744087
Sn       0.47466481       3.92312694       4.21646143      -0.00296890       0.00834422      -0.03378808
12
Lattice="3.3540506487549915 -0.0001011228631905686 0.00020790461232592843 0.0006450631079415337 8.063900808335784 -0.0009794784188301001 -0.0005821502956416039 0.0001907433909316817 9.039377213297987" Properties=species:S:1:pos:R:3:forces:R:3 structure_index=6 total_energy=-36.07713317871094 stress="0.0015528096118941903 -7.41983312764205e-05 -2.715189111768268e-05 -7.429418474202976e-05 0.020859166979789734 -0.00018985330825671554 -2.729898005782161e-05 -0.0001899082271847874 -0.02333679422736168" pbc="T T T"
Li       1.10791338       0.69775596       7.54034870       0.00042292       0.01708149      -0.00110139
Li       1.10964965       4.07663512       5.28104324      -0.00040988      -0.01442652      -0.00063802
Li       1.10929779       4.08346180       0.76106778       0.00005947      -0.02060213      -0.00100092
Li       1.10830002       0.70479658       3.02162471       0.00016290       0.00900393      -0.00071851
Li       2.78569168       6.04493726       3.01873244      -0.00013423       0.03687652       0.00202175
Li       2.78615022       6.04204511       7.54051159      -0.00097316       0.03926750      -0.00133596
Ga       2.78564654       1.38041635       5.28078770      -0.00043496      -0.02008949      -0.00060028
Ga       2.78438096       1.37929925       0.76094397       0.00124511      -0.01815643       0.00094313
Sn       1.10814035       6.98513405       5.27875454       0.00118812      -0.00101677       0.00200178
Sn       1.10867097       6.98641516       0.76078958       0.00029551      -0.00014501      -0.00099572
Sn       2.78615595       3.14410639       7.54213032      -0.00086305      -0.01242118      -0.00275733
Sn       2.78629151       3.14656591       3.01890823      -0.00055877      -0.01537194       0.00418146
12
Lattice="4.028402587946242 -0.0013675885318244693 -1.3347630287772703 0.004277284518213614 7.9863201469512894 0.004900806728699937 -0.058735100831521336 -0.0039463846418044905 6.568032348573815" Properties=species:S:1:pos:R:3:forces:R:3 structure_index=7 total_energy=-32.50694274902344 stress="0.0005979281850159168 -0.00016088531992863864 0.010171543806791306 -0.00016092958685476333 0.02317577786743641 5.101105853100307e-05 0.010171451605856419 5.0860733608715236e-05 0.02422621287405491" pbc="T T T"
Li       1.29505853       7.71651977       4.42302732       0.00289794      -0.00436595       0.00817451
Li       2.58708060       7.74737944       1.57600677      -0.00285579       0.00350400      -0.00806024
Li       1.98609024       1.74434867      -0.23147915       0.00267800      -0.00018205       0.00849574
Li       2.58497407       3.72408930       1.57353225      -0.00298066      -0.00373363      -0.00814202
Li       1.29276999       3.75357554       4.42000456       0.00296420       0.00289653       0.00857044
Li       1.95041004       5.73690502      -0.34259382      -0.00258445       0.00067269      -0.00847175
Li       3.28292427       1.74148120       3.68221492      -0.00288068      -0.00047761      -0.00904822
Li       0.59492394       5.73617332       2.31197038       0.00290365       0.00058149       0.00881600
Ga       3.98467854       7.73288050      -0.95181244      -0.00014966       0.00019231      -0.00029502
Ga       3.98245735       3.74036436      -0.95448300       0.00029987      -0.00097372       0.00090567
Sn       3.24501855       5.73416306       3.56343814      -0.00070087       0.00070639      -0.00125789
Sn       0.63280556       1.74292038       2.43057086       0.00040842       0.00117950       0.00031279
6
Lattice="3.260901076407617 0.0035668428375124446 -0.0009709848364855538 -0.003923063041360803 3.26109262637336 -0.0012091550452937795 0.0018692405210183835 0.00244211069918619 10.599865469691178" Properties=species:S:1:pos:R:3:forces:R:3 structure_index=8 total_energy=-18.178321838378906 stress="-0.021043067798018456 -0.0016085024690255523 -0.002386734588071704 -0.0016085458919405937 -0.019097302109003067 -0.003170149167999625 -0.0023869501892477274 -0.003170264419168234 0.03611992672085762" pbc="T T T"
Li       0.57689638       1.35225526       4.68635491      -0.00007301      -0.00018429       0.00083085
Li       0.57613770       1.35144347       0.88469776       0.00002698       0.00003740      -0.02539335
Li       0.57723124       1.35318767       8.49190523       0.00009096      -0.00013140       0.02218420
Ga       2.20608373       2.98592937       9.98662173       0.00008197      -0.00019359       0.00089689
Sn       2.20547716       2.98491247       6.60322048       0.00010417       0.00020634       0.01300889
Sn       2.20515304       2.98401630       2.76855862      -0.00023110       0.00026552      -0.01152748
4
Lattice="4.37029982836755 7.179683975597937e-05 -0.00016964321278175844 -1.8577372521195696e-05 4.265872053601156 0.0006799903568891047 0.0006171927629921649 -0.001026585837477996 4.267545902584638" Properties=species:S:1:pos:R:3:forces:R:3 structure_index=9 total_energy=-12.158525466918945 stress="0.03249114379286766 0.0002557241532485932 0.0022303301375359297 0.0002555356186348945 -0.09602061659097672 -0.001072732382453978 0.002230169717222452 -0.0010728747583925724 -0.08419919013977051" pbc="T T T"
Li       0.74311811       0.07161614       1.95361120      -0.00009411      -0.00027285      -0.00094123
Ga       2.92820588       2.20429027       1.95320577      -0.00012962       0.00016148       0.00023554
Ga       2.92839197       0.07082113       4.08634830       0.00019781       0.00033298       0.00078866
Sn       0.74327333       2.20394243       4.08740537       0.00002589      -0.00022160      -0.00008296
18
Lattice="4.382033893901604 -0.007004562295140288 -0.0006949680461486363 -2.18100780388576 6.3473010712990625 -0.0026848491221077965 0.002297498729684513 -0.04320898512084873 13.278552239594266" Properties=species:S:1:pos:R:3:forces:R:3 structure_index=10 total_energy=-54.53314971923828 stress="-0.01968662440776825 8.854063344188035e-05 3.544901483110152e-05 8.852187602315098e-05 -0.008064482361078262 -0.0019434535643085837 3.554683644324541e-05 -0.0019434146815910935 -0.0031411866657435894" pbc="T T T"
Li       1.04542331       2.41256185       1.52865476       0.00135245       0.02625414      -0.00250380
Li       3.23677526       0.19343246      10.63827428      -0.00017254      -0.02155488      -0.01599192
Li       3.23824772       2.38856501       3.98872594      -0.00026105       0.02485537       0.01229383
Li       3.23245270       0.14728010       1.53060275       0.00128491      -0.01049451       0.03267046
Li       3.24067164       2.44606776       8.08959590      -0.00046155       0.00741584      -0.01417253
Ga       1.05177594       4.40965649      12.68146122       0.00134032       0.04300233      -0.02210223
Ga       1.04419126       0.29698091      12.73308996       0.00021400       0.00750688       0.02004422
Ga       1.04777101       2.36843466       5.93498993       0.00047688       0.00674066      -0.03443669
Ga       1.04848657       2.26809893      10.69564528       0.00072746      -0.01915242       0.00184008
Ga      -1.13933819       4.59622490       6.01693686      -0.00166629      -0.00710072       0.01403106
Ga       3.23596657       0.38584702       5.97807799       0.00081762       0.01441342       0.03482931
Ga       1.04456515       0.38367969       3.85845879      -0.00155332      -0.00953949      -0.01113852
Ga       3.23822108       2.12952786      12.76532925      -0.00005189      -0.03921774       0.00187298
Sn       1.04673364       0.47943155       8.24153202      -0.00150079      -0.00558696       0.00147327
Sn       1.05206004       4.48890184       8.13543227       0.00142179       0.00359390       0.01225673
Sn      -1.14128266       4.42589520       1.44274196      -0.00193942      -0.01996254      -0.00088395
Sn       1.05014643       4.59556673       3.91483623       0.00238851       0.00411301      -0.00717022
Sn      -1.13840293       4.34091672      10.65014101      -0.00241704      -0.00528631      -0.02291208
8
Lattice="3.9252684393097717 -0.0038315179250804424 0.007022946769320981 0.006234407908508 5.886296302095141 -0.28653011989371147 -0.010741354744623306 -0.16238901496336275 5.892192698165752" Properties=species:S:1:pos:R:3:forces:R:3 structure_index=11 total_energy=-22.74818229675293 stress="-0.01429525576531887 -0.0001985794515348971 -0.00022698155953548849 -0.00019858505402226 -0.030406173318624496 0.0006799454567953944 -0.00022701612033415586 0.0006798334652557969 -0.02963011898100376" pbc="T T T"
Li       0.45564379       3.74826202       3.81067943      -0.00022210       0.00003161       0.00221891
Li       0.45812560       0.88515012       1.01085783      -0.00069972       0.00144534      -0.00161339
Li       2.41953832       2.34597411       2.38337412       0.00007749       0.01236824      -0.01177075
Li       2.41676793       5.14555753       5.24798469       0.00073034      -0.01091874       0.01242757
Ga       0.46096770       3.82990452       0.86490461       0.00000078      -0.00188921       0.00292510
Ga       2.42259892       5.16492216       2.17752574      -0.00005584      -0.00153466       0.00278041
Ga       2.41387104       2.32715995       5.45535399       0.00025984       0.00111993      -0.00574115
Sn       0.45251383       0.80536390       3.95664283      -0.00009080      -0.00062253      -0.00122670
12
Lattice="4.414493136165861 0.006029118103757535 -0.005880333356158132 -0.008607884924328452 6.152347176249092 -0.11429128364594009 0.011533659955136237 0.09739891651247276 9.021992655105644" Properties=species:S:1:pos:R:3:forces:R:3 structure_index=12 total_energy=-36.856719970703125 stress="-0.020546622574329376 -0.0002516601234674454 -0.00015959596203174442 -0.00025167668354697526 -0.015202476643025875 -0.020138967782258987 -0.00015945563791319728 -0.020138824358582497 -0.01627424545586109" pbc="T T T"
Li       3.40190476       3.17230248       1.67772219      -0.00077196      -0.00485962      -0.00925343
Li       1.19014515       4.59572100       0.03122728      -0.00017717      -0.01719349       0.00000036
Li       3.40112409       6.05008813       4.54177262       0.00021584       0.00240920       0.00279951
Li       1.19832693       1.52423218       3.18850951       0.00024139       0.02352691       0.00344849
Ga       1.20266191       1.36650263       6.25544720      -0.00046884       0.00431465      -0.03807829
Ga       3.40916861       3.02633927       7.64201622       0.00040270      -0.02852149       0.01227435
Ga       3.40571982       0.04847761       1.67395116       0.00000316       0.03282164       0.02362505
Ga       1.19806162       4.50923027       5.95517129      -0.00045454      -0.01993026       0.03187542
Sn       1.19379764       4.71291236       2.97671337       0.00022983      -0.00803238      -0.01827437
Sn       3.40494073       6.00040914       7.57956034       0.00107988      -0.01505077      -0.00661441
Sn       1.19446290       1.60201889       0.22565236       0.00000259      -0.00080298       0.01160469
Sn       3.40595797       2.87228317       4.71852957      -0.00030287       0.03131859      -0.01340739
6
Lattice="4.535637288463876 0.00287410359381045 0.00043199179238633407 -2.2679295007433034 3.9280072621909508 -0.0007024802603185525 -0.00031326147922981415 0.001708727383528077 7.30654411721198" Properties=species:S:1:pos:R:3:forces:R:3 structure_index=13 total_energy=-18.39491081237793 stress="-0.02514049969613552 4.386355431051925e-05 0.0003104129573330283 4.373385672806762e-05 -0.02488730102777481 0.0009059961303137243 0.0003104374627582729 0.0009059819858521223 -0.0025693972129374743" pbc="T T T"
Li       0.04566474       3.87778800       1.94781474       0.00026606       0.00032625       0.00042056
Li       0.04251610       3.88012758       5.60021402      -0.00026568       0.00082396      -0.00015419
Ga       2.31155621       2.57187246       4.28584033      -0.00057117      -0.00056403      -0.01478980
Ga       2.31084024       2.57203300       6.91417044       0.00028898       0.00023701       0.01238352
Sn       0.04450348       1.26002871       3.45497920      -0.00001067      -0.00044133       0.01699806
Sn       0.04403896       1.25886166       0.43698045       0.00029247      -0.00038187      -0.01485814
12
Lattice="5.515230319058552 0.08609410442928574 -0.8006653772786262 -0.09157595894678325 5.071858023372055 -0.017059753274120237 0.10347368529933226 -0.030501029063031697 7.516594634094158" Properties=species:S:1:pos:R:3:forces:R:3 structure_index=14 total_energy=-33.28657913208008 stress="-0.021741768345236778 0.003918366506695747 0.01619369350373745 0.003918411675840616 -0.010909163393080235 0.004569202195852995 0.01619366742670536 0.004569157026708126 -0.016822975128889084" pbc="T T T"
Li       1.73447165       0.75456968       3.19641641       0.01341093      -0.00165021       0.02109058
Li       4.55467581       3.24262092       6.59416195       0.00195551       0.00044866      -0.01731495
Li       4.49077739       4.96041263       2.81680372       0.00925507      -0.00796450       0.01397172
Li       0.75264740       3.21833175       2.11578945       0.00426504      -0.01807910       0.00316673
Li       1.74175453       2.26845301       6.99844831      -0.00856975       0.03069656      -0.01753648
Li       2.68375025       3.18357611       4.39705105      -0.00130659      -0.01536730      -0.01031497
Li       0.78691864       4.86333444       5.87524406      -0.02302674       0.01914135       0.00538896
Ga       5.52943341       2.47667719       3.93249405      -0.02073454      -0.00036564      -0.00684009
Ga       5.48560876       0.70940881       0.24100406      -0.00323648       0.00181586      -0.00415215
Ga       2.46413397       4.89017435       0.61235893       0.00477673       0.01786101       0.00548840
Sn       3.55230893       2.43660138       1.74392579       0.02283324      -0.02528471      -0.01659165
Sn       3.63806049       0.67475351       5.47610907       0.00037761      -0.00125198       0.02364389
12
Lattice="4.218763909806295 0.004123240117353207 1.2002522435943515 1.4097441823535581 6.969777690990679 3.033648985042232 0.08015453541342359 -0.11110784801118043 7.729505876220951" Properties=species:S:1:pos:R:3:forces:R:3 structure_index=15 total_energy=-35.6299934387207 stress="0.024512222036719322 0.005966969765722752 0.004088250920176506 0.005966891068965197 0.0192175954580307 -0.022486085072159767 0.004088167566806078 -0.02248603291809559 0.0021125387866050005" pbc="T T T"
Li       2.80381260       3.34327894       8.41414405       0.00291027      -0.00366213      -0.00719817
Li       2.94216579       0.44591266       7.93925723       0.00391805      -0.01683785      -0.01373508
Li       1.96820650       2.84939805       3.34220266      -0.00865266       0.00397819       0.03176897
Li       3.47094119       6.88159305       6.05974013       0.00502452      -0.01319398      -0.01739161
Li       1.81987292       5.72927319       3.85306287      -0.00455909       0.01102987       0.01753086
Li       2.68864536       6.14084127       8.81091224      -0.00451012       0.03044543       0.01635765
Li       3.59322337       3.91528718       5.64020179       0.00565141      -0.00835383      -0.02033055
Ga       3.73827119       0.99769658       5.14036777       0.00130523      -0.00414526      -0.00664854
Sn       4.50604263       1.61023209       2.44192069      -0.00031450       0.02791958      -0.00097508
Sn       5.26838799       5.12748042       7.76272815      -0.00799979      -0.01061171       0.02512532
Sn       4.43467815       4.55013172      10.69350938      -0.00135970       0.00245422       0.00156402
Sn       1.19154255       2.09259951       6.07124995       0.00858635      -0.01902254      -0.02606780
4
Lattice="4.550759729421394 0.00036340626922876275 0.0003027350037672799 -0.0002126053151244692 4.549463845406257 -0.0008482360671351943 -0.00020497875115085538 0.0005550491424539568 4.345858411981943" Properties=species:S:1:pos:R:3:forces:R:3 structure_index=16 total_energy=-13.07404899597168 stress="0.06827376037836075 0.0005965615273453295 0.0003511182148940861 0.0005964100128039718 0.0639609843492508 -0.000983386649750173 0.0003511052636895329 -0.0009834661614149809 -0.05878889933228493" pbc="T T T"
Li       1.44299770       0.92201070       1.76132268      -0.00006409       0.00003941       0.00174547
Ga       3.71792271       3.19696634       1.75885645      -0.00028349       0.00007548       0.00740577
Sn       3.71806678       0.92259663       3.93529732      -0.00049349      -0.00012334      -0.00473693
Sn       1.44209704       3.19709997       3.93450797       0.00084107       0.00000845      -0.00441430
14
Lattice="6.911160998601963 0.024651088861189812 0.6163657027455209 -1.725966879652216 4.551987121431829 -0.016578363330317623 -0.020371667952919753 0.030688594137639726 7.608361371580508" Properties=species:S:1:pos:R:3:forces:R:3 structure_index=17 total_energy=-38.10981369018555 stress="0.003403085982427001 -0.009655872359871864 0.003048448357731104 -0.009655754081904888 0.018090642988681793 0.0016028914833441377 0.003048351500183344 0.0016028989339247346 0.015833130106329918" pbc="T T T"
Li      -0.52548820       3.45606425       5.96680554       0.01017071       0.03660039      -0.00349291
Li       1.13409235       1.58505619       7.15062216       0.00468163       0.01878169      -0.00513936
Li       3.02385690       2.24751752       1.90708661       0.00837899      -0.00153954       0.01069246
Li       4.71658837       0.28606373       3.08434742      -0.00523087       0.00528956      -0.00978497
Li       3.64720624       0.58930812       5.72369590      -0.00118706      -0.02712668       0.00606758
Li       3.56666255       3.18430037       6.84387222      -0.01015252      -0.00539621       0.00065820
Li       0.07518695       4.42021597       3.36064164      -0.00572537      -0.01285945       0.00360407
Li       0.10677671       1.88146997       2.19020694       0.00145329      -0.02333056       0.00922614
Li       5.34968836       3.73843618       1.60505011      -0.01975850      -0.00625956      -0.01210472
Ga       4.77612805       2.87890136       4.24103027       0.00067805       0.00259694       0.01895926
Ga       5.38149354       1.22382656       8.03080512      -0.03030680       0.00509550      -0.02125672
Ga       6.33854653       0.86468717       5.42997033       0.00273984       0.00761653       0.00482458
Sn       1.86529980       2.47464605       4.51909038       0.02415263      -0.03113541      -0.00741873
Sn       1.19887423       4.19960221       0.72659875       0.02010595       0.03166677       0.00516512
5
Lattice="3.6854899388913793 0.005894979538621776 1.5655561250944365 1.8421357209930869 4.831032361923465 0.7551897671366297 -0.0435122075870463 0.05806180097738855 5.204996078479138" Properties=species:S:1:pos:R:3:forces:R:3 structure_index=18 total_energy=-14.613211631774902 stress="0.023008253425359726 -0.0022601368837058544 0.006482355296611786 -0.00226001488044858 -0.01577284373342991 -0.034194715321063995 0.00648252060636878 -0.03419475629925728 -0.04477570578455925" pbc="T T T"