phonopy:
  version: "2.37.1"
  frequency_unit_conversion_factor: 15.633302
  symmetry_tolerance: 1.00000e-05

space_group:
  type: "P1"
  number: 1
  Hall_symbol: "P 1"

primitive_matrix:
- [  0.000000000000000, -1.000000000000000,  1.000000000000000 ]
- [  1.000000000000000,  0.000000000000000,  0.000000000000000 ]
- [ -1.000000000000000,  1.000000000000000,  0.000000000000000 ]

supercell_matrix:
- [   3,   0,   0 ]
- [   0,   3,   0 ]
- [   0,   0,   3 ]

primitive_cell:
  lattice:
  - [    -0.000152066069200,     2.683794851752387,    -3.795616433394867 ] # a
  - [    -2.324104369489577,     1.342848246207241,     3.795616433394867 ] # b
  - [     4.649300693135181,     0.000000000000000,     0.000000000000000 ] # c
  points:
  - symbol: Li # 1
    coordinates: [  0.375692168673063,  0.207656000195185,  0.796826850939427 ]
    mass: 6.940000
  - symbol: Li # 2
    coordinates: [  0.625625191444407,  0.707560943627691,  0.546875972740824 ]
    mass: 6.940000
  - symbol: Li # 3
    coordinates: [  0.125580258653157,  0.707191503846968,  0.046640828278417 ]
    mass: 6.940000
  - symbol: Sn # 4
    coordinates: [  0.875640093662532,  0.207394825368926,  0.296680605956830 ]
    mass: 118.710000
  reciprocal_lattice: # without 2pi
  - [     0.000000000000000,     0.248345824467711,    -0.087862080031379 ] # a*
  - [     0.000000000000000,     0.248345824467711,     0.175599736394993 ] # b*
  - [     0.215086109934022,     0.124151871186888,     0.087776373422835 ] # c*

unit_cell:
  lattice:
  - [     4.649300693135181,     0.000000000000000,     0.000000000000000 ] # a
  - [     2.325044257576403,     4.026643097959626,     0.000000000000000 ] # b
  - [     2.325196323645603,     1.342848246207240,     3.795616433394867 ] # c
  points:
  - symbol: Li # 1
    coordinates: [  0.589170850744242,  0.375692168673064,  0.831963831522122 ]
    mass: 6.940000
    reduced_to: 1
  - symbol: Li # 2
    coordinates: [  0.839315029113133,  0.625625191444408,  0.081935752183283 ]
    mass: 6.940000
    reduced_to: 2
  - symbol: Li # 3
    coordinates: [  0.339449324431449,  0.125580258653157,  0.581611245193811 ]
    mass: 6.940000
    reduced_to: 3
  - symbol: Sn # 4
    coordinates: [  0.089285780587904,  0.875640093662533,  0.331754731706393 ]
    mass: 118.710000
    reduced_to: 4

supercell:
  lattice:
  - [    13.947902079405541,     0.000000000000000,     0.000000000000000 ] # a
  - [     6.975132772729207,    12.079929293878878,     0.000000000000000 ] # b
  - [     6.975588970936810,     4.028544738621721,    11.386849300184601 ] # c
  points:
  - symbol: Li # 1
    coordinates: [  0.196390283581414,  0.125230722891021,  0.277321277174041 ]
    mass: 6.940000
    reduced_to: 1
  - symbol: Li # 2
    coordinates: [  0.529723616914747,  0.125230722891021,  0.277321277174041 ]
    mass: 6.940000
    reduced_to: 1
  - symbol: Li # 3
    coordinates: [  0.863056950248081,  0.125230722891021,  0.277321277174041 ]
    mass: 6.940000
    reduced_to: 1
  - symbol: Li # 4
    coordinates: [  0.196390283581414,  0.458564056224355,  0.277321277174041 ]
    mass: 6.940000
    reduced_to: 1
  - symbol: Li # 5
    coordinates: [  0.529723616914747,  0.458564056224355,  0.277321277174041 ]
    mass: 6.940000
    reduced_to: 1
  - symbol: Li # 6
    coordinates: [  0.863056950248081,  0.458564056224355,  0.277321277174041 ]
    mass: 6.940000
    reduced_to: 1
  - symbol: Li # 7
    coordinates: [  0.196390283581414,  0.791897389557688,  0.277321277174041 ]
    mass: 6.940000
    reduced_to: 1
  - symbol: Li # 8
    coordinates: [  0.529723616914747,  0.791897389557688,  0.277321277174041 ]
    mass: 6.940000
    reduced_to: 1
  - symbol: Li # 9
    coordinates: [  0.863056950248081,  0.791897389557688,  0.277321277174041 ]
    mass: 6.940000
    reduced_to: 1
  - symbol: Li # 10
    coordinates: [  0.196390283581414,  0.125230722891021,  0.610654610507374 ]
    mass: 6.940000
    reduced_to: 1
  - symbol: Li # 11
    coordinates: [  0.529723616914747,  0.125230722891021,  0.610654610507374 ]
    mass: 6.940000
    reduced_to: 1
  - symbol: Li # 12
    coordinates: [  0.863056950248081,  0.125230722891021,  0.610654610507374 ]
    mass: 6.940000
    reduced_to: 1
  - symbol: Li # 13
    coordinates: [  0.196390283581414,  0.458564056224355,  0.610654610507374 ]
    mass: 6.940000
    reduced_to: 1
  - symbol: Li # 14
    coordinates: [  0.529723616914747,  0.458564056224355,  0.610654610507374 ]
    mass: 6.940000
    reduced_to: 1
  - symbol: Li # 15
    coordinates: [  0.863056950248081,  0.458564056224355,  0.610654610507374 ]
    mass: 6.940000
    reduced_to: 1
  - symbol: Li # 16
    coordinates: [  0.196390283581414,  0.791897389557688,  0.610654610507374 ]
    mass: 6.940000
    reduced_to: 1
  - symbol: Li # 17
    coordinates: [  0.529723616914747,  0.791897389557688,  0.610654610507374 ]
    mass: 6.940000
    reduced_to: 1
  - symbol: Li # 18
    coordinates: [  0.863056950248081,  0.791897389557688,  0.610654610507374 ]
    mass: 6.940000
    reduced_to: 1
  - symbol: Li # 19
    coordinates: [  0.196390283581414,  0.125230722891021,  0.943987943840707 ]
    mass: 6.940000
    reduced_to: 1
  - symbol: Li # 20
    coordinates: [  0.529723616914747,  0.125230722891021,  0.943987943840707 ]
    mass: 6.940000
    reduced_to: 1
  - symbol: Li # 21
    coordinates: [  0.863056950248081,  0.125230722891021,  0.943987943840707 ]
    mass: 6.940000
    reduced_to: 1
  - symbol: Li # 22
    coordinates: [  0.196390283581414,  0.458564056224355,  0.943987943840707 ]
    mass: 6.940000
    reduced_to: 1
  - symbol: Li # 23
    coordinates: [  0.529723616914747,  0.458564056224355,  0.943987943840707 ]
    mass: 6.940000
    reduced_to: 1
  - symbol: Li # 24
    coordinates: [  0.863056950248081,  0.458564056224355,  0.943987943840707 ]
    mass: 6.940000
    reduced_to: 1
  - symbol: Li # 25
    coordinates: [  0.196390283581414,  0.791897389557688,  0.943987943840707 ]
    mass: 6.940000
    reduced_to: 1
  - symbol: Li # 26
    coordinates: [  0.529723616914747,  0.791897389557688,  0.943987943840707 ]
    mass: 6.940000
    reduced_to: 1
  - symbol: Li # 27
    coordinates: [  0.863056950248081,  0.791897389557688,  0.943987943840707 ]
    mass: 6.940000
    reduced_to: 1
  - symbol: Li # 28
    coordinates: [  0.279771676371044,  0.208541730481469,  0.027311917394428 ]
    mass: 6.940000
    reduced_to: 28
  - symbol: Li # 29
    coordinates: [  0.613105009704378,  0.208541730481469,  0.027311917394428 ]
    mass: 6.940000
    reduced_to: 28
  - symbol: Li # 30
    coordinates: [  0.946438343037711,  0.208541730481469,  0.027311917394428 ]
    mass: 6.940000
    reduced_to: 28
  - symbol: Li # 31
    coordinates: [  0.279771676371044,  0.541875063814802,  0.027311917394428 ]
    mass: 6.940000
    reduced_to: 28
  - symbol: Li # 32
    coordinates: [  0.613105009704378,  0.541875063814802,  0.027311917394428 ]
    mass: 6.940000
    reduced_to: 28
  - symbol: Li # 33
    coordinates: [  0.946438343037711,  0.541875063814802,  0.027311917394428 ]
    mass: 6.940000
    reduced_to: 28
  - symbol: Li # 34
    coordinates: [  0.279771676371044,  0.875208397148136,  0.027311917394428 ]
    mass: 6.940000
    reduced_to: 28
  - symbol: Li # 35
    coordinates: [  0.613105009704378,  0.875208397148136,  0.027311917394428 ]
    mass: 6.940000
    reduced_to: 28
  - symbol: Li # 36
    coordinates: [  0.946438343037711,  0.875208397148136,  0.027311917394428 ]
    mass: 6.940000
    reduced_to: 28
  - symbol: Li # 37
    coordinates: [  0.279771676371044,  0.208541730481469,  0.360645250727761 ]
    mass: 6.940000
    reduced_to: 28
  - symbol: Li # 38
    coordinates: [  0.613105009704378,  0.208541730481469,  0.360645250727761 ]
    mass: 6.940000
    reduced_to: 28
  - symbol: Li # 39
    coordinates: [  0.946438343037711,  0.208541730481469,  0.360645250727761 ]
    mass: 6.940000
    reduced_to: 28
  - symbol: Li # 40
    coordinates: [  0.279771676371044,  0.541875063814802,  0.360645250727761 ]
    mass: 6.940000
    reduced_to: 28
  - symbol: Li # 41
    coordinates: [  0.613105009704378,  0.541875063814802,  0.360645250727761 ]
    mass: 6.940000
    reduced_to: 28
  - symbol: Li # 42
    coordinates: [  0.946438343037711,  0.541875063814802,  0.360645250727761 ]
    mass: 6.940000
    reduced_to: 28
  - symbol: Li # 43
    coordinates: [  0.279771676371044,  0.875208397148136,  0.360645250727761 ]
    mass: 6.940000
    reduced_to: 28
  - symbol: Li # 44
    coordinates: [  0.613105009704378,  0.875208397148136,  0.360645250727761 ]
    mass: 6.940000
    reduced_to: 28
  - symbol: Li # 45
    coordinates: [  0.946438343037711,  0.875208397148136,  0.360645250727761 ]
    mass: 6.940000
    reduced_to: 28
  - symbol: Li # 46
    coordinates: [  0.279771676371044,  0.208541730481469,  0.693978584061094 ]
    mass: 6.940000
    reduced_to: 28
  - symbol: Li # 47
    coordinates: [  0.613105009704378,  0.208541730481469,  0.693978584061094 ]
    mass: 6.940000
    reduced_to: 28
  - symbol: Li # 48
    coordinates: [  0.946438343037711,  0.208541730481469,  0.693978584061094 ]
    mass: 6.940000
    reduced_to: 28
  - symbol: Li # 49
    coordinates: [  0.279771676371044,  0.541875063814802,  0.693978584061094 ]
    mass: 6.940000
    reduced_to: 28
  - symbol: Li # 50
    coordinates: [  0.613105009704378,  0.541875063814802,  0.693978584061094 ]
    mass: 6.940000
    reduced_to: 28
  - symbol: Li # 51
    coordinates: [  0.946438343037711,  0.541875063814802,  0.693978584061094 ]
    mass: 6.940000
    reduced_to: 28
  - symbol: Li # 52
    coordinates: [  0.279771676371044,  0.875208397148136,  0.693978584061094 ]
    mass: 6.940000
    reduced_to: 28
  - symbol: Li # 53
    coordinates: [  0.613105009704378,  0.875208397148136,  0.693978584061094 ]
    mass: 6.940000
    reduced_to: 28
  - symbol: Li # 54
    coordinates: [  0.946438343037711,  0.875208397148136,  0.693978584061094 ]
    mass: 6.940000
    reduced_to: 28
  - symbol: Li # 55
    coordinates: [  0.113149774810483,  0.041860086217719,  0.193870415064604 ]
    mass: 6.940000
    reduced_to: 55
  - symbol: Li # 56
    coordinates: [  0.446483108143816,  0.041860086217719,  0.193870415064604 ]
    mass: 6.940000
    reduced_to: 55
  - symbol: Li # 57
    coordinates: [  0.779816441477150,  0.041860086217719,  0.193870415064604 ]
    mass: 6.940000
    reduced_to: 55
  - symbol: Li # 58
    coordinates: [  0.113149774810483,  0.375193419551052,  0.193870415064604 ]
    mass: 6.940000
    reduced_to: 55
  - symbol: Li # 59
    coordinates: [  0.446483108143816,  0.375193419551052,  0.193870415064604 ]
    mass: 6.940000
    reduced_to: 55
  - symbol: Li # 60
    coordinates: [  0.779816441477150,  0.375193419551052,  0.193870415064604 ]
    mass: 6.940000
    reduced_to: 55
  - symbol: Li # 61
    coordinates: [  0.113149774810483,  0.708526752884386,  0.193870415064604 ]
    mass: 6.940000
    reduced_to: 55
  - symbol: Li # 62
    coordinates: [  0.446483108143816,  0.708526752884386,  0.193870415064604 ]
    mass: 6.940000
    reduced_to: 55
  - symbol: Li # 63
    coordinates: [  0.779816441477150,  0.708526752884386,  0.193870415064604 ]
    mass: 6.940000
    reduced_to: 55
  - symbol: Li # 64
    coordinates: [  0.113149774810483,  0.041860086217719,  0.527203748397937 ]
    mass: 6.940000
    reduced_to: 55
  - symbol: Li # 65
    coordinates: [  0.446483108143816,  0.041860086217719,  0.527203748397937 ]
    mass: 6.940000
    reduced_to: 55
  - symbol: Li # 66
    coordinates: [  0.779816441477150,  0.041860086217719,  0.527203748397937 ]
    mass: 6.940000
    reduced_to: 55
  - symbol: Li # 67
    coordinates: [  0.113149774810483,  0.375193419551052,  0.527203748397937 ]
    mass: 6.940000
    reduced_to: 55
  - symbol: Li # 68
    coordinates: [  0.446483108143816,  0.375193419551052,  0.527203748397937 ]
    mass: 6.940000
    reduced_to: 55
  - symbol: Li # 69
    coordinates: [  0.779816441477150,  0.375193419551052,  0.527203748397937 ]
    mass: 6.940000
    reduced_to: 55
  - symbol: Li # 70
    coordinates: [  0.113149774810483,  0.708526752884386,  0.527203748397937 ]
    mass: 6.940000
    reduced_to: 55
  - symbol: Li # 71
    coordinates: [  0.446483108143816,  0.708526752884386,  0.527203748397937 ]
    mass: 6.940000
    reduced_to: 55
  - symbol: Li # 72
    coordinates: [  0.779816441477150,  0.708526752884386,  0.527203748397937 ]
    mass: 6.940000
    reduced_to: 55
  - symbol: Li # 73
    coordinates: [  0.113149774810483,  0.041860086217719,  0.860537081731270 ]
    mass: 6.940000
    reduced_to: 55
  - symbol: Li # 74
    coordinates: [  0.446483108143816,  0.041860086217719,  0.860537081731270 ]
    mass: 6.940000
    reduced_to: 55
  - symbol: Li # 75
    coordinates: [  0.779816441477150,  0.041860086217719,  0.860537081731270 ]
    mass: 6.940000
    reduced_to: 55
  - symbol: Li # 76
    coordinates: [  0.113149774810483,  0.375193419551052,  0.860537081731270 ]
    mass: 6.940000
    reduced_to: 55
  - symbol: Li # 77
    coordinates: [  0.446483108143816,  0.375193419551052,  0.860537081731270 ]
    mass: 6.940000
    reduced_to: 55
  - symbol: Li # 78
    coordinates: [  0.779816441477150,  0.375193419551052,  0.860537081731270 ]
    mass: 6.940000
    reduced_to: 55
  - symbol: Li # 79
    coordinates: [  0.113149774810483,  0.708526752884386,  0.860537081731270 ]
    mass: 6.940000
    reduced_to: 55
  - symbol: Li # 80
    coordinates: [  0.446483108143816,  0.708526752884386,  0.860537081731270 ]
    mass: 6.940000
    reduced_to: 55
  - symbol: Li # 81
    coordinates: [  0.779816441477150,  0.708526752884386,  0.860537081731270 ]
    mass: 6.940000
    reduced_to: 55
  - symbol: Sn # 82
    coordinates: [  0.029761926862635,  0.291880031220844,  0.110584910568798 ]
    mass: 118.710000
    reduced_to: 82
  - symbol: Sn # 83
    coordinates: [  0.363095260195968,  0.291880031220844,  0.110584910568798 ]
    mass: 118.710000
    reduced_to: 82
  - symbol: Sn # 84
    coordinates: [  0.696428593529301,  0.291880031220844,  0.110584910568798 ]
    mass: 118.710000
    reduced_to: 82
  - symbol: Sn # 85
    coordinates: [  0.029761926862635,  0.625213364554178,  0.110584910568798 ]
    mass: 118.710000
    reduced_to: 82
  - symbol: Sn # 86
    coordinates: [  0.363095260195968,  0.625213364554178,  0.110584910568798 ]
    mass: 118.710000
    reduced_to: 82
  - symbol: Sn # 87
    coordinates: [  0.696428593529301,  0.625213364554178,  0.110584910568798 ]
    mass: 118.710000
    reduced_to: 82
  - symbol: Sn # 88
    coordinates: [  0.029761926862635,  0.958546697887511,  0.110584910568798 ]
    mass: 118.710000
    reduced_to: 82
  - symbol: Sn # 89
    coordinates: [  0.363095260195968,  0.958546697887511,  0.110584910568798 ]
    mass: 118.710000
    reduced_to: 82
  - symbol: Sn # 90
    coordinates: [  0.696428593529301,  0.958546697887511,  0.110584910568798 ]
    mass: 118.710000
    reduced_to: 82
  - symbol: Sn # 91
    coordinates: [  0.029761926862635,  0.291880031220844,  0.443918243902131 ]
    mass: 118.710000
    reduced_to: 82
  - symbol: Sn # 92
    coordinates: [  0.363095260195968,  0.291880031220844,  0.443918243902131 ]
    mass: 118.710000
    reduced_to: 82
  - symbol: Sn # 93
    coordinates: [  0.696428593529301,  0.291880031220844,  0.443918243902131 ]
    mass: 118.710000
    reduced_to: 82
  - symbol: Sn # 94
    coordinates: [  0.029761926862635,  0.625213364554178,  0.443918243902131 ]
    mass: 118.710000
    reduced_to: 82
  - symbol: Sn # 95
    coordinates: [  0.363095260195968,  0.625213364554178,  0.443918243902131 ]
    mass: 118.710000
    reduced_to: 82
  - symbol: Sn # 96
    coordinates: [  0.696428593529301,  0.625213364554178,  0.443918243902131 ]
    mass: 118.710000
    reduced_to: 82
  - symbol: Sn # 97
    coordinates: [  0.029761926862635,  0.958546697887511,  0.443918243902131 ]
    mass: 118.710000
    reduced_to: 82
  - symbol: Sn # 98
    coordinates: [  0.363095260195968,  0.958546697887511,  0.443918243902131 ]
    mass: 118.710000
    reduced_to: 82
  - symbol: Sn # 99
    coordinates: [  0.696428593529301,  0.958546697887511,  0.443918243902131 ]
    mass: 118.710000
    reduced_to: 82
  - symbol: Sn # 100
    coordinates: [  0.029761926862635,  0.291880031220844,  0.777251577235464 ]
    mass: 118.710000
    reduced_to: 82
  - symbol: Sn # 101
    coordinates: [  0.363095260195968,  0.291880031220844,  0.777251577235464 ]
    mass: 118.710000
    reduced_to: 82
  - symbol: Sn # 102
    coordinates: [  0.696428593529301,  0.291880031220844,  0.777251577235464 ]
    mass: 118.710000
    reduced_to: 82
  - symbol: Sn # 103
    coordinates: [  0.029761926862635,  0.625213364554178,  0.777251577235464 ]
    mass: 118.710000
    reduced_to: 82
  - symbol: Sn # 104
    coordinates: [  0.363095260195968,  0.625213364554178,  0.777251577235464 ]
    mass: 118.710000
    reduced_to: 82
  - symbol: Sn # 105
    coordinates: [  0.696428593529301,  0.625213364554178,  0.777251577235464 ]
    mass: 118.710000
    reduced_to: 82
  - symbol: Sn # 106
    coordinates: [  0.029761926862635,  0.958546697887511,  0.777251577235464 ]
    mass: 118.710000
    reduced_to: 82
  - symbol: Sn # 107
    coordinates: [  0.363095260195968,  0.958546697887511,  0.777251577235464 ]
    mass: 118.710000
    reduced_to: 82
  - symbol: Sn # 108
    coordinates: [  0.696428593529301,  0.958546697887511,  0.777251577235464 ]
    mass: 118.710000
    reduced_to: 82

displacements:
- atom:    1
  displacement:
    [   0.0100000000000000,  0.0000000000000000,  0.0000000000000000 ]
  forces:
  - [  -0.0141464211046696, -0.0010197956580669, -0.0012599008623511 ]
  - [   0.0002722230274230, -0.0010211452608928, -0.0012649541022256 ]
  - [   0.0002842885442078, -0.0010187122970819, -0.0012629107804969 ]
  - [   0.0003862669109367, -0.0010817316360772, -0.0011915764771402 ]
  - [   0.0004907199763693, -0.0010180849349126, -0.0012623127549887 ]
  - [   0.0003887981874868, -0.0009593013674021, -0.0013304941821843 ]
  - [   0.0003874052199535, -0.0010811178945005, -0.0011949545005336 ]
  - [   0.0003866359184030, -0.0009565710788593, -0.0013325571781024 ]
  - [   0.0004890587879345, -0.0010197418741882, -0.0012627450050786 ]
  - [   0.0003925384953618, -0.0009822185384110, -0.0013426591176540 ]
  - [   0.0004932936280966, -0.0010260335402563, -0.0012625396484509 ]
  - [   0.0003882111050189, -0.0010703441221267, -0.0011812634766102 ]
  - [   0.0004782467731275, -0.0010143599938601, -0.0012516070855781 ]
  - [   0.0004746815830003, -0.0010346544440836, -0.0012687287526205 ]
  - [   0.0004271038924344, -0.0010230387561023, -0.0012612921418622 ]
  - [   0.0003128323587589, -0.0010287794284523, -0.0012661147629842 ]
  - [   0.0001096468040487, -0.0008432354079559, -0.0015200652414933 ]
  - [   0.0001161140753538, -0.0012052461970598, -0.0010084485402331 ]
  - [   0.0003833642695099, -0.0009725241689011, -0.0013421159237623 ]
  - [   0.0003822494181804, -0.0010607746662572, -0.0011789826676250 ]
  - [   0.0004877227474935, -0.0010205538710579, -0.0012651782017201 ]
  - [   0.0003101160982624, -0.0010149858426303, -0.0012575342552736 ]
  - [   0.0001056992914528, -0.0011991646606475, -0.0010037071770057 ]
  - [   0.0001088650315069, -0.0008398889331147, -0.0015183276263997 ]
  - [   0.0004719084827229, -0.0010066452668980, -0.0012535311980173 ]
  - [   0.0004197079688311, -0.0010195393115282, -0.0012659539934248 ]
  - [   0.0004695071838796, -0.0010281690629199, -0.0012697381898761 ]
  - [  -0.0015082124155015, -0.0000994776637526, -0.0010687914909795 ]
  - [  -0.0012124886270612,  0.0000472086685477, -0.0011322982609272 ]
  - [  -0.0012118443846703, -0.0002483037242200, -0.0010241121053696 ]
  - [  -0.0010305746691301, -0.0003545876825228, -0.0011052229674533 ]
  - [  -0.0011697337031364, -0.0001062468363671, -0.0010767646599561 ]
  - [  -0.0010277086403221,  0.0001305862388108, -0.0010531755397096 ]
  - [  -0.0010348053183407, -0.0000623990054009, -0.0010464354418218 ]
  - [  -0.0010392118711025, -0.0001391010300722, -0.0011036619544029 ]
  - [  -0.0012368361931294, -0.0000986760132946, -0.0010771394008771 ]
  - [   0.0025079888291657,  0.0022171665914357,  0.0005578404525295 ]
  - [  -0.0011271184775978, -0.0001044257078320, -0.0010759762953967 ]
  - [   0.0024640760384500, -0.0023816670291126, -0.0026897536590695 ]
  - [  -0.0011707097291946, -0.0000835934188217, -0.0010769246146083 ]
  - [  -0.0011709779500961, -0.0001253763912246, -0.0010800603777170 ]
  - [  -0.0012087826617062, -0.0001038775080815, -0.0010774964466691 ]
  - [  -0.0014968276955187, -0.0001007989048958, -0.0010849687969312 ]
  - [  -0.0012027386110276, -0.0001042833318934, -0.0009148733224720 ]
  - [  -0.0012040996225551, -0.0001050845021382, -0.0012389275943860 ]
  - [  -0.0011587572516873, -0.0001020550844260, -0.0010606873547658 ]
  - [  -0.0011559675913304, -0.0001150341122411, -0.0010946349939331 ]
  - [  -0.0012010603677481, -0.0001093530445360, -0.0010812892578542 ]
  - [  -0.0011784279486164, -0.0001076472690329, -0.0010785876074806 ]
  - [  -0.0011671469546854, -0.0001070356229320, -0.0010787205537781 ]
  - [  -0.0011712277773768, -0.0001103512477130, -0.0010833197738975 ]
  - [  -0.0010237242095172, -0.0002108732005581, -0.0013051051646471 ]
  - [  -0.0011700980830938, -0.0001073455205187, -0.0010802913457155 ]
  - [  -0.0010263335425407, -0.0000035463599488, -0.0008641649037600 ]
  - [   0.0028076693415642,  0.0037345588207245,  0.0034795445390046 ]
  - [   0.0028614741750062, -0.0008624087786302,  0.0002310120034963 ]
  - [  -0.0007733269594610,  0.0014619413996115,  0.0018721870146692 ]
  - [  -0.0011436648201197,  0.0014562371652573,  0.0018751069437712 ]
  - [  -0.0008505563600920,  0.0014626896008849,  0.0017119522672147 ]
  - [  -0.0008446474676020,  0.0014586776960641,  0.0020312750712037 ]
  - [  -0.0008041309192777,  0.0014767190441489,  0.0018730220617726 ]
  - [  -0.0008447740110569,  0.0014577286783606,  0.0018735060002655 ]
  - [  -0.0008070530602708,  0.0014374692691490,  0.0018687006086111 ]
  - [  -0.0011588667985052,  0.0014696512371302,  0.0018640644848347 ]
  - [  -0.0008649544324726,  0.0013099161442369,  0.0019212486222386 ]
  - [  -0.0008593983948231,  0.0016140220686793,  0.0018180254846811 ]
  - [  -0.0006877429550514,  0.0015094738919288,  0.0019011814147234 ]
  - [  -0.0008815779001452,  0.0014618575805798,  0.0018699821084738 ]
  - [  -0.0006874592509121,  0.0014211456291378,  0.0018402040004730 ]
  - [  -0.0006724621634930,  0.0012259053764865,  0.0018463246524334 ]
  - [  -0.0006734910421073,  0.0017122982535511,  0.0018946174532175 ]
  - [  -0.0008131933864206,  0.0014635240659118,  0.0018711965531111 ]
  - [  -0.0008158554555848,  0.0014709040988237,  0.0018893769010901 ]
  - [  -0.0008540172129869,  0.0014641177840531,  0.0018709870055318 ]
  - [  -0.0008140476420522,  0.0014555766247213,  0.0018533393740654 ]
  - [  -0.0006758520612493,  0.0013612557668239,  0.0016564512625337 ]
  - [  -0.0006753099150956,  0.0015664194943383,  0.0020946022123098 ]
  - [  -0.0008162487065420,  0.0014641607413068,  0.0018720328807831 ]
  - [  -0.0008219141745940,  0.0014623925089836,  0.0018685171380639 ]
  - [  -0.0008074224460870,  0.0014610141515732,  0.0018690302968025 ]
  - [  -0.0008079431136139,  0.0014645271003246,  0.0018727127462626 ]
  - [   0.0017236093990505,  0.0000298563390970, -0.0000592060387135 ]
  - [   0.0017828902928159, -0.0006764680147171,  0.0009463876485825 ]
  - [   0.0017540941480547, -0.0003345198929310,  0.0004660412669182 ]
  - [   0.0013701713178307, -0.0003316113725305,  0.0004775840789080 ]
  - [   0.0015765421558172, -0.0002332096919417,  0.0004698019474745 ]
  - [   0.0015741430688649, -0.0004367474466562,  0.0004658121615648 ]
  - [   0.0014284728094935, -0.0003099478781223,  0.0004921481013298 ]
  - [   0.0023581692948937, -0.0003370931372046,  0.0004676301032305 ]
  - [   0.0014356859028339, -0.0003803828731179,  0.0004396103322506 ]
  - [   0.0023831089492887, -0.0003382805734873,  0.0004795640707016 ]
  - [   0.0014424815308303, -0.0002997443079948,  0.0004924517124891 ]
  - [   0.0014368041884154, -0.0003649536520243,  0.0004461761564016 ]
  - [   0.0015737554058433, -0.0002288520336151,  0.0004711411893368 ]
  - [   0.0013660490512848, -0.0003332495689392,  0.0004681665450335 ]
  - [   0.0015763891860843, -0.0004306724295020,  0.0004682410508394 ]
  - [   0.0017183404415846, -0.0007001720368862,  0.0009967572987080 ]
  - [   0.0017765378579497,  0.0000043939799070, -0.0000017601996660 ]
  - [   0.0017486847937107, -0.0003343811258674,  0.0004689022898674 ]
  - [   0.0016116546466947, -0.0003054067492485,  0.0005633514374495 ]
  - [   0.0013981051743031, -0.0003393506631255,  0.0004661399871111 ]
  - [   0.0016077635809779, -0.0003716917708516,  0.0003755521029234 ]
  - [   0.0015521757304668, -0.0003371816128492,  0.0004715323448181 ]
  - [   0.0015500960871577, -0.0003414452075958,  0.0004700385034084 ]
  - [   0.0015346864238381, -0.0003401748836040,  0.0004684738814831 ]
  - [   0.0013797339051962, -0.0003354046493769,  0.0004723146557808 ]
  - [   0.0015940917655826, -0.0003022570163012,  0.0005661211907864 ]
  - [   0.0015952549874783, -0.0003702975809574,  0.0003765299916267 ]
- atom:    1
  displacement:
    [  -0.0100000000000000,  0.0000000000000000,  0.0000000000000000 ]
  forces:
  - [   0.0150754144415259, -0.0010318491840735, -0.0012689994182438 ]
  - [   0.0006378910038620, -0.0010218756506220, -0.0012658262858167 ]
  - [   0.0006497227586806, -0.0010191873880103, -0.0012621523346752 ]
  - [   0.0005358384223655, -0.0009586600936018, -0.0013302426086739 ]
  - [   0.0004317123675719, -0.0010178789962083, -0.0012621610658243 ]
  - [   0.0005387660348788, -0.0010833058040589, -0.0011925201397389 ]
  - [   0.0005369019927457, -0.0009559876052663, -0.0013316061813384 ]
  - [   0.0005366842378862, -0.0010813998524100, -0.0011952173663303 ]
  - [   0.0004301737062633, -0.0010196983348578, -0.0012627728283405 ]
  - [   0.0005421719979495, -0.0010712178191170, -0.0011803491506726 ]
  - [   0.0004339679144323, -0.0010260549606755, -0.0012626482639462 ]
  - [   0.0005383733077906, -0.0009822554420680, -0.0013448767131194 ]
  - [   0.0004564240225591, -0.0010360259329900, -0.0012670563301072 ]
  - [   0.0004532221646514, -0.0010134293697774, -0.0012537277070805 ]
  - [   0.0005046937149018, -0.0010228727478534, -0.0012611731654033 ]
  - [   0.0006153383874334, -0.0010287188924849, -0.0012665833346546 ]
  - [   0.0008128451299854, -0.0012042325688526, -0.0010091068688780 ]
  - [   0.0008200202137232, -0.0008439152734354, -0.0015202995855361 ]
  - [   0.0005324176745489, -0.0010603362461552, -0.0011780937202275 ]
  - [   0.0005325514357537, -0.0009727565338835, -0.0013429693644866 ]
  - [   0.0004287273914088, -0.0010206473525614, -0.0012651571305469 ]
  - [   0.0006128087406978, -0.0010151166934520, -0.0012570957187563 ]
  - [   0.0008096432429738, -0.0008370982250199, -0.0015144508797675 ]
  - [   0.0008129795896821, -0.0012013546656817, -0.0010074728634208 ]
  - [   0.0004505898104981, -0.0010282107396051, -0.0012686360860243 ]
  - [   0.0004972836468369, -0.0010191708570346, -0.0012657712213695 ]
  - [   0.0004477449692786, -0.0010066870599985, -0.0012545031495392 ]
  - [  -0.0008470591856167, -0.0000994243746391, -0.0010692207142711 ]
  - [  -0.0011406301055104, -0.0002546210307628, -0.0010266602039337 ]
  - [  -0.0011389838764444,  0.0000537018349860, -0.0011292323470116 ]
  - [  -0.0013202984118834,  0.0001307109632762, -0.0010563285322860 ]
  - [  -0.0011756198946387, -0.0001062171795638, -0.0010767049388960 ]
  - [  -0.0013173380866647, -0.0003534337447491, -0.0011019036173820 ]
  - [  -0.0013017714954913, -0.0001423585053999, -0.0011028066510335 ]
  - [  -0.0013058851473033, -0.0000595212040935, -0.0010473254369572 ]
  - [  -0.0011110163759440, -0.0000987521489151, -0.0010770636145025 ]
  - [  -0.0047960146330297, -0.0023792339488864, -0.0026906854473054 ]
  - [  -0.0012045630719513, -0.0001044884556904, -0.0010760428849608 ]
  - [  -0.0048557524569333,  0.0022293576039374,  0.0005687659140676 ]
  - [  -0.0011803950183094, -0.0001226126914844, -0.0010790377855301 ]
  - [  -0.0011807046830654, -0.0000863228924572, -0.0010780505836010 ]
  - [  -0.0011394466273487, -0.0001040456118062, -0.0010775150731206 ]
  - [  -0.0008355486206710, -0.0001003468059935, -0.0010854429565370 ]
  - [  -0.0011297331657261, -0.0001060698414221, -0.0012353974161670 ]
  - [  -0.0011299367761239, -0.0001027060206980, -0.0009182131616399 ]
  - [  -0.0011684619821608, -0.0001168511225842, -0.0010968857677653 ]
  - [  -0.0011655805865303, -0.0001001964556053, -0.0010585665004328 ]
  - [  -0.0011316935997456, -0.0001093701575883, -0.0010814721463248 ]
  - [  -0.0011625824263319, -0.0001076873159036, -0.0010784449987113 ]
  - [  -0.0011750580742955, -0.0001083597308025, -0.0010794992558658 ]
  - [  -0.0011789610143751, -0.0001090615987778, -0.0010823787888512 ]
  - [  -0.0013131403829902, -0.0000033711548895, -0.0008629746735096 ]
  - [  -0.0011758294422179, -0.0001072252634913, -0.0010803211480379 ]
  - [  -0.0013158409856260, -0.0002108229091391, -0.0013057049363852 ]
  - [  -0.0044815326109529, -0.0008582094451413,  0.0002304731169716 ]
  - [  -0.0044289818033576,  0.0037298845127225,  0.0034795308019966 ]
  - [  -0.0008510223706253,  0.0014619724825025,  0.0018720388179645 ]
  - [  -0.0004819922614843,  0.0014556816313416,  0.0018757585203275 ]
  - [  -0.0007782896282151,  0.0014646430499852,  0.0020315879955888 ]
  - [  -0.0007714943494648,  0.0014564273878932,  0.0017111308407038 ]
  - [  -0.0008139308774844,  0.0014376365579665,  0.0018710362492129 ]
  - [  -0.0007757323328406,  0.0014576313551515,  0.0018732289317995 ]
  - [  -0.0008168808417395,  0.0014766539679840,  0.0018705968977883 ]
  - [  -0.0004925924586132,  0.0014701759209856,  0.0018628248944879 ]