# Thermal properties / unit cell (natom)

unit:
  temperature:   K
  free_energy:   kJ/mol
  entropy:       J/K/mol
  heat_capacity: J/K/mol

natom: 1    
cutoff_frequency: 0.00000
num_modes: 192000
num_integrated_modes: 191473

zero_point_energy:       3.6683337

thermal_properties:
- temperature:         0.0000000
  free_energy:         3.6683337
  entropy:             0.0000000
  heat_capacity:       0.0000000
  energy:              3.6683337

- temperature:        10.0000000
  free_energy:         3.6680870
  entropy:             0.0671811
  heat_capacity:       0.1275479
  energy:              3.6687588

- temperature:        20.0000000
  free_energy:         3.6665314
  entropy:             0.2709380
  heat_capacity:       0.5796870
  energy:              3.6719501

- temperature:        30.0000000
  free_energy:         3.6620313
  entropy:             0.6648116
  heat_capacity:       1.5099674
  energy:              3.6819757

- temperature:        40.0000000
  free_energy:         3.6524930
  entropy:             1.2797250
  heat_capacity:       2.8957775
  energy:              3.7036820

- temperature:        50.0000000
  free_energy:         3.6357397
  entropy:             2.1030135
  heat_capacity:       4.5813690
  energy:              3.7408904

- temperature:        60.0000000
  free_energy:         3.6098590
  entropy:             3.0982137
  heat_capacity:       6.4009227
  energy:              3.7957519

- temperature:        70.0000000
  free_energy:         3.5733461
  entropy:             4.2223166
  heat_capacity:       8.2217764
  energy:              3.8689082

- temperature:        80.0000000
  free_energy:         3.5251195
  entropy:             5.4346074
  heat_capacity:       9.9541599
  energy:              3.9598881

- temperature:        90.0000000
  free_energy:         3.4644760
  entropy:             6.7005409
  heat_capacity:      11.5474820
  energy:              4.0675246

- temperature:       100.0000000
  free_energy:         3.3910217
  entropy:             7.9927999
  heat_capacity:      12.9806183
  energy:              4.1903017

- temperature:       110.0000000
  free_energy:         3.3046013
  entropy:             9.2908540
  heat_capacity:      14.2515693
  energy:              4.3265952

- temperature:       120.0000000
  free_energy:         3.2052352
  entropy:            10.5798853
  heat_capacity:      15.3691910
  energy:              4.4748214

- temperature:       130.0000000
  free_energy:         3.0930684
  entropy:            11.8495866
  heat_capacity:      16.3475463
  energy:              4.6335146

- temperature:       140.0000000
  free_energy:         2.9683311
  entropy:            13.0930694
  heat_capacity:      17.2024391
  energy:              4.8013608

- temperature:       150.0000000
  free_energy:         2.8313091
  entropy:            14.3059660
  heat_capacity:      17.9494794
  energy:              4.9772040

- temperature:       160.0000000
  free_energy:         2.6823224
  entropy:            15.4857304
  heat_capacity:      18.6031159
  energy:              5.1600392

- temperature:       170.0000000
  free_energy:         2.5217092
  entropy:            16.6311113
  heat_capacity:      19.1762393
  energy:              5.3489982

- temperature:       180.0000000
  free_energy:         2.3498160
  entropy:            17.7417631
  heat_capacity:      19.6801014
  energy:              5.5433333

- temperature:       190.0000000
  free_energy:         2.1669889
  entropy:            18.8179628
  heat_capacity:      20.1243947
  energy:              5.7424018

- temperature:       200.0000000
  free_energy:         1.9735693
  entropy:            19.8604057
  heat_capacity:      20.5174040
  energy:              5.9456504

- temperature:       210.0000000
  free_energy:         1.7698901
  entropy:            20.8700594
  heat_capacity:      20.8661811
  energy:              6.1526026

- temperature:       220.0000000
  free_energy:         1.5562736
  entropy:            21.8480594
  heat_capacity:      21.1767171
  energy:              6.3628467

- temperature:       230.0000000
  free_energy:         1.3330303
  entropy:            22.7956355
  heat_capacity:      21.4541011
  energy:              6.5760265

- temperature:       240.0000000
  free_energy:         1.1004581
  entropy:            23.7140609
  heat_capacity:      21.7026597
  energy:              6.7918327

- temperature:       250.0000000
  free_energy:         0.8588420
  entropy:            24.6046158
  heat_capacity:      21.9260774
  energy:              7.0099959

- temperature:       260.0000000
  free_energy:         0.6084544
  entropy:            25.4685635
  heat_capacity:      22.1274985
  energy:              7.2302809

- temperature:       270.0000000
  free_energy:         0.3495553
  entropy:            26.3071344
  heat_capacity:      22.3096136
  energy:              7.4524816

- temperature:       280.0000000
  free_energy:         0.0823924
  entropy:            27.1215151
  heat_capacity:      22.4747309
  energy:              7.6764166

- temperature:       290.0000000
  free_energy:        -0.1927982
  entropy:            27.9128426
  heat_capacity:      22.6248369
  energy:              7.9019262

- temperature:       300.0000000
  free_energy:        -0.4757913
  entropy:            28.6822010
  heat_capacity:      22.7616457
  energy:              8.1288690

- temperature:       310.0000000
  free_energy:        -0.7663724
  entropy:            29.4306198
  heat_capacity:      22.8866413
  energy:              8.3571198

- temperature:       320.0000000
  free_energy:        -1.0643371
  entropy:            30.1590747
  heat_capacity:      23.0011124
  energy:              8.5865668

- temperature:       330.0000000
  free_energy:        -1.3694904
  entropy:            30.8684882
  heat_capacity:      23.1061811
  energy:              8.8171107

- temperature:       340.0000000
  free_energy:        -1.6816463
  entropy:            31.5597314
  heat_capacity:      23.2028275
  energy:              9.0486624

- temperature:       350.0000000
  free_energy:        -2.0006272
  entropy:            32.2336264
  heat_capacity:      23.2919103
  energy:              9.2811420

- temperature:       360.0000000
  free_energy:        -2.3262636
  entropy:            32.8909486
  heat_capacity:      23.3741837
  energy:              9.5144779

- temperature:       370.0000000
  free_energy:        -2.6583934
  entropy:            33.5324287
  heat_capacity:      23.4503121
  energy:              9.7486052

- temperature:       380.0000000
  free_energy:        -2.9968617
  entropy:            34.1587560
  heat_capacity:      23.5208822
  energy:              9.9834656

- temperature:       390.0000000
  free_energy:        -3.3415202
  entropy:            34.7705801
  heat_capacity:      23.5864137
  energy:             10.2190061

- temperature:       400.0000000
  free_energy:        -3.6922270
  entropy:            35.3685140
  heat_capacity:      23.6473678
  energy:             10.4551786

- temperature:       410.0000000
  free_energy:        -4.0488461
  entropy:            35.9531357
  heat_capacity:      23.7041551
  energy:             10.6919395

- temperature:       420.0000000
  free_energy:        -4.4112471
  entropy:            36.5249909
  heat_capacity:      23.7571418
  energy:             10.9292491

- temperature:       430.0000000
  free_energy:        -4.7793051
  entropy:            37.0845951
  heat_capacity:      23.8066551
  energy:             11.1670708

- temperature:       440.0000000
  free_energy:        -5.1528998
  entropy:            37.6324350
  heat_capacity:      23.8529885
  energy:             11.4053716

- temperature:       450.0000000
  free_energy:        -5.5319161
  entropy:            38.1689710
  heat_capacity:      23.8964053
  energy:             11.6441209

- temperature:       460.0000000
  free_energy:        -5.9162430
  entropy:            38.6946386
  heat_capacity:      23.9371426
  energy:             11.8832907

- temperature:       470.0000000
  free_energy:        -6.3057740
  entropy:            39.2098500
  heat_capacity:      23.9754140
  energy:             12.1228555

- temperature:       480.0000000
  free_energy:        -6.7004065
  entropy:            39.7149957
  heat_capacity:      24.0114126
  energy:             12.3627914

- temperature:       490.0000000
  free_energy:        -7.1000416
  entropy:            40.2104456
  heat_capacity:      24.0453131
  energy:             12.6030768

- temperature:       500.0000000
  free_energy:        -7.5045842
  entropy:            40.6965510
  heat_capacity:      24.0772738
  energy:             12.8436912

- temperature:       510.0000000
  free_energy:        -7.9139426
  entropy:            41.1736448
  heat_capacity:      24.1074387
  energy:             13.0846162

- temperature:       520.0000000
  free_energy:        -8.3280282
  entropy:            41.6420435
  heat_capacity:      24.1359386
  energy:             13.3258345

- temperature:       530.0000000
  free_energy:        -8.7467555
  entropy:            42.1020478
  heat_capacity:      24.1628929
  energy:             13.5673299

- temperature:       540.0000000
  free_energy:        -9.1700421
  entropy:            42.5539438
  heat_capacity:      24.1884104
  energy:             13.8090875

- temperature:       550.0000000
  free_energy:        -9.5978082
  entropy:            42.9980034
  heat_capacity:      24.2125907
  energy:             14.0510936

- temperature:       560.0000000
  free_energy:       -10.0299769
  entropy:            43.4344859
  heat_capacity:      24.2355249
  energy:             14.2933352

- temperature:       570.0000000
  free_energy:       -10.4664735
  entropy:            43.8636382
  heat_capacity:      24.2572966
  energy:             14.5358002

- temperature:       580.0000000
  free_energy:       -10.9072260
  entropy:            44.2856957
  heat_capacity:      24.2779824
  energy:             14.7784775

- temperature:       590.0000000
  free_energy:       -11.3521645
  entropy:            44.7008831
  heat_capacity:      24.2976529
  energy:             15.0213565

- temperature:       600.0000000
  free_energy:       -11.8012215
  entropy:            45.1094148
  heat_capacity:      24.3163732
  energy:             15.2644274

- temperature:       610.0000000
  free_energy:       -12.2543313
  entropy:            45.5114956
  heat_capacity:      24.3342029
  energy:             15.5076810

- temperature:       620.0000000
  free_energy:       -12.7114306
  entropy:            45.9073213
  heat_capacity:      24.3511974
  energy:             15.7511087

- temperature:       630.0000000
  free_energy:       -13.1724575
  entropy:            46.2970792
  heat_capacity:      24.3674078
  energy:             15.9947023

- temperature:       640.0000000
  free_energy:       -13.6373525
  entropy:            46.6809483
  heat_capacity:      24.3828812
  energy:             16.2384544

- temperature:       650.0000000
  free_energy:       -14.1060574
  entropy:            47.0591002
  heat_capacity:      24.3976615
  energy:             16.4823577

- temperature:       660.0000000
  free_energy:       -14.5785160
  entropy:            47.4316991
  heat_capacity:      24.4117891
  energy:             16.7264054

- temperature:       670.0000000
  free_energy:       -15.0546734
  entropy:            47.7989027
  heat_capacity:      24.4253019
  energy:             16.9705914

- temperature:       680.0000000
  free_energy:       -15.5344766
  entropy:            48.1608619
  heat_capacity:      24.4382347
  energy:             17.2149095

- temperature:       690.0000000
  free_energy:       -16.0178737
  entropy:            48.5177217
  heat_capacity:      24.4506201
  energy:             17.4593543

- temperature:       700.0000000
  free_energy:       -16.5048145
  entropy:            48.8696210
  heat_capacity:      24.4624885
  energy:             17.7039202

- temperature:       710.0000000
  free_energy:       -16.9952500
  entropy:            49.2166935
  heat_capacity:      24.4738680
  energy:             17.9486024

- temperature:       720.0000000
  free_energy:       -17.4891327
  entropy:            49.5590677
  heat_capacity:      24.4847851
  energy:             18.1933960

- temperature:       730.0000000
  free_energy:       -17.9864161
  entropy:            49.8968668
  heat_capacity:      24.4952644
  energy:             18.4382966

- temperature:       740.0000000
  free_energy:       -18.4870552
  entropy:            50.2302096
  heat_capacity:      24.5053288
  energy:             18.6832999

- temperature:       750.0000000
  free_energy:       -18.9910058
  entropy:            50.5592103
  heat_capacity:      24.5149999
  energy:             18.9284019

- temperature:       760.0000000
  free_energy:       -19.4982253
  entropy:            50.8839789
  heat_capacity:      24.5242979
  energy:             19.1735987

- temperature:       770.0000000
  free_energy:       -20.0086717
  entropy:            51.2046212
  heat_capacity:      24.5332416
  energy:             19.4188867

- temperature:       780.0000000
  free_energy:       -20.5223043
  entropy:            51.5212393
  heat_capacity:      24.5418487
  energy:             19.6642624

- temperature:       790.0000000
  free_energy:       -21.0390834
  entropy:            51.8339316
  heat_capacity:      24.5501358
  energy:             19.9097226

- temperature:       800.0000000
  free_energy:       -21.5589701
  entropy:            52.1427928
  heat_capacity:      24.5581186
  energy:             20.1552641

- temperature:       810.0000000
  free_energy:       -22.0819268
  entropy:            52.4479145
  heat_capacity:      24.5658117
  energy:             20.4008840

- temperature:       820.0000000
  free_energy:       -22.6079163
  entropy:            52.7493850
  heat_capacity:      24.5732289
  energy:             20.6465794

- temperature:       830.0000000
  free_energy:       -23.1369026
  entropy:            53.0472895
  heat_capacity:      24.5803832
  energy:             20.8923477

- temperature:       840.0000000
  free_energy:       -23.6688504
  entropy:            53.3417103
  heat_capacity:      24.5872868
  energy:             21.1381863

- temperature:       850.0000000
  free_energy:       -24.2037254
  entropy:            53.6327271
  heat_capacity:      24.5939514
  energy:             21.3840926

- temperature:       860.0000000
  free_energy:       -24.7414939
  entropy:            53.9204168
  heat_capacity:      24.6003877
  energy:             21.6300645

- temperature:       870.0000000
  free_energy:       -25.2821229
  entropy:            54.2048535
  heat_capacity:      24.6066060
  energy:             21.8760997

- temperature:       880.0000000
  free_energy:       -25.8255804
  entropy:            54.4861094
  heat_capacity:      24.6126161
  energy:             22.1221959

- temperature:       890.0000000
  free_energy:       -26.3718347
  entropy:            54.7642540
  heat_capacity:      24.6184271
  energy:             22.3683513

- temperature:       900.0000000
  free_energy:       -26.9208553
  entropy:            55.0393546
  heat_capacity:      24.6240477
  energy:             22.6145639

- temperature:       910.0000000
  free_energy:       -27.4726119
  entropy:            55.3114765
  heat_capacity:      24.6294861
  energy:             22.8608317

- temperature:       920.0000000
  free_energy:       -28.0270751
  entropy:            55.5806827
  heat_capacity:      24.6347500
  energy:             23.1071530

- temperature:       930.0000000
  free_energy:       -28.5842160
  entropy:            55.8470346
  heat_capacity:      24.6398468
  energy:             23.3535261

- temperature:       940.0000000
  free_energy:       -29.1440065
  entropy:            56.1105914
  heat_capacity:      24.6447836
  energy:             23.5999494

- temperature:       950.0000000
  free_energy:       -29.7064187
  entropy:            56.3714105
  heat_capacity:      24.6495668
  energy:             23.8464213

- temperature:       960.0000000
  free_energy:       -30.2714257
  entropy:            56.6295479
  heat_capacity:      24.6542029
  energy:             24.0929402

- temperature:       970.0000000
  free_energy:       -30.8390009
  entropy:            56.8850575
  heat_capacity:      24.6586977
  energy:             24.3395049

- temperature:       980.0000000
  free_energy:       -31.4091183
  entropy:            57.1379919
  heat_capacity:      24.6630570
  energy:             24.5861137

- temperature:       990.0000000
  free_energy:       -31.9817524
  entropy:            57.3884020
  heat_capacity:      24.6672860
  energy:             24.8327656

- temperature:      1000.0000000
  free_energy:       -32.5568781
  entropy:            57.6363372
  heat_capacity:      24.6713900
  energy:             25.0794590
