phonopy:
  version: "2.37.1"
  frequency_unit_conversion_factor: 15.633302
  symmetry_tolerance: 1.00000e-05

space_group:
  type: "I4/mmm"
  number: 139
  Hall_symbol: "-I 4 2"

primitive_matrix:
- [  1.000000000000000, -0.000000000000000, -1.000000000000000 ]
- [  1.000000000000000,  0.000000000000000,  0.000000000000000 ]
- [  1.000000000000000, -1.000000000000000,  0.000000000000000 ]

supercell_matrix:
- [   2,   0,   0 ]
- [   0,   2,   0 ]
- [   0,   0,   2 ]

primitive_cell:
  lattice:
  - [     4.004517817675354,     2.184649932195663,     2.488603740670007 ] # a
  - [     4.004517971693818,     2.184649977895666,    -2.488603740670007 ] # b
  - [    -5.196345501661651,     0.000000000000000,     0.000000000000000 ] # c
  points:
  - symbol: Li # 1
    coordinates: [  0.996074702713997,  0.996074705330792,  0.999999995932491 ]
    mass: 6.940000
  - symbol: Li # 2
    coordinates: [  0.337258623447395,  0.337258628362353,  0.999999996390357 ]
    mass: 6.940000
  - symbol: Sn # 3
    coordinates: [  0.666666673915599,  0.666666666266287,  0.000000007646212 ]
    mass: 118.710000
  reciprocal_lattice: # without 2pi
  - [    -0.000000000000000,     0.228869617691018,     0.200915877870961 ] # a*
  - [    -0.000000000000000,     0.228869617691018,    -0.200915873668065 ] # b*
  - [    -0.192442938923177,     0.352752710265406,    -0.000000002716175 ] # c*

unit_cell:
  lattice:
  - [     5.196345501661651,     0.000000000000000,     0.000000000000000 ] # a
  - [     2.812690287707521,     4.369299910091328,     0.000000000000000 ] # b
  - [    -4.004517971693818,    -2.184649977895666,     2.488603740670007 ] # c
  points:
  - symbol: Li # 1
    coordinates: [  0.996074706781505,  0.996074702713997,  0.999999997383204 ]
    mass: 6.940000
    reduced_to: 1
  - symbol: Li # 2
    coordinates: [  0.337258627057038,  0.337258623447395,  0.999999995085041 ]
    mass: 6.940000
    reduced_to: 2
  - symbol: Sn # 3
    coordinates: [  0.666666666269387,  0.666666673915599,  0.000000007649312 ]
    mass: 118.710000
    reduced_to: 3

supercell:
  lattice:
  - [    10.392691003323302,     0.000000000000000,     0.000000000000000 ] # a
  - [     5.625380575415043,     8.738599820182657,     0.000000000000000 ] # b
  - [    -8.009035943387635,    -4.369299955791331,     4.977207481340015 ] # c
  points:
  - symbol: Li # 1
    coordinates: [  0.498037353390753,  0.498037351356998,  0.499999998691602 ]
    mass: 6.940000
    reduced_to: 1
  - symbol: Li # 2
    coordinates: [  0.998037353390753,  0.498037351356998,  0.499999998691602 ]
    mass: 6.940000
    reduced_to: 1
  - symbol: Li # 3
    coordinates: [  0.498037353390753,  0.998037351356998,  0.499999998691602 ]
    mass: 6.940000
    reduced_to: 1
  - symbol: Li # 4
    coordinates: [  0.998037353390753,  0.998037351356998,  0.499999998691602 ]
    mass: 6.940000
    reduced_to: 1
  - symbol: Li # 5
    coordinates: [  0.498037353390753,  0.498037351356998,  0.999999998691602 ]
    mass: 6.940000
    reduced_to: 1
  - symbol: Li # 6
    coordinates: [  0.998037353390753,  0.498037351356998,  0.999999998691602 ]
    mass: 6.940000
    reduced_to: 1
  - symbol: Li # 7
    coordinates: [  0.498037353390753,  0.998037351356998,  0.999999998691602 ]
    mass: 6.940000
    reduced_to: 1
  - symbol: Li # 8
    coordinates: [  0.998037353390753,  0.998037351356998,  0.999999998691602 ]
    mass: 6.940000
    reduced_to: 1
  - symbol: Li # 9
    coordinates: [  0.168629313528519,  0.168629311723697,  0.499999997542521 ]
    mass: 6.940000
    reduced_to: 9
  - symbol: Li # 10
    coordinates: [  0.668629313528519,  0.168629311723697,  0.499999997542521 ]
    mass: 6.940000
    reduced_to: 9
  - symbol: Li # 11
    coordinates: [  0.168629313528519,  0.668629311723697,  0.499999997542521 ]
    mass: 6.940000
    reduced_to: 9
  - symbol: Li # 12
    coordinates: [  0.668629313528519,  0.668629311723697,  0.499999997542521 ]
    mass: 6.940000
    reduced_to: 9
  - symbol: Li # 13
    coordinates: [  0.168629313528519,  0.168629311723697,  0.999999997542521 ]
    mass: 6.940000
    reduced_to: 9
  - symbol: Li # 14
    coordinates: [  0.668629313528519,  0.168629311723697,  0.999999997542521 ]
    mass: 6.940000
    reduced_to: 9
  - symbol: Li # 15
    coordinates: [  0.168629313528519,  0.668629311723697,  0.999999997542521 ]
    mass: 6.940000
    reduced_to: 9
  - symbol: Li # 16
    coordinates: [  0.668629313528519,  0.668629311723697,  0.999999997542521 ]
    mass: 6.940000
    reduced_to: 9
  - symbol: Sn # 17
    coordinates: [  0.333333333134693,  0.333333336957799,  0.000000003824656 ]
    mass: 118.710000
    reduced_to: 17
  - symbol: Sn # 18
    coordinates: [  0.833333333134693,  0.333333336957799,  0.000000003824656 ]
    mass: 118.710000
    reduced_to: 17
  - symbol: Sn # 19
    coordinates: [  0.333333333134693,  0.833333336957800,  0.000000003824656 ]
    mass: 118.710000
    reduced_to: 17
  - symbol: Sn # 20
    coordinates: [  0.833333333134693,  0.833333336957800,  0.000000003824656 ]
    mass: 118.710000
    reduced_to: 17
  - symbol: Sn # 21
    coordinates: [  0.333333333134693,  0.333333336957799,  0.500000003824656 ]
    mass: 118.710000
    reduced_to: 17
  - symbol: Sn # 22
    coordinates: [  0.833333333134693,  0.333333336957799,  0.500000003824656 ]
    mass: 118.710000
    reduced_to: 17
  - symbol: Sn # 23
    coordinates: [  0.333333333134693,  0.833333336957800,  0.500000003824656 ]
    mass: 118.710000
    reduced_to: 17
  - symbol: Sn # 24
    coordinates: [  0.833333333134693,  0.833333336957800,  0.500000003824656 ]
    mass: 118.710000
    reduced_to: 17

displacements:
- atom:    1
  displacement:
    [   0.0100000000000000,  0.0000000000000000,  0.0000000000000000 ]
  forces:
  - [  -0.0383983589708805, -0.0098697934299707, -0.0000002985480023 ]
  - [  -0.0135420747101307, -0.0075257774442434, -0.0000005720994523 ]
  - [  -0.0133217945694923, -0.0076639857143164,  0.0000003008954081 ]
  - [  -0.0128632187843323, -0.0074309557676315,  0.0000003052973625 ]
  - [  -0.0135641470551491, -0.0073496028780937,  0.0001132631441578 ]
  - [  -0.0134756304323673, -0.0075674373656511,  0.0001854209403973 ]
  - [  -0.0134770199656487, -0.0075676217675209, -0.0001861797500169 ]
  - [  -0.0135644823312759, -0.0073486380279064, -0.0001136303180829 ]
  - [   0.0114924386143684,  0.0074013881385326,  0.0000011141037248 ]
  - [   0.0130129531025887,  0.0081471987068653,  0.0000002020387910 ]
  - [   0.0179227255284786,  0.0049857348203659,  0.0000003438181011 ]
  - [   0.0152372680604458,  0.0083091929554939, -0.0000001016651368 ]
  - [   0.0146223306655884,  0.0081352572888136,  0.0025718901306391 ]
  - [   0.0138320475816727,  0.0073642618954182, -0.0000299215316772 ]
  - [   0.0138337090611458,  0.0073621980845928,  0.0000299147650367 ]
  - [   0.0146203637123108,  0.0081350151449442, -0.0025716188829392 ]
  - [   0.0024585241917521,  0.0014788127737120, -0.0041669746860862 ]
  - [  -0.0000708986917743, -0.0000874627949088, -0.0000251632300206 ]
  - [  -0.0000665113329887, -0.0000883676111698,  0.0000244175316766 ]
  - [   0.0024551339447498,  0.0014792422298342,  0.0041665527969599 ]
  - [   0.0055021792650223,  0.0026564043946564,  0.0000002477117960 ]
  - [   0.0081827417016029, -0.0039602611213923,  0.0000004062512744 ]
  - [  -0.0000461986346636,  0.0010992782190442, -0.0000000783056748 ]
  - [  -0.0007820311584510, -0.0000940857353271,  0.0000001377120498 ]
- atom:    1
  displacement:
    [  -0.0100000000000000,  0.0000000000000000,  0.0000000000000000 ]
  forces:
  - [   0.0109275430440903, -0.0049061980098486, -0.0000002151791705 ]
  - [  -0.0139891318976879, -0.0074894018471241, -0.0000004812736734 ]
  - [  -0.0142058916389942, -0.0073462501168251,  0.0000003530622052 ]
  - [  -0.0146647430956364, -0.0075763240456581,  0.0000002382566890 ]
  - [  -0.0139604248106480, -0.0076658781617880, -0.0001148117007688 ]
  - [  -0.0140476673841476, -0.0074462536722422, -0.0001931421866175 ]
  - [  -0.0140490084886551, -0.0074464231729507,  0.0001922125811689 ]
  - [  -0.0139608941972256, -0.0076650083065033,  0.0001144735142589 ]
  - [   0.0160469040274620,  0.0076049081981182,  0.0000009324094208 ]
  - [   0.0145181007683277,  0.0068844445049763,  0.0000001929847713 ]
  - [   0.0095370598137379,  0.0100900977849960,  0.0000003854947863 ]
  - [   0.0123419500887394,  0.0067378822714090, -0.0000000535483196 ]
  - [   0.0129144787788391,  0.0068807024508715, -0.0025910185649991 ]
  - [   0.0136948227882385,  0.0076532624661922,  0.0000323839485645 ]
  - [   0.0136964842677116,  0.0076512992382050, -0.0000322452106047 ]
  - [   0.0129125081002712,  0.0068803094327450,  0.0025912448763847 ]
  - [  -0.0024712490849197, -0.0014669988304377,  0.0041162571869791 ]
  - [   0.0000807480391813,  0.0000888970680535,  0.0000303707129206 ]
  - [   0.0000849217176437,  0.0000881981104612, -0.0000310947434627 ]
  - [  -0.0024742390960455, -0.0014663559850305, -0.0041166795417666 ]
  - [  -0.0057689705863595, -0.0028251807671040, -0.0000001534644980 ]
  - [  -0.0079678799957037,  0.0038059565704316,  0.0000004751491360 ]
  - [   0.0000251485616900, -0.0011572391958907, -0.0000000069776434 ]
  - [   0.0007794867269695,  0.0000915222044569,  0.0000003859022399 ]
- atom:   17
  displacement:
    [   0.0100000000000000,  0.0000000000000000,  0.0000000000000000 ]
  forces:
  - [  -0.0112831257283688, -0.0060384590178728, -0.0042965472675860 ]
  - [  -0.0138481855392456, -0.0075975190848112, -0.0000319316823152 ]
  - [  -0.0138468369841576, -0.0075971148908138,  0.0000317912999890 ]
  - [  -0.0112835504114628, -0.0060384515672922,  0.0042970343492925 ]
  - [  -0.0079973302781582, -0.0046843327581882, -0.0000004704343155 ]
  - [  -0.0057884790003300, -0.0115120764821768, -0.0000005565816537 ]
  - [  -0.0137817412614822, -0.0061306022107601, -0.0000004255743988 ]
  - [  -0.0145452953875065, -0.0075989980250597, -0.0000000370200723 ]
  - [   0.0162140019237995,  0.0089838486164808, -0.0043541053310037 ]
  - [   0.0136946253478527,  0.0074216183274984, -0.0000245305454882 ]
  - [   0.0136945843696594,  0.0074210092425346,  0.0000251008459600 ]
  - [   0.0162124298512936,  0.0089825354516506,  0.0043551428243518 ]
  - [   0.0192687287926674,  0.0101654864847660,  0.0000005532056093 ]
  - [   0.0219377800822258,  0.0033254213631153,  0.0000001108273864 ]
  - [   0.0137116834521294,  0.0088066607713699, -0.0000002289198164 ]
  - [   0.0129824616014957,  0.0074149556457996, -0.0000003272871254 ]
  - [  -0.0369949527084827, -0.0070844497531652,  0.0000003135428415 ]
  - [   0.0006841750582680,  0.0001675125968177, -0.0000002117976692 ]
  - [   0.0005503892898560,  0.0002552606165409, -0.0000001798678824 ]
  - [   0.0006170215201564, -0.0000901275052456, -0.0000006959216989 ]
  - [   0.0005517626996152,  0.0003300474199932, -0.0000722683180356 ]
  - [  -0.0006507118232548,  0.0003848537453450, -0.0008669303497300 ]
  - [  -0.0006502322503366,  0.0003833981172647,  0.0008672265685163 ]
  - [   0.0005507786991075,  0.0003295791393612,  0.0000721724645700 ]

force_constants:
  format: "full"
  shape: [ 24, 24 ]
  elements:
  - # (1, 1)
    - [     2.466288395552020,     0.248178130288988,     0.000000008763719 ]
    - [     0.248178130288988,     2.146764315143726,     0.000000005072895 ]
    - [     0.000000008763719,     0.000000005072895,     2.011371661184586 ]
  - # (1, 2)
    - [    -0.022358911647752,     0.001818874678502,    -0.000000000351442 ]
    - [     0.001818876204169,    -0.055606099002613,    -0.000000000202214 ]
    - [    -0.000000000234822,    -0.000000000101748,     0.009170411891975 ]
  - # (1, 3)
    - [    -0.044209459418035,     0.015884933692141,    -0.000000002901617 ]
    - [     0.015884933791463,    -0.033755550593871,    -0.000000001022585 ]
    - [    -0.000000003767645,    -0.000000001094749,     0.009170411891975 ]
  - # (1, 4)
    - [    -0.090082925983018,    -0.007270039205693,     0.000000000783758 ]
    - [    -0.007270039178521,    -0.080722898923383,     0.000000001070906 ]
    - [     0.000000000786373,     0.000000001072333,    -0.076756755994270 ]
  - # (1, 5)
    - [    -0.019825329229248,    -0.015818517674043,    -0.011406293475330 ]
    - [    -0.015818515494776,     0.000540678918063,    -0.006222659410876 ]
    - [    -0.011406292896663,    -0.006222660839667,    -0.049509947413649 ]
  - # (1, 6)
    - [    -0.028607341356374,     0.006057926794710,    -0.018923884919946 ]
    - [     0.006057928728034,    -0.036406802943330,     0.034687957110389 ]
    - [    -0.018923884622627,     0.034687955950789,    -0.039711682022090 ]
  - # (1, 7)
    - [    -0.028607343836901,     0.006057927369245,     0.018923886723241 ]
    - [     0.006057929317473,    -0.036406803188951,    -0.034687956206783 ]
    - [     0.018923886289129,    -0.034687955741833,    -0.039711682201285 ]
  - # (1, 8)
    - [    -0.019825326938791,    -0.015818518880425,     0.011406289540841 ]
    - [    -0.015818517822114,     0.000540676308568,     0.006222659878072 ]
    - [     0.011406290531674,     0.006222660202267,    -0.049509946092306 ]
  - # (1, 9)
    - [     0.227716569942412,     0.010174370671222,     0.000000001308492 ]
    - [     0.010174369227483,     0.214617264868693,    -0.000000000843651 ]
    - [     0.000000001169514,    -0.000000000919470,     0.209066676210205 ]
  - # (1, 10)
    - [     0.075248655845248,    -0.063136406258237,    -0.000000001166253 ]
    - [    -0.063136414316686,    -0.542934122513674,    -0.000000004367842 ]
    - [    -0.000000000482631,    -0.000000014634902,     0.029592017746267 ]
  - # (1, 11)
    - [    -0.419285704378880,     0.255214823875977,    -0.000000005645474 ]
    - [     0.255214825401645,    -0.048399787086053,     0.000000003657694 ]
    - [    -0.000000005528853,     0.000000003758160,     0.029592017746267 ]
  - # (1, 12)
    - [    -0.144772603781894,    -0.078567159635246,    -0.000000002003251 ]
    - [    -0.078567159635246,    -0.043619062863882,    -0.000000000800986 ]
    - [    -0.000000002003251,    -0.000000000800986,    -0.000757038401679 ]
  - # (1, 13)
    - [    -0.085400528115162,    -0.062733758523560,    -0.258153957706118 ]
    - [    -0.062733754955892,    -0.004632151506403,    -0.140834928634350 ]
    - [    -0.258153946323456,    -0.140834926456734,    -0.348060811070273 ]
  - # (1, 14)
    - [    -0.006867946149388,     0.014450912510983,     0.003111637648858 ]
    - [     0.014450914459211,    -0.025473196859668,    -0.005703706978758 ]
    - [     0.003111637214746,    -0.005703706513808,    -0.033356837881844 ]
  - # (1, 15)
    - [    -0.006867944647473,     0.014450912688173,    -0.003111635292428 ]
    - [     0.014450914621496,    -0.025473196081788,     0.005703708184125 ]
    - [    -0.003111634995109,     0.005703707024525,    -0.033356837256296 ]
  - # (1, 16)
    - [    -0.085400538813171,    -0.062733760472873,     0.258153954986747 ]
    - [    -0.062733756413290,    -0.004632150180972,     0.140834920865727 ]
    - [     0.258153948343204,     0.140834925440852,    -0.348060783316526 ]
  - # (1, 17)
    - [    -0.246485477977557,    -0.147261415600311,     0.414128565615814 ]
    - [    -0.147261412178041,    -0.056889537167314,     0.225926297389667 ]
    - [     0.432601504212506,     0.236004139789477,    -0.654485955847892 ]
  - # (1, 18)
    - [     0.007614460022677,     0.008812632972005,     0.002805009752880 ]
    - [     0.008812634294126,    -0.003731627877089,    -0.005141647846514 ]
    - [     0.002805009248343,    -0.005141647426071,    -0.008539325829235 ]
  - # (1, 19)
    - [     0.007614460196278,     0.008812632836751,    -0.002805004789530 ]
    - [     0.008812634162675,    -0.003731627971509,     0.005141649317156 ]
    - [    -0.002805005299227,     0.005141649737161,    -0.008539325908416 ]
  - # (1, 20)
    - [    -0.246485451774915,    -0.147261404494678,    -0.414128552499740 ]
    - [    -0.147261401214134,    -0.056889532925808,    -0.225926294803298 ]
    - [    -0.432601492434888,    -0.236004139113850,    -0.654485986292041 ]
  - # (1, 21)
    - [    -0.563560406171499,    -0.274067476275075,    -0.000000007292656 ]
    - [    -0.274067474040275,    -0.210704363280375,    -0.000000003739660 ]
    - [    -0.000000006981368,    -0.000000004576729,    -0.061187869070453 ]
  - # (1, 22)
    - [    -0.807486762018260,     0.388277942487601,    -0.000000009684727 ]
    - [     0.409321042111204,    -0.173822629391904,     0.000000006542388 ]
    - [    -0.000000013746145,     0.000000007361127,     0.023448381336351 ]
  - # (1, 23)
    - [     0.003535365917279,    -0.112765804504141,     0.000000000562792 ]
    - [    -0.133808930247103,    -0.984844688947526,    -0.000000005583987 ]
    - [     0.000000000401524,     0.000000002293749,     0.023448381336352 ]
  - # (1, 24)
    - [     0.078112094762404,     0.009242240657982,     0.000000002041372 ]
    - [     0.009242242888111,     0.066212894067062,     0.000000001352485 ]
    - [     0.000000002355951,     0.000000000517211,     0.061170825254277 ]
  - # (2, 1)
    - [    -0.022358911647752,     0.001818876204169,    -0.000000000234822 ]
    - [     0.001818874678502,    -0.055606099002613,    -0.000000000101748 ]
    - [    -0.000000000351442,    -0.000000000202214,     0.009170411891975 ]
  - # (2, 2)
    - [     2.466288392909313,     0.248178131313685,     0.000000007965009 ]
    - [     0.248178131313685,     2.146764316646323,     0.000000004084584 ]
    - [     0.000000007965009,     0.000000004084584,     2.011371660630232 ]
  - # (2, 3)
    - [    -0.090082928112144,    -0.007270038119336,    -0.000000005110071 ]
    - [    -0.007270038037214,    -0.080722895852924,    -0.000000002944755 ]
    - [    -0.000000005332929,    -0.000000003170057,    -0.076756756969375 ]
  - # (2, 4)
    - [    -0.044209460026025,     0.015884935054305,    -0.000000000085769 ]
    - [     0.015884932308905,    -0.033755551730399,     0.000000000136528 ]
    - [    -0.000000000373257,     0.000000000337144,     0.009170411568749 ]
  - # (2, 5)
    - [    -0.028607348175806,     0.006057932214165,    -0.018923886998936 ]
    - [     0.006057931088922,    -0.036406799523627,     0.034687956865958 ]
    - [    -0.018923885466150,     0.034687956117940,    -0.039711681530622 ]
  - # (2, 6)
    - [    -0.019825325829821,    -0.015818519011322,    -0.011406293253077 ]
    - [    -0.015818518603666,     0.000540677037422,    -0.006222660905547 ]
    - [    -0.011406293072379,    -0.006222662165613,    -0.049509948861912 ]
  - # (2, 7)
    - [    -0.019825327845068,    -0.015818519633723,     0.011406294748379 ]
    - [    -0.015818519211162,     0.000540676040533,     0.006222660673561 ]
    - [     0.011406294197646,     0.006222661038044,    -0.049509948755119 ]
  - # (2, 8)
    - [    -0.028607345486843,     0.006057929594519,     0.018923881444754 ]
    - [     0.006057930413484,    -0.036406802121539,    -0.034687957964341 ]
    - [     0.018923881582602,    -0.034687956968592,    -0.039711680371188 ]
  - # (2, 9)
    - [     0.075248655205393,    -0.063136404012619,     0.000000001080183 ]
    - [    -0.063136416768238,    -0.542934128590538,    -0.000000003676615 ]
    - [     0.000000001391322,     0.000000000666383,     0.029592017246227 ]
  - # (2, 10)
    - [     0.227716568247735,     0.010174372233590,     0.000000003384226 ]
    - [     0.010174370683507,     0.214617265029987,     0.000000001689276 ]
    - [     0.000000004311031,     0.000000002091169,     0.209066677709818 ]
  - # (2, 11)
    - [    -0.144772606424601,    -0.078567158610549,    -0.000000002801961 ]
    - [    -0.078567158610549,    -0.043619061361285,    -0.000000001789297 ]
    - [    -0.000000002801961,    -0.000000001789297,    -0.000757038956034 ]
  - # (2, 12)
    - [    -0.419285704378880,     0.255214825401645,    -0.000000005528853 ]
    - [     0.255214823875977,    -0.048399787086053,     0.000000003758160 ]
    - [    -0.000000005645474,     0.000000003657694,     0.029592017746267 ]
  - # (2, 13)
    - [    -0.006867948276578,     0.014450915713372,     0.003111632339130 ]
    - [     0.014450915284291,    -0.025473195483162,    -0.005703708476651 ]
    - [     0.003111633484719,    -0.005703707582413,    -0.033356836329947 ]
  - # (2, 14)
    - [    -0.085400519685139,    -0.062733754007630,    -0.258153941669536 ]
    - [    -0.062733753585069,    -0.004632150402308,    -0.140834925589675 ]
    - [    -0.258153942220269,    -0.140834925225191,    -0.348060805432483 ]
  - # (2, 15)
    - [    -0.085400534352635,    -0.062733760410866,     0.258153949943443 ]
    - [    -0.062733760003210,    -0.004632152105908,     0.140834926599662 ]
    - [     0.258153950124141,     0.140834925339596,    -0.348060786156044 ]
  - # (2, 16)
    - [    -0.006867950970105,     0.014450918129954,    -0.003111636208140 ]
    - [     0.014450916168668,    -0.025473192880687,     0.005703708199744 ]
    - [    -0.003111636044776,     0.005703707355922,    -0.033356836596673 ]
  - # (2, 17)
    - [     0.007614457190522,     0.008812634497257,     0.002805008141232 ]
    - [     0.008812636317736,    -0.003731626676384,    -0.005141648039686 ]
    - [     0.002805007359343,    -0.005141649094306,    -0.008539326492084 ]
  - # (2, 18)
    - [    -0.246485477788109,    -0.147261414575198,     0.414128566545373 ]
    - [    -0.147261414702622,    -0.056889536865421,     0.225926296694994 ]
    - [     0.432601505186176,     0.236004140368935,    -0.654485955739398 ]
  - # (2, 19)
    - [    -0.246485451585467,    -0.147261403469565,    -0.414128551570181 ]
    - [    -0.147261403738715,    -0.056889532623915,    -0.225926295497971 ]
    - [    -0.432601491461219,    -0.236004138534393,    -0.654485986183547 ]
  - # (2, 20)
    - [     0.007614457364123,     0.008812634362003,    -0.002805006401178 ]
    - [     0.008812636186286,    -0.003731626770804,     0.005141649123984 ]
    - [    -0.002805007188227,     0.005141648068926,    -0.008539326571265 ]
  - # (2, 21)
    - [    -0.807486723668449,     0.388277922522365,    -0.000000009675731 ]
    - [     0.409321031648329,    -0.173822628118928,     0.000000006170735 ]
    - [    -0.000000009386256,     0.000000004908242,     0.023448379478643 ]
  - # (2, 22)
    - [    -0.563560423809400,    -0.274067473975275,    -0.000000007968910 ]
    - [    -0.274067453835706,    -0.210704347078567,    -0.000000003596267 ]
    - [    -0.000000006971984,    -0.000000002809223,    -0.061187867034527 ]
  - # (2, 23)
    - [     0.078112091060372,     0.009242245639647,     0.000000001343649 ]
    - [     0.009242241890108,     0.066212897393539,     0.000000000541004 ]
    - [     0.000000000044690,     0.000000000075537,     0.061170826229665 ]
  - # (2, 24)
    - [     0.003535366085366,    -0.112765827054592,     0.000000000571786 ]
    - [    -0.133808934762249,    -0.984844717872743,    -0.000000005955640 ]
    - [     0.000000000669646,    -0.000000006568818,     0.023448379478643 ]
  - # (3, 1)
    - [    -0.044209459418035,     0.015884933791463,    -0.000000003767645 ]
    - [     0.015884933692141,    -0.033755550593871,    -0.000000001094749 ]
    - [    -0.000000002901617,    -0.000000001022585,     0.009170411891975 ]
  - # (3, 2)
    - [    -0.090082928112144,    -0.007270038037214,    -0.000000005332929 ]
    - [    -0.007270038119336,    -0.080722895852924,    -0.000000003170057 ]
    - [    -0.000000005110071,    -0.000000002944755,    -0.076756756969375 ]
  - # (3, 3)
    - [     2.466288541726347,     0.248178036583337,     0.000000130976109 ]
    - [     0.248178036583337,     2.146764171150690,     0.000000071296545 ]
    - [     0.000000130976109,     0.000000071296545,     2.011371660630239 ]
  - # (3, 4)
    - [    -0.022358917584082,     0.001818881245251,    -0.000000002678775 ]
    - [     0.001818879701204,    -0.055606089646977,    -0.000000002212393 ]
    - [    -0.000000002270614,    -0.000000000946301,     0.009170411568749 ]
  - # (3, 5)
    - [    -0.028607351787181,     0.006057935268189,     0.018923884030367 ]
    - [     0.006057933753498,    -0.036406794251559,    -0.034687956553769 ]
    - [     0.018923883157413,    -0.034687956951623,    -0.039711680462242 ]
  - # (3, 6)
    - [    -0.019825328421305,    -0.015818516743433,     0.011406291260088 ]
    - [    -0.015818517217747,     0.000540680879511,     0.006222659782326 ]
    - [     0.011406290845926,     0.006222657719212,    -0.049509947631622 ]
  - # (3, 7)
    - [    -0.019825329656795,    -0.015818517116091,    -0.011406295890615 ]
    - [    -0.015818517575499,     0.000540679923042,    -0.006222663356236 ]
    - [    -0.011406297525784,    -0.006222662897395,    -0.049509949985409 ]
  - # (3, 8)
    - [    -0.028607349098217,     0.006057932648543,    -0.018923893345997 ]
    - [     0.006057933078060,    -0.036406796849471,     0.034687953403343 ]
    - [    -0.018923894303114,     0.034687952346574,    -0.039711681439569 ]
  - # (3, 9)
    - [    -0.419285747243629,     0.255214838404976,    -0.000000015144042 ]
    - [     0.255214840325671,    -0.048399789315724,     0.000000008618331 ]
    - [    -0.000000008904576,     0.000000003121703,     0.029592017246227 ]
  - # (3, 10)
    - [    -0.144772616421234,    -0.078567151106291,    -0.000000012827090 ]
    - [    -0.078567151106291,    -0.043619048043265,    -0.000000007154746 ]
    - [    -0.000000012827090,    -0.000000007154746,    -0.000757038956035 ]
  - # (3, 11)
    - [     0.227716568247735,     0.010174370683507,     0.000000004311031 ]
    - [     0.010174372233590,     0.214617265029987,     0.000000002091169 ]
    - [     0.000000003384226,     0.000000001689276,     0.209066677709818 ]
  - # (3, 12)
    - [     0.075248655845248,    -0.063136414316686,    -0.000000000482631 ]
    - [    -0.063136406258237,    -0.542934122513674,    -0.000000014634902 ]
    - [    -0.000000001166253,    -0.000000004367842,     0.029592017746267 ]
  - # (3, 13)
    - [    -0.006867950801566,     0.014450917026002,    -0.003111642521358 ]
    - [     0.014450918291561,    -0.025473191297480,     0.005703704755592 ]
    - [    -0.003111642656676,     0.005703704798431,    -0.033356836505620 ]
  - # (3, 14)
    - [    -0.085400531880889,    -0.062733751493044,     0.258153944779819 ]
    - [    -0.062733756342126,    -0.004632145827391,     0.140834922770877 ]
    - [     0.258153943183515,     0.140834909491151,    -0.348060777587683 ]
  - # (3, 15)
    - [    -0.085400528900174,    -0.062733752243857,    -0.258153947683914 ]
    - [    -0.062733757107844,    -0.004632146616148,    -0.140834927859007 ]
    - [    -0.258153959628989,    -0.140834922452997,    -0.348060814000845 ]
  - # (3, 16)
    - [    -0.006867953495093,     0.014450919442585,     0.003111634519690 ]
    - [     0.014450919175938,    -0.025473188695005,    -0.005703707287055 ]
    - [     0.003111633186618,    -0.005703708587204,    -0.033356836421000 ]
  - # (3, 17)
    - [     0.007614455467093,     0.008812635314481,    -0.002805008332576 ]
    - [     0.008812638745225,    -0.003731623213081,     0.005141648070318 ]
    - [    -0.002805010157446,     0.005141646552801,    -0.008539326571265 ]
  - # (3, 18)
    - [    -0.246485469960668,    -0.147261398162622,    -0.414128562900633 ]
    - [    -0.147261411614862,    -0.056889527479207,    -0.225926301679256 ]
    - [    -0.432601521409924,    -0.236004132686047,    -0.654486001737992 ]
  - # (3, 19)
    - [    -0.246485473211787,    -0.147261396747138,     0.414128555214922 ]
    - [    -0.147261410057651,    -0.056889524889864,     0.225926290513709 ]
    - [     0.432601493805784,     0.236004112181099,    -0.654485940184955 ]
  - # (3, 20)
    - [     0.007614455447334,     0.008812635533661,     0.002805006209835 ]
    - [     0.008812638594681,    -0.003731623272502,    -0.005141649093352 ]
    - [     0.002805004790478,    -0.005141650392019,    -0.008539326492084 ]
  - # (3, 21)
    - [     0.003535366722453,    -0.112765821951443,    -0.000000003309421 ]
    - [    -0.133808916172977,    -0.984844678904081,    -0.000000025791576 ]
    - [    -0.000000001210125,    -0.000000007490598,     0.023448379478643 ]
  - # (3, 22)
    - [     0.078112091562364,     0.009242245117868,     0.000000001372516 ]
    - [     0.009242242834614,     0.066212898552240,     0.000000000556752 ]
    - [    -0.000000000794224,    -0.000000000278408,     0.061170826229665 ]
  - # (3, 23)
    - [    -0.563560438496793,    -0.274067451462627,    -0.000000030001322 ]
    - [    -0.274067456369617,    -0.210704330730482,    -0.000000015615966 ]
    - [    -0.000000011197538,    -0.000000005010736,    -0.061187867034528 ]
  - # (3, 24)
    - [    -0.807486760528979,     0.388277928320582,    -0.000000028455429 ]
    - [     0.409321050932668,    -0.173822627542763,     0.000000013644101 ]
    - [    -0.000000011266028,     0.000000003986462,     0.023448379478642 ]
  - # (4, 1)
    - [    -0.090082925983018,    -0.007270039178521,     0.000000000786373 ]
    - [    -0.007270039205693,    -0.080722898923383,     0.000000001072333 ]
    - [     0.000000000783758,     0.000000001070906,    -0.076756755994270 ]
  - # (4, 2)
    - [    -0.044209460026025,     0.015884932308905,    -0.000000000373257 ]
    - [     0.015884935054305,    -0.033755551730399,     0.000000000337144 ]
    - [    -0.000000000085769,     0.000000000136528,     0.009170411568749 ]
  - # (4, 3)
    - [    -0.022358917584082,     0.001818879701204,    -0.000000002270614 ]
    - [     0.001818881245251,    -0.055606089646977,    -0.000000000946301 ]
    - [    -0.000000002678775,    -0.000000002212393,     0.009170411568749 ]
  - # (4, 4)
    - [     2.466288535998836,     0.248178030244215,     0.000000006836136 ]
    - [     0.248178030244215,     2.146764210014299,    -0.000000027432721 ]
    - [     0.000000006836136,    -0.000000027432721,     2.011371625867210 ]
  - # (4, 5)