phonopy:
  version: "2.37.1"
  frequency_unit_conversion_factor: 15.633302
  symmetry_tolerance: 1.00000e-05

space_group:
  type: "P4/mbm"
  number: 127
  Hall_symbol: "-P 4 2ab"

primitive_matrix:
- [  1.000000000000000,  0.000000000000000, -0.000000000000000 ]
- [  0.000000000000000,  1.000000000000000, -0.000000000000000 ]
- [  0.000000000000000,  0.000000000000000,  1.000000000000000 ]

supercell_matrix:
- [   1,   0,   0 ]
- [   0,   1,   0 ]
- [   0,   0,   4 ]

primitive_cell:
  lattice:
  - [    10.463211926123689,     0.000000000000000,     0.000000000000000 ] # a
  - [    -0.000000617403350,    10.463212147006448,     0.000000000000000 ] # b
  - [     0.000000044857958,     0.000000019385336,     3.111262809562680 ] # c
  points:
  - symbol: Li # 1
    coordinates: [  0.325049684416587,  0.825049681171835,  0.499999998103991 ]
    mass: 6.940000
  - symbol: Li # 2
    coordinates: [  0.825049681210825,  0.674950316379572,  0.499999999418225 ]
    mass: 6.940000
  - symbol: Li # 3
    coordinates: [  0.174950316094665,  0.325049680929686,  0.499999998646300 ]
    mass: 6.940000
  - symbol: Li # 4
    coordinates: [  0.674950314548830,  0.174950317706156,  0.499999998642709 ]
    mass: 6.940000
  - symbol: Sn # 5
    coordinates: [  0.068238986131179,  0.795092437425235,  0.000000000906204 ]
    mass: 118.710000
  - symbol: Sn # 6
    coordinates: [  0.931761012962944,  0.204907565841897,  0.000000000230766 ]
    mass: 118.710000
  - symbol: Sn # 7
    coordinates: [  0.795092436473608,  0.931761010883153,  0.999999999972412 ]
    mass: 118.710000
  - symbol: Sn # 8
    coordinates: [  0.204907563122931,  0.068238990292324,  0.000000001121336 ]
    mass: 118.710000
  - symbol: Sn # 9
    coordinates: [  0.500000000717440,  0.999999999589832,  0.000000000428534 ]
    mass: 118.710000
  - symbol: Sn # 10
    coordinates: [  0.999999998280364,  0.499999999143747,  0.000000000291692 ]
    mass: 118.710000
  - symbol: Sn # 11
    coordinates: [  0.568238989324687,  0.704907566270281,  0.000000000088076 ]
    mass: 118.710000
  - symbol: Sn # 12
    coordinates: [  0.704907566950146,  0.431761011422604,  0.000000000580038 ]
    mass: 118.710000
  - symbol: Sn # 13
    coordinates: [  0.295092436275897,  0.568238989866042,  0.000000001134413 ]
    mass: 118.710000
  - symbol: Sn # 14
    coordinates: [  0.431761013536048,  0.295092433128472,  0.000000000454649 ]
    mass: 118.710000
  reciprocal_lattice: # without 2pi
  - [     0.095572947108457,     0.000000005639478,    -0.000000001377964 ] # a*
  - [     0.000000000000000,     0.095572945090873,    -0.000000000595486 ] # b*
  - [     0.000000000000000,     0.000000000000000,     0.321412899265993 ] # c*

unit_cell:
  lattice:
  - [    10.463211926123689,     0.000000000000000,     0.000000000000000 ] # a
  - [    -0.000000617403350,    10.463212147006448,     0.000000000000000 ] # b
  - [     0.000000044857958,     0.000000019385336,     3.111262809562679 ] # c
  points:
  - symbol: Li # 1
    coordinates: [  0.325049684416587,  0.825049681171835,  0.499999998103991 ]
    mass: 6.940000
    reduced_to: 1
  - symbol: Li # 2
    coordinates: [  0.825049681210825,  0.674950316379572,  0.499999999418225 ]
    mass: 6.940000
    reduced_to: 2
  - symbol: Li # 3
    coordinates: [  0.174950316094665,  0.325049680929686,  0.499999998646300 ]
    mass: 6.940000
    reduced_to: 3
  - symbol: Li # 4
    coordinates: [  0.674950314548830,  0.174950317706156,  0.499999998642709 ]
    mass: 6.940000
    reduced_to: 4
  - symbol: Sn # 5
    coordinates: [  0.068238986131179,  0.795092437425235,  0.000000000906204 ]
    mass: 118.710000
    reduced_to: 5
  - symbol: Sn # 6
    coordinates: [  0.931761012962944,  0.204907565841897,  0.000000000230766 ]
    mass: 118.710000
    reduced_to: 6
  - symbol: Sn # 7
    coordinates: [  0.795092436473608,  0.931761010883153,  0.999999999972413 ]
    mass: 118.710000
    reduced_to: 7
  - symbol: Sn # 8
    coordinates: [  0.204907563122931,  0.068238990292324,  0.000000001121336 ]
    mass: 118.710000
    reduced_to: 8
  - symbol: Sn # 9
    coordinates: [  0.500000000717440,  0.999999999589832,  0.000000000428534 ]
    mass: 118.710000
    reduced_to: 9
  - symbol: Sn # 10
    coordinates: [  0.999999998280364,  0.499999999143747,  0.000000000291692 ]
    mass: 118.710000
    reduced_to: 10
  - symbol: Sn # 11
    coordinates: [  0.568238989324687,  0.704907566270281,  0.000000000088076 ]
    mass: 118.710000
    reduced_to: 11
  - symbol: Sn # 12
    coordinates: [  0.704907566950146,  0.431761011422604,  0.000000000580038 ]
    mass: 118.710000
    reduced_to: 12
  - symbol: Sn # 13
    coordinates: [  0.295092436275897,  0.568238989866042,  0.000000001134413 ]
    mass: 118.710000
    reduced_to: 13
  - symbol: Sn # 14
    coordinates: [  0.431761013536048,  0.295092433128472,  0.000000000454649 ]
    mass: 118.710000
    reduced_to: 14

supercell:
  lattice:
  - [    10.463211926123689,     0.000000000000000,     0.000000000000000 ] # a
  - [    -0.000000617403350,    10.463212147006448,     0.000000000000000 ] # b
  - [     0.000000179431831,     0.000000077541345,    12.445051238250715 ] # c
  points:
  - symbol: Li # 1
    coordinates: [  0.325049684416587,  0.825049681171835,  0.124999999525998 ]
    mass: 6.940000
    reduced_to: 1
  - symbol: Li # 2
    coordinates: [  0.325049684416587,  0.825049681171835,  0.374999999525998 ]
    mass: 6.940000
    reduced_to: 1
  - symbol: Li # 3
    coordinates: [  0.325049684416587,  0.825049681171835,  0.624999999525998 ]
    mass: 6.940000
    reduced_to: 1
  - symbol: Li # 4
    coordinates: [  0.325049684416587,  0.825049681171835,  0.874999999525998 ]
    mass: 6.940000
    reduced_to: 1
  - symbol: Li # 5
    coordinates: [  0.825049681210825,  0.674950316379572,  0.124999999854556 ]
    mass: 6.940000
    reduced_to: 5
  - symbol: Li # 6
    coordinates: [  0.825049681210825,  0.674950316379572,  0.374999999854556 ]
    mass: 6.940000
    reduced_to: 5
  - symbol: Li # 7
    coordinates: [  0.825049681210825,  0.674950316379572,  0.624999999854556 ]
    mass: 6.940000
    reduced_to: 5
  - symbol: Li # 8
    coordinates: [  0.825049681210825,  0.674950316379572,  0.874999999854556 ]
    mass: 6.940000
    reduced_to: 5
  - symbol: Li # 9
    coordinates: [  0.174950316094665,  0.325049680929686,  0.124999999661575 ]
    mass: 6.940000
    reduced_to: 9
  - symbol: Li # 10
    coordinates: [  0.174950316094665,  0.325049680929686,  0.374999999661575 ]
    mass: 6.940000
    reduced_to: 9
  - symbol: Li # 11
    coordinates: [  0.174950316094665,  0.325049680929686,  0.624999999661575 ]
    mass: 6.940000
    reduced_to: 9
  - symbol: Li # 12
    coordinates: [  0.174950316094665,  0.325049680929686,  0.874999999661575 ]
    mass: 6.940000
    reduced_to: 9
  - symbol: Li # 13
    coordinates: [  0.674950314548830,  0.174950317706156,  0.124999999660677 ]
    mass: 6.940000
    reduced_to: 13
  - symbol: Li # 14
    coordinates: [  0.674950314548830,  0.174950317706156,  0.374999999660677 ]
    mass: 6.940000
    reduced_to: 13
  - symbol: Li # 15
    coordinates: [  0.674950314548830,  0.174950317706156,  0.624999999660677 ]
    mass: 6.940000
    reduced_to: 13
  - symbol: Li # 16
    coordinates: [  0.674950314548830,  0.174950317706156,  0.874999999660677 ]
    mass: 6.940000
    reduced_to: 13
  - symbol: Sn # 17
    coordinates: [  0.068238986131179,  0.795092437425235,  0.000000000226551 ]
    mass: 118.710000
    reduced_to: 17
  - symbol: Sn # 18
    coordinates: [  0.068238986131179,  0.795092437425235,  0.250000000226551 ]
    mass: 118.710000
    reduced_to: 17
  - symbol: Sn # 19
    coordinates: [  0.068238986131179,  0.795092437425235,  0.500000000226551 ]
    mass: 118.710000
    reduced_to: 17
  - symbol: Sn # 20
    coordinates: [  0.068238986131179,  0.795092437425235,  0.750000000226551 ]
    mass: 118.710000
    reduced_to: 17
  - symbol: Sn # 21
    coordinates: [  0.931761012962944,  0.204907565841897,  0.000000000057691 ]
    mass: 118.710000
    reduced_to: 21
  - symbol: Sn # 22
    coordinates: [  0.931761012962944,  0.204907565841897,  0.250000000057692 ]
    mass: 118.710000
    reduced_to: 21
  - symbol: Sn # 23
    coordinates: [  0.931761012962944,  0.204907565841897,  0.500000000057692 ]
    mass: 118.710000
    reduced_to: 21
  - symbol: Sn # 24
    coordinates: [  0.931761012962944,  0.204907565841897,  0.750000000057692 ]
    mass: 118.710000
    reduced_to: 21
  - symbol: Sn # 25
    coordinates: [  0.795092436473608,  0.931761010883153,  0.249999999993103 ]
    mass: 118.710000
    reduced_to: 25
  - symbol: Sn # 26
    coordinates: [  0.795092436473608,  0.931761010883153,  0.499999999993103 ]
    mass: 118.710000
    reduced_to: 25
  - symbol: Sn # 27
    coordinates: [  0.795092436473608,  0.931761010883153,  0.749999999993103 ]
    mass: 118.710000
    reduced_to: 25
  - symbol: Sn # 28
    coordinates: [  0.795092436473608,  0.931761010883153,  0.999999999993103 ]
    mass: 118.710000
    reduced_to: 25
  - symbol: Sn # 29
    coordinates: [  0.204907563122931,  0.068238990292324,  0.000000000280334 ]
    mass: 118.710000
    reduced_to: 29
  - symbol: Sn # 30
    coordinates: [  0.204907563122931,  0.068238990292324,  0.250000000280334 ]
    mass: 118.710000
    reduced_to: 29
  - symbol: Sn # 31
    coordinates: [  0.204907563122931,  0.068238990292324,  0.500000000280334 ]
    mass: 118.710000
    reduced_to: 29
  - symbol: Sn # 32
    coordinates: [  0.204907563122931,  0.068238990292324,  0.750000000280334 ]
    mass: 118.710000
    reduced_to: 29
  - symbol: Sn # 33
    coordinates: [  0.500000000717440,  0.999999999589832,  0.000000000107134 ]
    mass: 118.710000
    reduced_to: 33
  - symbol: Sn # 34
    coordinates: [  0.500000000717440,  0.999999999589832,  0.250000000107134 ]
    mass: 118.710000
    reduced_to: 33
  - symbol: Sn # 35
    coordinates: [  0.500000000717440,  0.999999999589832,  0.500000000107134 ]
    mass: 118.710000
    reduced_to: 33
  - symbol: Sn # 36
    coordinates: [  0.500000000717440,  0.999999999589832,  0.750000000107134 ]
    mass: 118.710000
    reduced_to: 33
  - symbol: Sn # 37
    coordinates: [  0.999999998280364,  0.499999999143747,  0.000000000072923 ]
    mass: 118.710000
    reduced_to: 37
  - symbol: Sn # 38
    coordinates: [  0.999999998280364,  0.499999999143747,  0.250000000072923 ]
    mass: 118.710000
    reduced_to: 37
  - symbol: Sn # 39
    coordinates: [  0.999999998280364,  0.499999999143747,  0.500000000072923 ]
    mass: 118.710000
    reduced_to: 37
  - symbol: Sn # 40
    coordinates: [  0.999999998280364,  0.499999999143747,  0.750000000072923 ]
    mass: 118.710000
    reduced_to: 37
  - symbol: Sn # 41
    coordinates: [  0.568238989324687,  0.704907566270281,  0.000000000022019 ]
    mass: 118.710000
    reduced_to: 41
  - symbol: Sn # 42
    coordinates: [  0.568238989324687,  0.704907566270281,  0.250000000022019 ]
    mass: 118.710000
    reduced_to: 41
  - symbol: Sn # 43
    coordinates: [  0.568238989324687,  0.704907566270281,  0.500000000022019 ]
    mass: 118.710000
    reduced_to: 41
  - symbol: Sn # 44
    coordinates: [  0.568238989324687,  0.704907566270281,  0.750000000022019 ]
    mass: 118.710000
    reduced_to: 41
  - symbol: Sn # 45
    coordinates: [  0.704907566950146,  0.431761011422604,  0.000000000145009 ]
    mass: 118.710000
    reduced_to: 45
  - symbol: Sn # 46
    coordinates: [  0.704907566950146,  0.431761011422604,  0.250000000145009 ]
    mass: 118.710000
    reduced_to: 45
  - symbol: Sn # 47
    coordinates: [  0.704907566950146,  0.431761011422604,  0.500000000145009 ]
    mass: 118.710000
    reduced_to: 45
  - symbol: Sn # 48
    coordinates: [  0.704907566950146,  0.431761011422604,  0.750000000145009 ]
    mass: 118.710000
    reduced_to: 45
  - symbol: Sn # 49
    coordinates: [  0.295092436275897,  0.568238989866042,  0.000000000283603 ]
    mass: 118.710000
    reduced_to: 49
  - symbol: Sn # 50
    coordinates: [  0.295092436275897,  0.568238989866042,  0.250000000283603 ]
    mass: 118.710000
    reduced_to: 49
  - symbol: Sn # 51
    coordinates: [  0.295092436275897,  0.568238989866042,  0.500000000283603 ]
    mass: 118.710000
    reduced_to: 49
  - symbol: Sn # 52
    coordinates: [  0.295092436275897,  0.568238989866042,  0.750000000283603 ]
    mass: 118.710000
    reduced_to: 49
  - symbol: Sn # 53
    coordinates: [  0.431761013536048,  0.295092433128472,  0.000000000113662 ]
    mass: 118.710000
    reduced_to: 53
  - symbol: Sn # 54
    coordinates: [  0.431761013536048,  0.295092433128472,  0.250000000113662 ]
    mass: 118.710000
    reduced_to: 53
  - symbol: Sn # 55
    coordinates: [  0.431761013536048,  0.295092433128472,  0.500000000113662 ]
    mass: 118.710000
    reduced_to: 53
  - symbol: Sn # 56
    coordinates: [  0.431761013536048,  0.295092433128472,  0.750000000113662 ]
    mass: 118.710000
    reduced_to: 53

displacements:
- atom:    1
  displacement:
    [   0.0064352987291521,  0.0000000000476911,  0.0076542099701128 ]
  forces:
  - [  -0.0253151841461658, -0.0169961750507355, -0.0113903675228357 ]
  - [  -0.0158045589923859, -0.0171277038753033,  0.0017109760083258 ]
  - [  -0.0169978793710470, -0.0169445835053921, -0.0005237157456577 ]
  - [  -0.0157534219324589, -0.0170561522245407,  0.0016181715764105 ]
  - [  -0.0174381714314222,  0.0167022943496704, -0.0004383716732264 ]
  - [  -0.0176297686994076,  0.0169899426400661,  0.0000293771736324 ]
  - [  -0.0168690532445908,  0.0168934613466263,  0.0000443165190518 ]
  - [  -0.0175084788352251,  0.0167701598256826, -0.0000100964680314 ]
  - [   0.0168665759265423, -0.0166987776756287, -0.0004376871511340 ]
  - [   0.0169913340359926, -0.0169078521430492,  0.0001051700673997 ]
  - [   0.0169057454913855, -0.0168924927711487,  0.0000438089482486 ]
  - [   0.0167607627809048, -0.0168389156460762, -0.0000803251750767 ]
  - [   0.0165073908865452,  0.0164045915007591,  0.0000965166836977 ]
  - [   0.0161094330251217,  0.0159815233200788, -0.0006234887987375 ]
  - [   0.0169272124767303,  0.0169357806444168,  0.0000792788341641 ]
  - [   0.0170302204787731,  0.0169042553752661,  0.0001507066190243 ]
  - [  -0.0238080397248268,  0.0575348548591137,  0.0023499289527535 ]
  - [  -0.0272384472191334,  0.0580022037029266, -0.0004328513750806 ]
  - [  -0.0281394720077515,  0.0576857961714268, -0.0003859791322611 ]
  - [  -0.0282002314925194,  0.0576057955622673,  0.0005524766165763 ]
  - [   0.0284988135099411, -0.0578997880220413, -0.0000106180086732 ]
  - [   0.0278098750859499, -0.0574512183666229, -0.0000185102690011 ]
  - [   0.0282366238534451, -0.0576662123203278,  0.0000424850732088 ]
  - [   0.0280725508928299, -0.0576099753379822, -0.0000026505076676 ]
  - [   0.0581596493721008,  0.0285356137901545, -0.0000113360583782 ]
  - [   0.0575113967061043,  0.0280797388404608,  0.0000234264589380 ]
  - [   0.0575987324118614,  0.0281979627907276,  0.0000024377513910 ]
  - [   0.0577562600374222,  0.0278907380998135,  0.0000461705494672 ]
  - [  -0.0568126626312733, -0.0298775434494019,  0.0011124731972814 ]
  - [  -0.0587048158049583, -0.0279351789504290,  0.0001740613952279 ]
  - [  -0.0575348362326622, -0.0281717479228973, -0.0001578992232680 ]
  - [  -0.0576626844704151, -0.0279569625854492,  0.0001412879501004 ]
  - [  -0.0007207183516584,  0.0001340632734355, -0.0005871800240129 ]
  - [   0.0031574668828398,  0.0040526241064072,  0.0029258814174682 ]
  - [  -0.0000058495279518, -0.0001073198800441,  0.0005069937324151 ]
  - [   0.0000510578975081, -0.0000490248203278, -0.0001500625221524 ]
  - [   0.0002853384066839,  0.0004783495096490, -0.0000115220300358 ]
  - [  -0.0004752455861308, -0.0002687267260626,  0.0000945189094637 ]
  - [   0.0001031816937029,  0.0000235568077187,  0.0000402321747970 ]
  - [  -0.0001004805963021, -0.0001786538632587, -0.0001077178167179 ]
  - [  -0.0279730819165707, -0.0578829757869244, -0.0000479750597151 ]
  - [  -0.0259550493210554, -0.0598007068037987,  0.0013608207227662 ]
  - [  -0.0282984338700771, -0.0575177632272243,  0.0002766834804788 ]
  - [  -0.0280844606459141, -0.0576442927122116, -0.0002841504174285 ]
  - [  -0.0577220581471920,  0.0283138900995255,  0.0000403469894081 ]
  - [  -0.0572666190564632,  0.0276162251830101, -0.0000667513813823 ]
  - [  -0.0577103719115257,  0.0283005386590958,  0.0000104474602267 ]
  - [  -0.0576529279351234,  0.0281334370374680,  0.0000280379026663 ]
  - [   0.0570094995200634, -0.0260053239762783,  0.0009688020218164 ]
  - [   0.0574432760477066, -0.0294939931482077,  0.0009695299668238 ]
  - [   0.0577799864113331, -0.0281028039753437,  0.0000506132710143 ]
  - [   0.0576977804303169, -0.0281620230525732,  0.0001229994813912 ]
  - [   0.0276266951113939,  0.0577140375971794,  0.0000378359072783 ]
  - [   0.0282650440931320,  0.0581117160618305, -0.0000002027954906 ]
  - [   0.0280520524829626,  0.0575832091271877, -0.0000217752531171 ]
  - [   0.0281690508127213,  0.0576685629785061,  0.0000444222241640 ]
- atom:    1
  displacement:
    [  -0.0064352987291521, -0.0000000000476911, -0.0076542099701128 ]
  forces:
  - [  -0.0084821023046970, -0.0168141536414623,  0.0113715948536992 ]
  - [  -0.0179632622748613, -0.0166586767882109, -0.0016733598895371 ]
  - [  -0.0167827066034079, -0.0168336648494005,  0.0005224267952144 ]
  - [  -0.0180397387593985, -0.0167144145816565, -0.0016590068116784 ]
  - [  -0.0163370966911316,  0.0170843452215195,  0.0004368005320430 ]
  - [  -0.0161956865340471,  0.0167951043695211, -0.0000560134649277 ]
  - [  -0.0169141981750727,  0.0168886594474316, -0.0000455416738987 ]
  - [  -0.0162341110408306,  0.0170382857322693,  0.0000385865569115 ]
  - [   0.0169169753789902, -0.0170810203999281,  0.0004378040321171 ]
  - [   0.0167942047119141, -0.0168650876730680, -0.0001081461086869 ]
  - [   0.0168778114020824, -0.0168876163661480, -0.0000460706651211 ]
  - [   0.0170264784246683, -0.0169558078050613,  0.0000959280878305 ]
  - [   0.0172645673155785,  0.0173696279525757, -0.0000892421230674 ]
  - [   0.0176680795848370,  0.0177941694855690,  0.0006203111261129 ]
  - [   0.0168513916432858,  0.0168435201048851, -0.0000805845484138 ]
  - [   0.0167511031031609,  0.0168790630996227, -0.0001504383981228 ]
  - [  -0.0326110199093819,  0.0577378608286381, -0.0024232584983110 ]
  - [  -0.0290226787328720,  0.0573088750243187,  0.0004592693876475 ]
  - [  -0.0281310379505157,  0.0576266236603260,  0.0003891210362781 ]
  - [  -0.0280743353068829,  0.0577072091400623, -0.0005736984894611 ]
  - [   0.0277693755924702, -0.0574076622724533,  0.0000150501728058 ]
  - [   0.0284596867859364, -0.0578608438372612,  0.0000172593863681 ]
  - [   0.0280350707471371, -0.0576429441571236, -0.0000445609912276 ]
  - [   0.0282008759677410, -0.0577005892992020,  0.0000002047599992 ]
  - [   0.0571588426828384,  0.0277375280857086,  0.0000097494339570 ]
  - [   0.0577915534377098,  0.0281891487538815, -0.0000241732195718 ]
  - [   0.0577109903097153,  0.0280721783638000, -0.0000032262178138 ]
  - [   0.0575462877750397,  0.0283806789666414, -0.0000438059214503 ]
  - [  -0.0584878921508789, -0.0263397730886936, -0.0011270893737674 ]
  - [  -0.0566083826124668, -0.0283504016697407, -0.0001721922308207 ]
  - [  -0.0577745363116264, -0.0281044468283653,  0.0001566763967276 ]
  - [  -0.0576504133641720, -0.0283207036554813, -0.0001517054915894 ]
  - [   0.0007194219506346, -0.0001556765637361,  0.0005945617449470 ]
  - [  -0.0030916887335479, -0.0039268033578992, -0.0028708637692034 ]
  - [   0.0000069423986133,  0.0001061406219378, -0.0005013068439439 ]
  - [  -0.0000502075999975,  0.0000513494014740,  0.0001465683890274 ]
  - [  -0.0002949523914140, -0.0005044079152867,  0.0000121581852000 ]
  - [   0.0004680309211835,  0.0002724410442170, -0.0000962308549788 ]
  - [  -0.0001046489924192, -0.0000221090667765, -0.0000393659283873 ]
  - [   0.0000998443429125,  0.0001838413882069,  0.0001063720774255 ]
  - [  -0.0283009056001902, -0.0574178285896778,  0.0000408054038417 ]
  - [  -0.0302373189479113, -0.0555637627840042, -0.0013152555329725 ]
  - [  -0.0279705375432968, -0.0577903836965561, -0.0002627539215609 ]
  - [  -0.0281869471073151, -0.0576661229133606,  0.0002775953325909 ]
  - [  -0.0575852468609810,  0.0279655940830708, -0.0000344276195392 ]
  - [  -0.0580315664410591,  0.0286462604999542,  0.0000697911018506 ]
  - [  -0.0575970336794853,  0.0279757305979729, -0.0000125140650198 ]
  - [  -0.0576539933681488,  0.0281396210193634, -0.0000332757481374 ]
  - [   0.0583176277577877, -0.0303066857159138, -0.0009730188758112 ]
  - [   0.0578545182943344, -0.0267781633883715, -0.0009694485925138 ]
  - [   0.0575328730046749, -0.0281728021800518, -0.0000505389507452 ]
  - [   0.0576124191284180, -0.0281144194304943, -0.0001263572485186 ]
  - [   0.0286519974470139,  0.0575951933860779, -0.0000321120060107 ]
  - [   0.0280026309192181,  0.0572031885385513,  0.0000007620546967 ]
  - [   0.0282211750745773,  0.0577239729464054,  0.0000195084139705 ]
  - [   0.0281033888459206,  0.0576407276093960, -0.0000493153929710 ]
- atom:   17
  displacement:
    [   0.0064352987291521,  0.0000000000476911,  0.0076542099701128 ]
  forces:
  - [  -0.0125256292521954, -0.0164779946208000,  0.0024888198822737 ]
  - [  -0.0163678601384163, -0.0168416444212198,  0.0000499170273542 ]
  - [  -0.0174971781671047, -0.0169274900108576,  0.0001215524971485 ]
  - [  -0.0159804411232471, -0.0164880305528641, -0.0004935455508530 ]
  - [  -0.0165214743465185,  0.0171377751976252, -0.0002013654448092 ]
  - [  -0.0172682069242001,  0.0166407749056816,  0.0000757896341383 ]
  - [  -0.0166124831885099,  0.0170035883784294, -0.0000898358412087 ]
  - [  -0.0149227883666754,  0.0182406101375818,  0.0014642574824393 ]
  - [   0.0166806951165199, -0.0169306062161922,  0.0002919710241258 ]
  - [   0.0168267618864775, -0.0169036760926247, -0.0000390661880374 ]
  - [   0.0169055946171284, -0.0168805494904518,  0.0000618738122284 ]
  - [   0.0167211778461933, -0.0169997587800026, -0.0002529774792492 ]
  - [   0.0169080868363380,  0.0166563820093870, -0.0003049820661545 ]
  - [   0.0169346630573273,  0.0169585384428501,  0.0000898847356439 ]
  - [   0.0168818850070238,  0.0169794522225857, -0.0000481428578496 ]
  - [   0.0169152431190014,  0.0167819354683161,  0.0002732845023274 ]
  - [  -0.0477188900113106,  0.0547168441116810, -0.0418371856212616 ]
  - [  -0.0270904600620270,  0.0579059794545174,  0.0134156364947557 ]
  - [  -0.0283418446779251,  0.0576873719692230,  0.0024626683443785 ]
  - [  -0.0274536591023207,  0.0572446137666702,  0.0131698045879602 ]
  - [   0.0281063616275787, -0.0585598126053810, -0.0004051495343447 ]
  - [   0.0284908730536699, -0.0578604862093925,  0.0001794260460883 ]
  - [   0.0280365832149982, -0.0576976984739304,  0.0004118485376239 ]
  - [   0.0280517041683197, -0.0574073046445847, -0.0001884700031951 ]
  - [   0.0569167509675026,  0.0283221229910851,  0.0002160201547667 ]
  - [   0.0576639249920845,  0.0281437356024981, -0.0006202262011357 ]
  - [   0.0603186860680580,  0.0272701140493155,  0.0022464641369879 ]
  - [   0.0634030029177666,  0.0255200210958719,  0.0009998303139582 ]
  - [  -0.0560748018324375, -0.0254178978502750,  0.0009870035573840 ]
  - [  -0.0565838217735291, -0.0265382099896669,  0.0017220675945282 ]
  - [  -0.0576726123690605, -0.0281501561403275, -0.0006138319149613 ]
  - [  -0.0582047700881958, -0.0290101207792759,  0.0007996300701052 ]
  - [   0.0002616382553242, -0.0000142013013829, -0.0003093872219324 ]
  - [  -0.0005123944720253,  0.0000261755485553, -0.0000414341920987 ]
  - [   0.0001609788159840, -0.0000448354112450,  0.0003113248385489 ]
  - [  -0.0002423310652375,  0.0000306665897369, -0.0000320843246300 ]
  - [  -0.0000585325178690,  0.0019656089134514,  0.0009179003536701 ]
  - [   0.0002115833049174, -0.0011980523122475,  0.0008648595539853 ]
  - [  -0.0000812924990896, -0.0000138292234624, -0.0005372587474994 ]
  - [   0.0004160650423728,  0.0016365367919207,  0.0017621220322326 ]
  - [  -0.0276292543858290, -0.0571147911250591, -0.0002329416020075 ]
  - [  -0.0286133177578449, -0.0578394010663033, -0.0000330166658387 ]
  - [  -0.0279964841902256, -0.0575558841228485,  0.0003110547550023 ]
  - [  -0.0285089947283268, -0.0578871816396713, -0.0001194270371343 ]
  - [  -0.0577296800911427,  0.0281677506864071, -0.0001749896910042 ]
  - [  -0.0574489608407021,  0.0281197521835566,  0.0000239178771153 ]
  - [  -0.0576112642884254,  0.0281338356435299,  0.0002115484094247 ]
  - [  -0.0579135343432426,  0.0279923435300589, -0.0000867530761752 ]
  - [   0.0584694780409336, -0.0287240669131279,  0.0009563915664330 ]
  - [   0.0576858110725880, -0.0282646007835865,  0.0003390940837562 ]
  - [   0.0576280504465103, -0.0281255356967449, -0.0004971751477569 ]
  - [   0.0578994974493980, -0.0278491955250502, -0.0000712445034878 ]
  - [   0.0284615755081177,  0.0574164763092995, -0.0002362150698900 ]
  - [   0.0278427097946405,  0.0577937960624695, -0.0001474939053878 ]
  - [   0.0282052550464869,  0.0576258674263954,  0.0002520382404327 ]
  - [   0.0281782578676939,  0.0576043128967285,  0.0001361956819892 ]
- atom:   17
  displacement:
    [  -0.0064352987291521, -0.0000000000476911, -0.0076542099701128 ]
  forces:
  - [  -0.0211875960230827, -0.0172720998525620, -0.0024009253829718 ]
  - [  -0.0174306072294712, -0.0169419161975384, -0.0000760057009757 ]
  - [  -0.0162993371486664, -0.0168508235365152, -0.0001034014858305 ]
  - [  -0.0179029516875744, -0.0172773040831089,  0.0005150116048753 ]
  - [  -0.0171838216483593,  0.0167029239237309,  0.0001671961508691 ]
  - [  -0.0165010299533606,  0.0171497240662575, -0.0000939052551985 ]
  - [  -0.0171547252684832,  0.0167910456657410,  0.0001025004312396 ]
  - [  -0.0188731998205185,  0.0155530218034983, -0.0014914488419890 ]
  - [   0.0171046406030655, -0.0168430656194687, -0.0002831271849573 ]
  - [   0.0169582441449165, -0.0168702621012926,  0.0000332538038492 ]
  - [   0.0168772079050541, -0.0168974809348583, -0.0000633024610579 ]
  - [   0.0170597936958075, -0.0167803894728422,  0.0002535837702453 ]
  - [   0.0168742407113314,  0.0171226002275944,  0.0003054207190871 ]
  - [   0.0168446488678455,  0.0168218668550253, -0.0000913031399250 ]
  - [   0.0168988779187202,  0.0167969893664122,  0.0000481056049466 ]
  - [   0.0168691463768482,  0.0169965475797653, -0.0002750381827354 ]
  - [  -0.0085354894399643,  0.0606149435043335,  0.0416578277945518 ]
  - [  -0.0292099807411432,  0.0573954731225967, -0.0128459362313151 ]
  - [  -0.0279279872775078,  0.0576267056167126, -0.0024647186510265 ]
  - [  -0.0287893321365118,  0.0580408535897732, -0.0137537075206637 ]
  - [   0.0281630754470825, -0.0567610971629620,  0.0004125945270061 ]
  - [   0.0277764275670052, -0.0574520863592625, -0.0001853224821389 ]
  - [   0.0282356999814510, -0.0576128810644150, -0.0004138192161918 ]
  - [   0.0282228663563728, -0.0579036362469196,  0.0001910082355607 ]
  - [   0.0583915486931801,  0.0279441922903061, -0.0002254683058709 ]
  - [   0.0576464124023914,  0.0281240958720446,  0.0006129313260317 ]
  - [   0.0549145564436913,  0.0290365032851696, -0.0023168844636530 ]
  - [   0.0516641885042191,  0.0308573357760906, -0.0009812543867156 ]
  - [  -0.0591543391346931, -0.0307568684220314, -0.0009942864999175 ]
  - [  -0.0586930587887764, -0.0296850688755512, -0.0016826968640089 ]
  - [  -0.0576418153941631, -0.0281306020915508,  0.0006186245009303 ]
  - [  -0.0570904165506363, -0.0272513329982758, -0.0008021977846511 ]
  - [  -0.0003732092736755, -0.0000145867234096,  0.0003152823774144 ]
  - [   0.0005149669013917, -0.0000277714279946,  0.0000388002081309 ]
  - [  -0.0001606927544344,  0.0000478401198052, -0.0003115106082987 ]
  - [   0.0002382276579738, -0.0000272430479527,  0.0000315965153277 ]
  - [   0.0000459324364783, -0.0020216093398631, -0.0009126030490734 ]
  - [  -0.0002265343064209,  0.0011761474888772, -0.0008599861757830 ]
  - [   0.0000813137448858,  0.0000226084302994,  0.0005378496134654 ]
  - [  -0.0004138387739658, -0.0016668381867930, -0.0017822427907959 ]
  - [  -0.0286319945007563, -0.0581942796707153,  0.0002362008672208 ]
  - [  -0.0276503711938858, -0.0574538484215736,  0.0000284288544208 ]
  - [  -0.0282747633755207, -0.0577533245086670, -0.0003112617414445 ]
  - [  -0.0277583189308643, -0.0574217736721039,  0.0001201948180096 ]
  - [  -0.0575740523636341,  0.0281096324324608,  0.0001792476978153 ]
  - [  -0.0578539744019508,  0.0281508266925812, -0.0000238312641159 ]
  - [  -0.0576927587389946,  0.0281392298638821, -0.0002127031330019 ]
  - [  -0.0573892518877983,  0.0282825902104378,  0.0000838350388221 ]
  - [   0.0569230727851391, -0.0276647955179214, -0.0009562844643369 ]
  - [   0.0577770732343197, -0.0281685926020145, -0.0001239220146090 ]
  - [   0.0576805658638477, -0.0281513631343842,  0.0005087170284241 ]
  - [   0.0574182868003845, -0.0284435823559761,  0.0000472111278214 ]
  - [   0.0278065297752619,  0.0579003989696503,  0.0002381252124906 ]
  - [   0.0284306704998016,  0.0575045868754387,  0.0001455412711948 ]
  - [   0.0280660241842270,  0.0576823465526104, -0.0002513462677598 ]
  - [   0.0280911996960640,  0.0577054210007191, -0.0001386748626828 ]
- atom:   17
  displacement:
    [  -0.0000000005900706,  0.0100000000000000,  0.0000000000000000 ]
  forces:
  - [  -0.0167570710182190, -0.0175421498715878, -0.0003188624978065 ]
  - [  -0.0169086642563343, -0.0167609304189682, -0.0000583082437515 ]
  - [  -0.0169100575149059, -0.0167597979307175,  0.0000551245175302 ]
  - [  -0.0167580880224705, -0.0175411254167557,  0.0003220657818019 ]
  - [  -0.0150438565760851,  0.0167388208210468, -0.0012426823377609 ]
  - [  -0.0170020870864391,  0.0169801265001297,  0.0000776471570134 ]
  - [  -0.0170022714883089,  0.0169806182384491, -0.0000792788341641 ]