phonopy:
  version: "2.37.1"
  frequency_unit_conversion_factor: 15.633302
  symmetry_tolerance: 1.00000e-05

space_group:
  type: "P1"
  number: 1
  Hall_symbol: "P 1"

primitive_matrix:
- [  1.000000000000000,  0.000000000000000,  0.000000000000000 ]
- [  0.000000000000000,  1.000000000000000, -0.000000000000000 ]
- [  0.000000000000000,  0.000000000000000,  1.000000000000000 ]

supercell_matrix:
- [   3,   0,   0 ]
- [   0,   2,   0 ]
- [   0,   0,   2 ]

primitive_cell:
  lattice:
  - [     4.744340194479038,     0.000000000000000,     0.000000000000000 ] # a
  - [     2.371967085970505,     4.953370975224280,     0.000000000000000 ] # b
  - [     2.371543259567059,     0.002049419257825,     7.124801300775233 ] # c
  points:
  - symbol: Li # 1
    coordinates: [  0.552840106976093,  0.756496177808342,  0.332626810138032 ]
    mass: 6.940000
  - symbol: Li # 2
    coordinates: [  0.227551188095851,  0.130635901739598,  0.609358374527349 ]
    mass: 6.940000
  - symbol: Li # 3
    coordinates: [  0.504536557022636,  0.130248799879738,  0.055736607763208 ]
    mass: 6.940000
  - symbol: Li # 4
    coordinates: [  0.192378732250396,  0.826633245976644,  0.983282469967932 ]
    mass: 6.940000
  - symbol: Li # 5
    coordinates: [  0.179332999013310,  0.504002207668717,  0.331991024148108 ]
    mass: 6.940000
  - symbol: Li # 6
    coordinates: [  0.888314460915808,  0.434665707981310,  0.983651816498305 ]
    mass: 6.940000
  - symbol: Li # 7
    coordinates: [  0.539201553724392,  0.434438159331137,  0.682433701582100 ]
    mass: 6.940000
  - symbol: Li # 8
    coordinates: [  0.843588212405455,  0.825600757005522,  0.682267334317772 ]
    mass: 6.940000
  - symbol: Sn # 9
    coordinates: [  0.865896430516373,  0.130156295480705,  0.332892532669959 ]
    mass: 118.710000
  reciprocal_lattice: # without 2pi
  - [     0.210777465149673,    -0.100932720827897,    -0.070129818669913 ] # a*
  - [     0.000000000000000,     0.201882718859902,    -0.000058070718661 ] # b*
  - [     0.000000000000000,     0.000000000000000,     0.140354791352735 ] # c*

unit_cell:
  lattice:
  - [     4.744340194479038,     0.000000000000000,     0.000000000000000 ] # a
  - [     2.371967085970505,     4.953370975224281,     0.000000000000000 ] # b
  - [     2.371543259567058,     0.002049419257825,     7.124801300775233 ] # c
  points:
  - symbol: Li # 1
    coordinates: [  0.552840106976093,  0.756496177808342,  0.332626810138032 ]
    mass: 6.940000
    reduced_to: 1
  - symbol: Li # 2
    coordinates: [  0.227551188095851,  0.130635901739598,  0.609358374527349 ]
    mass: 6.940000
    reduced_to: 2
  - symbol: Li # 3
    coordinates: [  0.504536557022636,  0.130248799879738,  0.055736607763208 ]
    mass: 6.940000
    reduced_to: 3
  - symbol: Li # 4
    coordinates: [  0.192378732250396,  0.826633245976644,  0.983282469967932 ]
    mass: 6.940000
    reduced_to: 4
  - symbol: Li # 5
    coordinates: [  0.179332999013310,  0.504002207668717,  0.331991024148108 ]
    mass: 6.940000
    reduced_to: 5
  - symbol: Li # 6
    coordinates: [  0.888314460915808,  0.434665707981310,  0.983651816498305 ]
    mass: 6.940000
    reduced_to: 6
  - symbol: Li # 7
    coordinates: [  0.539201553724392,  0.434438159331137,  0.682433701582100 ]
    mass: 6.940000
    reduced_to: 7
  - symbol: Li # 8
    coordinates: [  0.843588212405455,  0.825600757005521,  0.682267334317772 ]
    mass: 6.940000
    reduced_to: 8
  - symbol: Sn # 9
    coordinates: [  0.865896430516373,  0.130156295480705,  0.332892532669959 ]
    mass: 118.710000
    reduced_to: 9

supercell:
  lattice:
  - [    14.233020583437115,     0.000000000000000,     0.000000000000000 ] # a
  - [     4.743934171941010,     9.906741950448563,     0.000000000000000 ] # b
  - [     4.743086519134117,     0.004098838515651,    14.249602601550466 ] # c
  points:
  - symbol: Li # 1
    coordinates: [  0.184280035658698,  0.378248088904171,  0.166313405069016 ]
    mass: 6.940000
    reduced_to: 1
  - symbol: Li # 2
    coordinates: [  0.517613368992031,  0.378248088904171,  0.166313405069016 ]
    mass: 6.940000
    reduced_to: 1
  - symbol: Li # 3
    coordinates: [  0.850946702325364,  0.378248088904171,  0.166313405069016 ]
    mass: 6.940000
    reduced_to: 1
  - symbol: Li # 4
    coordinates: [  0.184280035658698,  0.878248088904171,  0.166313405069016 ]
    mass: 6.940000
    reduced_to: 1
  - symbol: Li # 5
    coordinates: [  0.517613368992031,  0.878248088904171,  0.166313405069016 ]
    mass: 6.940000
    reduced_to: 1
  - symbol: Li # 6
    coordinates: [  0.850946702325364,  0.878248088904171,  0.166313405069016 ]
    mass: 6.940000
    reduced_to: 1
  - symbol: Li # 7
    coordinates: [  0.184280035658698,  0.378248088904171,  0.666313405069016 ]
    mass: 6.940000
    reduced_to: 1
  - symbol: Li # 8
    coordinates: [  0.517613368992031,  0.378248088904171,  0.666313405069016 ]
    mass: 6.940000
    reduced_to: 1
  - symbol: Li # 9
    coordinates: [  0.850946702325364,  0.378248088904171,  0.666313405069016 ]
    mass: 6.940000
    reduced_to: 1
  - symbol: Li # 10
    coordinates: [  0.184280035658698,  0.878248088904171,  0.666313405069016 ]
    mass: 6.940000
    reduced_to: 1
  - symbol: Li # 11
    coordinates: [  0.517613368992031,  0.878248088904171,  0.666313405069016 ]
    mass: 6.940000
    reduced_to: 1
  - symbol: Li # 12
    coordinates: [  0.850946702325364,  0.878248088904171,  0.666313405069016 ]
    mass: 6.940000
    reduced_to: 1
  - symbol: Li # 13
    coordinates: [  0.075850396031950,  0.065317950869799,  0.304679187263675 ]
    mass: 6.940000
    reduced_to: 13
  - symbol: Li # 14
    coordinates: [  0.409183729365284,  0.065317950869799,  0.304679187263675 ]
    mass: 6.940000
    reduced_to: 13
  - symbol: Li # 15
    coordinates: [  0.742517062698617,  0.065317950869799,  0.304679187263675 ]
    mass: 6.940000
    reduced_to: 13
  - symbol: Li # 16
    coordinates: [  0.075850396031950,  0.565317950869799,  0.304679187263675 ]
    mass: 6.940000
    reduced_to: 13
  - symbol: Li # 17
    coordinates: [  0.409183729365284,  0.565317950869799,  0.304679187263675 ]
    mass: 6.940000
    reduced_to: 13
  - symbol: Li # 18
    coordinates: [  0.742517062698617,  0.565317950869799,  0.304679187263675 ]
    mass: 6.940000
    reduced_to: 13
  - symbol: Li # 19
    coordinates: [  0.075850396031950,  0.065317950869799,  0.804679187263675 ]
    mass: 6.940000
    reduced_to: 13
  - symbol: Li # 20
    coordinates: [  0.409183729365284,  0.065317950869799,  0.804679187263675 ]
    mass: 6.940000
    reduced_to: 13
  - symbol: Li # 21
    coordinates: [  0.742517062698617,  0.065317950869799,  0.804679187263675 ]
    mass: 6.940000
    reduced_to: 13
  - symbol: Li # 22
    coordinates: [  0.075850396031950,  0.565317950869799,  0.804679187263675 ]
    mass: 6.940000
    reduced_to: 13
  - symbol: Li # 23
    coordinates: [  0.409183729365284,  0.565317950869799,  0.804679187263675 ]
    mass: 6.940000
    reduced_to: 13
  - symbol: Li # 24
    coordinates: [  0.742517062698617,  0.565317950869799,  0.804679187263675 ]
    mass: 6.940000
    reduced_to: 13
  - symbol: Li # 25
    coordinates: [  0.168178852340879,  0.065124399939869,  0.027868303881604 ]
    mass: 6.940000
    reduced_to: 25
  - symbol: Li # 26
    coordinates: [  0.501512185674212,  0.065124399939869,  0.027868303881604 ]
    mass: 6.940000
    reduced_to: 25
  - symbol: Li # 27
    coordinates: [  0.834845519007545,  0.065124399939869,  0.027868303881604 ]
    mass: 6.940000
    reduced_to: 25
  - symbol: Li # 28
    coordinates: [  0.168178852340879,  0.565124399939869,  0.027868303881604 ]
    mass: 6.940000
    reduced_to: 25
  - symbol: Li # 29
    coordinates: [  0.501512185674212,  0.565124399939869,  0.027868303881604 ]
    mass: 6.940000
    reduced_to: 25
  - symbol: Li # 30
    coordinates: [  0.834845519007545,  0.565124399939869,  0.027868303881604 ]
    mass: 6.940000
    reduced_to: 25
  - symbol: Li # 31
    coordinates: [  0.168178852340879,  0.065124399939869,  0.527868303881604 ]
    mass: 6.940000
    reduced_to: 25
  - symbol: Li # 32
    coordinates: [  0.501512185674212,  0.065124399939869,  0.527868303881604 ]
    mass: 6.940000
    reduced_to: 25
  - symbol: Li # 33
    coordinates: [  0.834845519007545,  0.065124399939869,  0.527868303881604 ]
    mass: 6.940000
    reduced_to: 25
  - symbol: Li # 34
    coordinates: [  0.168178852340879,  0.565124399939869,  0.527868303881604 ]
    mass: 6.940000
    reduced_to: 25
  - symbol: Li # 35
    coordinates: [  0.501512185674212,  0.565124399939869,  0.527868303881604 ]
    mass: 6.940000
    reduced_to: 25
  - symbol: Li # 36
    coordinates: [  0.834845519007545,  0.565124399939869,  0.527868303881604 ]
    mass: 6.940000
    reduced_to: 25
  - symbol: Li # 37
    coordinates: [  0.064126244083465,  0.413316622988322,  0.491641234983966 ]
    mass: 6.940000
    reduced_to: 37
  - symbol: Li # 38
    coordinates: [  0.397459577416799,  0.413316622988322,  0.491641234983966 ]
    mass: 6.940000
    reduced_to: 37
  - symbol: Li # 39
    coordinates: [  0.730792910750132,  0.413316622988322,  0.491641234983966 ]
    mass: 6.940000
    reduced_to: 37
  - symbol: Li # 40
    coordinates: [  0.064126244083465,  0.913316622988322,  0.491641234983966 ]
    mass: 6.940000
    reduced_to: 37
  - symbol: Li # 41
    coordinates: [  0.397459577416799,  0.913316622988322,  0.491641234983966 ]
    mass: 6.940000
    reduced_to: 37
  - symbol: Li # 42
    coordinates: [  0.730792910750132,  0.913316622988322,  0.491641234983966 ]
    mass: 6.940000
    reduced_to: 37
  - symbol: Li # 43
    coordinates: [  0.064126244083465,  0.413316622988322,  0.991641234983966 ]
    mass: 6.940000
    reduced_to: 37
  - symbol: Li # 44
    coordinates: [  0.397459577416799,  0.413316622988322,  0.991641234983966 ]
    mass: 6.940000
    reduced_to: 37
  - symbol: Li # 45
    coordinates: [  0.730792910750132,  0.413316622988322,  0.991641234983966 ]
    mass: 6.940000
    reduced_to: 37
  - symbol: Li # 46
    coordinates: [  0.064126244083465,  0.913316622988322,  0.991641234983966 ]
    mass: 6.940000
    reduced_to: 37
  - symbol: Li # 47
    coordinates: [  0.397459577416799,  0.913316622988322,  0.991641234983966 ]
    mass: 6.940000
    reduced_to: 37
  - symbol: Li # 48
    coordinates: [  0.730792910750132,  0.913316622988322,  0.991641234983966 ]
    mass: 6.940000
    reduced_to: 37
  - symbol: Li # 49
    coordinates: [  0.059777666337770,  0.252001103834358,  0.165995512074054 ]
    mass: 6.940000
    reduced_to: 49
  - symbol: Li # 50
    coordinates: [  0.393110999671103,  0.252001103834358,  0.165995512074054 ]
    mass: 6.940000
    reduced_to: 49
  - symbol: Li # 51
    coordinates: [  0.726444333004437,  0.252001103834358,  0.165995512074054 ]
    mass: 6.940000
    reduced_to: 49
  - symbol: Li # 52
    coordinates: [  0.059777666337770,  0.752001103834358,  0.165995512074054 ]
    mass: 6.940000
    reduced_to: 49
  - symbol: Li # 53
    coordinates: [  0.393110999671103,  0.752001103834358,  0.165995512074054 ]
    mass: 6.940000
    reduced_to: 49
  - symbol: Li # 54
    coordinates: [  0.726444333004437,  0.752001103834358,  0.165995512074054 ]
    mass: 6.940000
    reduced_to: 49
  - symbol: Li # 55
    coordinates: [  0.059777666337770,  0.252001103834358,  0.665995512074054 ]
    mass: 6.940000
    reduced_to: 49
  - symbol: Li # 56
    coordinates: [  0.393110999671103,  0.252001103834358,  0.665995512074054 ]
    mass: 6.940000
    reduced_to: 49
  - symbol: Li # 57
    coordinates: [  0.726444333004437,  0.252001103834358,  0.665995512074054 ]
    mass: 6.940000
    reduced_to: 49
  - symbol: Li # 58
    coordinates: [  0.059777666337770,  0.752001103834358,  0.665995512074054 ]
    mass: 6.940000
    reduced_to: 49
  - symbol: Li # 59
    coordinates: [  0.393110999671103,  0.752001103834358,  0.665995512074054 ]
    mass: 6.940000
    reduced_to: 49
  - symbol: Li # 60
    coordinates: [  0.726444333004437,  0.752001103834358,  0.665995512074054 ]
    mass: 6.940000
    reduced_to: 49
  - symbol: Li # 61
    coordinates: [  0.296104820305269,  0.217332853990655,  0.491825908249153 ]
    mass: 6.940000
    reduced_to: 61
  - symbol: Li # 62
    coordinates: [  0.629438153638603,  0.217332853990655,  0.491825908249153 ]
    mass: 6.940000
    reduced_to: 61
  - symbol: Li # 63
    coordinates: [  0.962771486971936,  0.217332853990655,  0.491825908249153 ]
    mass: 6.940000
    reduced_to: 61
  - symbol: Li # 64
    coordinates: [  0.296104820305269,  0.717332853990655,  0.491825908249153 ]
    mass: 6.940000
    reduced_to: 61
  - symbol: Li # 65
    coordinates: [  0.629438153638603,  0.717332853990655,  0.491825908249153 ]
    mass: 6.940000
    reduced_to: 61
  - symbol: Li # 66
    coordinates: [  0.962771486971936,  0.717332853990655,  0.491825908249153 ]
    mass: 6.940000
    reduced_to: 61
  - symbol: Li # 67
    coordinates: [  0.296104820305269,  0.217332853990655,  0.991825908249153 ]
    mass: 6.940000
    reduced_to: 61
  - symbol: Li # 68
    coordinates: [  0.629438153638603,  0.217332853990655,  0.991825908249153 ]
    mass: 6.940000
    reduced_to: 61
  - symbol: Li # 69
    coordinates: [  0.962771486971936,  0.217332853990655,  0.991825908249153 ]
    mass: 6.940000
    reduced_to: 61
  - symbol: Li # 70
    coordinates: [  0.296104820305269,  0.717332853990655,  0.991825908249153 ]
    mass: 6.940000
    reduced_to: 61
  - symbol: Li # 71
    coordinates: [  0.629438153638603,  0.717332853990655,  0.991825908249153 ]
    mass: 6.940000
    reduced_to: 61
  - symbol: Li # 72
    coordinates: [  0.962771486971936,  0.717332853990655,  0.991825908249153 ]
    mass: 6.940000
    reduced_to: 61
  - symbol: Li # 73
    coordinates: [  0.179733851241464,  0.217219079665569,  0.341216850791050 ]
    mass: 6.940000
    reduced_to: 73
  - symbol: Li # 74
    coordinates: [  0.513067184574797,  0.217219079665569,  0.341216850791050 ]
    mass: 6.940000
    reduced_to: 73
  - symbol: Li # 75
    coordinates: [  0.846400517908131,  0.217219079665569,  0.341216850791050 ]
    mass: 6.940000
    reduced_to: 73
  - symbol: Li # 76
    coordinates: [  0.179733851241464,  0.717219079665569,  0.341216850791050 ]
    mass: 6.940000
    reduced_to: 73
  - symbol: Li # 77
    coordinates: [  0.513067184574797,  0.717219079665569,  0.341216850791050 ]
    mass: 6.940000
    reduced_to: 73
  - symbol: Li # 78
    coordinates: [  0.846400517908131,  0.717219079665569,  0.341216850791050 ]
    mass: 6.940000
    reduced_to: 73
  - symbol: Li # 79
    coordinates: [  0.179733851241464,  0.217219079665569,  0.841216850791050 ]
    mass: 6.940000
    reduced_to: 73
  - symbol: Li # 80
    coordinates: [  0.513067184574797,  0.217219079665569,  0.841216850791050 ]
    mass: 6.940000
    reduced_to: 73
  - symbol: Li # 81
    coordinates: [  0.846400517908131,  0.217219079665569,  0.841216850791050 ]
    mass: 6.940000
    reduced_to: 73
  - symbol: Li # 82
    coordinates: [  0.179733851241464,  0.717219079665569,  0.841216850791050 ]
    mass: 6.940000
    reduced_to: 73
  - symbol: Li # 83
    coordinates: [  0.513067184574797,  0.717219079665569,  0.841216850791050 ]
    mass: 6.940000
    reduced_to: 73
  - symbol: Li # 84
    coordinates: [  0.846400517908131,  0.717219079665569,  0.841216850791050 ]
    mass: 6.940000
    reduced_to: 73
  - symbol: Li # 85
    coordinates: [  0.281196070801818,  0.412800378502761,  0.341133667158886 ]
    mass: 6.940000
    reduced_to: 85
  - symbol: Li # 86
    coordinates: [  0.614529404135152,  0.412800378502761,  0.341133667158886 ]
    mass: 6.940000
    reduced_to: 85
  - symbol: Li # 87
    coordinates: [  0.947862737468485,  0.412800378502761,  0.341133667158886 ]
    mass: 6.940000
    reduced_to: 85
  - symbol: Li # 88
    coordinates: [  0.281196070801818,  0.912800378502761,  0.341133667158886 ]
    mass: 6.940000
    reduced_to: 85
  - symbol: Li # 89
    coordinates: [  0.614529404135152,  0.912800378502761,  0.341133667158886 ]
    mass: 6.940000
    reduced_to: 85
  - symbol: Li # 90
    coordinates: [  0.947862737468485,  0.912800378502761,  0.341133667158886 ]
    mass: 6.940000
    reduced_to: 85
  - symbol: Li # 91
    coordinates: [  0.281196070801818,  0.412800378502761,  0.841133667158886 ]
    mass: 6.940000
    reduced_to: 85
  - symbol: Li # 92
    coordinates: [  0.614529404135152,  0.412800378502761,  0.841133667158886 ]
    mass: 6.940000
    reduced_to: 85
  - symbol: Li # 93
    coordinates: [  0.947862737468485,  0.412800378502761,  0.841133667158886 ]
    mass: 6.940000
    reduced_to: 85
  - symbol: Li # 94
    coordinates: [  0.281196070801818,  0.912800378502761,  0.841133667158886 ]
    mass: 6.940000
    reduced_to: 85
  - symbol: Li # 95
    coordinates: [  0.614529404135152,  0.912800378502761,  0.841133667158886 ]
    mass: 6.940000
    reduced_to: 85
  - symbol: Li # 96
    coordinates: [  0.947862737468485,  0.912800378502761,  0.841133667158886 ]
    mass: 6.940000
    reduced_to: 85
  - symbol: Sn # 97
    coordinates: [  0.288632143505458,  0.065078147740352,  0.166446266334979 ]
    mass: 118.710000
    reduced_to: 97
  - symbol: Sn # 98
    coordinates: [  0.621965476838791,  0.065078147740352,  0.166446266334979 ]
    mass: 118.710000
    reduced_to: 97
  - symbol: Sn # 99
    coordinates: [  0.955298810172124,  0.065078147740352,  0.166446266334979 ]
    mass: 118.710000
    reduced_to: 97
  - symbol: Sn # 100
    coordinates: [  0.288632143505458,  0.565078147740352,  0.166446266334979 ]
    mass: 118.710000
    reduced_to: 97
  - symbol: Sn # 101
    coordinates: [  0.621965476838791,  0.565078147740352,  0.166446266334979 ]
    mass: 118.710000
    reduced_to: 97
  - symbol: Sn # 102
    coordinates: [  0.955298810172124,  0.565078147740352,  0.166446266334979 ]
    mass: 118.710000
    reduced_to: 97
  - symbol: Sn # 103
    coordinates: [  0.288632143505458,  0.065078147740352,  0.666446266334979 ]
    mass: 118.710000
    reduced_to: 97
  - symbol: Sn # 104
    coordinates: [  0.621965476838791,  0.065078147740352,  0.666446266334979 ]
    mass: 118.710000
    reduced_to: 97
  - symbol: Sn # 105
    coordinates: [  0.955298810172124,  0.065078147740352,  0.666446266334979 ]
    mass: 118.710000
    reduced_to: 97
  - symbol: Sn # 106
    coordinates: [  0.288632143505458,  0.565078147740352,  0.666446266334979 ]
    mass: 118.710000
    reduced_to: 97
  - symbol: Sn # 107
    coordinates: [  0.621965476838791,  0.565078147740352,  0.666446266334979 ]
    mass: 118.710000
    reduced_to: 97
  - symbol: Sn # 108
    coordinates: [  0.955298810172124,  0.565078147740352,  0.666446266334979 ]
    mass: 118.710000
    reduced_to: 97

displacements:
- atom:    1
  displacement:
    [   0.0100000000000000,  0.0000000000000000,  0.0000000000000000 ]
  forces:
  - [  -0.0187319181859493, -0.0123635679483414,  0.0031843390315771 ]
  - [  -0.0003948798403144, -0.0122661441564560,  0.0031839064322412 ]
  - [  -0.0003931606188416, -0.0123935118317604,  0.0031819969881326 ]
  - [  -0.0000216689222725, -0.0126689746975899,  0.0031836689449847 ]
  - [  -0.0002439208910801, -0.0124618634581566,  0.0031830258667469 ]
  - [  -0.0002464175922796, -0.0118703767657280,  0.0031826640479267 ]
  - [  -0.0004172588232905, -0.0123306401073933,  0.0031851960811764 ]
  - [  -0.0004190442850813, -0.0123317986726761,  0.0031811103690416 ]
  - [  -0.0004199265968055, -0.0123309046030045,  0.0031808130443096 ]
  - [  -0.0004177219234407, -0.0123302713036537,  0.0031834819819778 ]
  - [  -0.0004189084575046, -0.0123307555913925,  0.0031825713813305 ]
  - [  -0.0004159425152466, -0.0123310126364231,  0.0031831329688430 ]
  - [  -0.0001357290602755, -0.0014623705064878, -0.0168212205171585 ]
  - [  -0.0001418329775333, -0.0006701779784635, -0.0169996619224548 ]
  - [   0.0000683106482029, -0.0010416503064334, -0.0168945044279099 ]
  - [  -0.0009098672308028, -0.0010762093588710, -0.0169061999768019 ]
  - [   0.0000352966599166, -0.0008631420205347, -0.0170771684497595 ]
  - [   0.0000375835224986, -0.0012547264341265, -0.0167352091521025 ]
  - [   0.0000379858538508, -0.0010582737158984, -0.0168913695961237 ]
  - [   0.0000132597051561, -0.0010593793122098, -0.0169043727219105 ]
  - [   0.0000380775891244, -0.0010629538446665, -0.0169149693101645 ]
  - [   0.0000341949853464, -0.0010644019348547, -0.0169088691473007 ]
  - [   0.0000360502090189, -0.0010547005804256, -0.0168983470648527 ]
  - [   0.0000306520378217, -0.0010597556829453, -0.0169036481529474 ]
  - [  -0.0011373823508620, -0.0015815119259059,  0.0186843965202570 ]
  - [  -0.0011440054513514, -0.0007945162942633,  0.0188586264848709 ]
  - [  -0.0009344932623208, -0.0011640040902421,  0.0187542475759983 ]
  - [  -0.0019111027941108, -0.0011977024842054,  0.0187656078487635 ]
  - [  -0.0009624804370105, -0.0009857218246907,  0.0189358610659838 ]
  - [  -0.0009611831046641, -0.0013761097798124,  0.0185974631458521 ]
  - [  -0.0009892419911921, -0.0011810648720711,  0.0187651198357344 ]
  - [  -0.0009638522751629, -0.0011842411477119,  0.0187766365706921 ]
  - [  -0.0009636618196964, -0.0011789895361289,  0.0187529232352972 ]
  - [  -0.0009655910544097, -0.0011768101248890,  0.0187606848776340 ]
  - [  -0.0009695212356746, -0.0011814893223345,  0.0187646225094795 ]
  - [  -0.0009647915139794, -0.0011859054211527,  0.0187707934528589 ]
  - [   0.0010554501786828,  0.0076697785407305, -0.0397595725953579 ]
  - [   0.0010137138888240,  0.0076705347746611, -0.0397672243416309 ]
  - [   0.0010130180744454,  0.0076678041368723, -0.0397532358765602 ]
  - [   0.0010197479277849,  0.0076868645846844, -0.0397463738918304 ]
  - [   0.0010197644587606,  0.0076687317341566, -0.0397607684135437 ]
  - [   0.0010157278738916,  0.0076531320810318, -0.0397751629352570 ]
  - [   0.0014301161281765,  0.0076411515474319, -0.0395783036947250 ]
  - [   0.0014363578520715,  0.0076984986662865, -0.0399377346038818 ]
  - [   0.0010124491527677,  0.0076692178845406, -0.0397609397768974 ]
  - [   0.0010223146528006,  0.0076984800398350, -0.0397332683205605 ]
  - [   0.0009674996254034,  0.0076578427106142, -0.0397453196346760 ]
  - [   0.0010225415462628,  0.0076504778116941, -0.0398033782839775 ]
  - [   0.0063858856447041,  0.0171408280730247,  0.0047580990940332 ]
  - [   0.0065363836474717,  0.0094001777470112,  0.0047475332394242 ]
  - [   0.0007033850997686,  0.0133283101022243,  0.0047537460923195 ]
  - [   0.0006449812790379,  0.0133387744426727,  0.0047532161697745 ]
  - [  -0.0001518949866295,  0.0128776095807552,  0.0047553014010191 ]
  - [  -0.0000768130412325,  0.0137819498777390,  0.0047507924027741 ]
  - [   0.0006195494788699,  0.0133280642330647,  0.0047524911351502 ]
  - [   0.0006201859796420,  0.0133269540965557,  0.0047524240799248 ]
  - [   0.0006197648472153,  0.0133285745978355,  0.0047535160556436 ]
  - [   0.0006172321736813,  0.0133282504975796,  0.0047634802758694 ]
  - [   0.0006195725873113,  0.0133288502693176,  0.0047471630387008 ]
  - [   0.0006189877167344,  0.0133268944919109,  0.0047475583851337 ]
  - [  -0.0000350524205714, -0.0083287656307220, -0.0406981185078621 ]
  - [  -0.0000192910665646, -0.0082959253340960, -0.0407169088721275 ]
  - [  -0.0000354959629476, -0.0082634240388870, -0.0407343469560146 ]
  - [  -0.0000241109864874, -0.0082980152219534, -0.0407243967056274 ]
  - [  -0.0000245945957431, -0.0082919485867023, -0.0407108739018440 ]
  - [  -0.0000340492988471, -0.0082977991551161, -0.0407154746353626 ]
  - [  -0.0001774199190550, -0.0082791093736887, -0.0406949333846569 ]
  - [  -0.0000197174376808, -0.0082638319581747, -0.0407617427408695 ]
  - [  -0.0000190866994672, -0.0083276592195034, -0.0406724065542221 ]
  - [   0.0000259894659393, -0.0083746295422316, -0.0404666699469090 ]
  - [  -0.0000454780602013, -0.0082984026521444, -0.0407172404229641 ]
  - [   0.0000225421972573, -0.0082179903984070, -0.0409656763076782 ]
  - [  -0.0008420690428466, -0.0093736816197634,  0.0363693907856941 ]
  - [  -0.0006935691926628, -0.0093575455248356,  0.0364359728991985 ]
  - [  -0.0006925865309313, -0.0094221103936434,  0.0363456644117832 ]
  - [  -0.0006439024000429, -0.0094694308936596,  0.0361371971666813 ]
  - [  -0.0007119825459085, -0.0093899667263031,  0.0363907292485237 ]
  - [  -0.0006473731482401, -0.0093082841485739,  0.0366409942507744 ]
  - [  -0.0007079744245857, -0.0093568973243237,  0.0364091135561466 ]
  - [  -0.0007081195362844, -0.0094229057431221,  0.0363738089799881 ]
  - [  -0.0006923879263923, -0.0093894787132740,  0.0363926775753498 ]
  - [  -0.0007046569953673, -0.0093910265713930,  0.0363909155130386 ]
  - [  -0.0006972929113545, -0.0093919076025486,  0.0363996624946594 ]
  - [  -0.0006947967922315, -0.0093857422471046,  0.0363854803144932 ]
  - [   0.0005568398628384,  0.0096999723464251,  0.0361596643924713 ]
  - [   0.0001338372239843,  0.0096701420843601,  0.0359834358096123 ]
  - [   0.0005510769551620,  0.0096424203366041,  0.0358007326722145 ]
  - [   0.0000921009923331,  0.0096611753106117,  0.0359698273241520 ]
  - [   0.0001461259671487,  0.0096521433442831,  0.0360267348587513 ]
  - [   0.0001460221828893,  0.0097015425562859,  0.0359562039375305 ]
  - [   0.0001798931625672,  0.0096720121800900,  0.0359838195145130 ]
  - [   0.0001382863119943,  0.0096736419945955,  0.0359908416867256 ]
  - [   0.0001376875006827,  0.0096706151962280,  0.0359775610268116 ]
  - [   0.0001430972479284,  0.0096893422305584,  0.0359696410596371 ]
  - [   0.0001434815931134,  0.0096719823777676,  0.0359845049679279 ]
  - [   0.0001394884311594,  0.0096555016934872,  0.0359987244009972 ]
  - [   0.0004745312035084,  0.0016506784595549, -0.0016954129096121 ]
  - [   0.0000437349081039,  0.0018084663897753, -0.0016980346990749 ]
  - [   0.0000394470989704,  0.0013164449483156, -0.0016904439544305 ]
  - [   0.0046988744288683,  0.0046122493222356, -0.0016952548176050 ]
  - [   0.0001520663499832,  0.0016010629478842, -0.0016934286104515 ]
  - [   0.0045842276886106, -0.0013243915745988, -0.0016903369687498 ]
  - [   0.0003017075359821,  0.0015871984651312, -0.0016934275627136 ]
  - [   0.0002980753779411,  0.0015877680853009, -0.0016960091888905 ]
  - [   0.0002988473861478,  0.0015891153598204, -0.0016973661258817 ]
  - [   0.0003001503646374,  0.0015888399211690, -0.0016948221018538 ]
  - [   0.0003008283674717,  0.0015883876476437, -0.0016964519163594 ]
  - [   0.0003001987934113,  0.0015880945138633, -0.0016949275741354 ]
- atom:    1
  displacement:
    [  -0.0100000000000000,  0.0000000000000000,  0.0000000000000000 ]
  forces:
  - [   0.0178951378911734, -0.0123727731406689,  0.0031826719641685 ]
  - [  -0.0004425495862961, -0.0123923011124134,  0.0031822090968490 ]
  - [  -0.0004409428220242, -0.0122654289007187,  0.0031836396083236 ]
  - [  -0.0008108375477605, -0.0120021030306816,  0.0031819473952055 ]
  - [  -0.0005901393597014, -0.0121957138180733,  0.0031837592832744 ]
  - [  -0.0005926663288847, -0.0128023624420166,  0.0031836954876781 ]
  - [  -0.0004187497543171, -0.0123308971524239,  0.0031794090755284 ]
  - [  -0.0004184250719845, -0.0123306550085545,  0.0031841518357396 ]
  - [  -0.0004189647734165, -0.0123319141566753,  0.0031836996786296 ]
  - [  -0.0004172574263066, -0.0123312547802925,  0.0031826905906200 ]
  - [  -0.0004189976316411, -0.0123303569853306,  0.0031833853572607 ]
  - [  -0.0004161432152614, -0.0123306214809418,  0.0031831751111895 ]
  - [   0.0002028060553130, -0.0006519177695736, -0.0169891770929098 ]
  - [   0.0002021305263042, -0.0014447434805334, -0.0168108865618706 ]
  - [  -0.0000028535723686, -0.0010783097241074, -0.0169158540666103 ]
  - [   0.0009727319702506, -0.0010755640687421, -0.0169137921184301 ]
  - [   0.0000264309346676, -0.0012558875605464, -0.0167325250804424 ]
  - [   0.0000270195305347, -0.0008634171681479, -0.0170742850750685 ]
  - [   0.0000254944898188, -0.0010623523266986, -0.0169161278754473 ]
  - [   0.0000515733845532, -0.0010607572039589, -0.0169027820229530 ]
  - [   0.0000250698067248, -0.0010573143372312, -0.0168918799608946 ]
  - [   0.0000269675874733, -0.0010545359691605, -0.0168980844318867 ]
  - [   0.0000273032273981, -0.0010643232380971, -0.0169093944132328 ]
  - [   0.0000305291032419, -0.0010597838554531, -0.0169036835432053 ]
  - [  -0.0007985932752490, -0.0007763769244775,  0.0188479274511337 ]
  - [  -0.0007994584739208, -0.0015633327420801,  0.0186741910874844 ]
  - [  -0.0010062223300338, -0.0012007420882583,  0.0187757201492786 ]
  - [  -0.0000277971848845, -0.0011972894426435,  0.0187750011682510 ]
  - [  -0.0009759031236172, -0.0013762296875939,  0.0185951460152864 ]
  - [  -0.0009762500412762, -0.0009866131003946,  0.0189336910843849 ]
  - [  -0.0009506740607321, -0.0011821412481368,  0.0187646783888340 ]
  - [  -0.0009768372401595, -0.0011789029231295,  0.0187532454729080 ]
  - [  -0.0009763273410499, -0.0011832716409117,  0.0187768936157227 ]
  - [  -0.0009733866900206, -0.0011863396503031,  0.0187710877507925 ]
  - [  -0.0009697824716568, -0.0011814301833510,  0.0187651682645082 ]
  - [  -0.0009729056619108, -0.0011763910297304,  0.0187601186335087 ]
  - [   0.0009821450803429,  0.0076696891337633, -0.0397599488496780 ]
  - [   0.0010234294459224,  0.0076679550111294, -0.0397531911730766 ]
  - [   0.0010224856669083,  0.0076707489788532, -0.0397671461105347 ]
  - [   0.0010175536153838,  0.0076525788754225, -0.0397748127579689 ]
  - [   0.0010171654867008,  0.0076702497899532, -0.0397609435021877 ]
  - [   0.0010204566642642,  0.0076857991516590, -0.0397466234862804 ]
  - [   0.0005986122414470,  0.0076983086764812, -0.0399388223886490 ]
  - [   0.0006050381925888,  0.0076413378119469, -0.0395791977643967 ]
  - [   0.0010212085908279,  0.0076694805175066, -0.0397612527012825 ]
  - [   0.0010142701212317,  0.0076394788920879, -0.0397877879440784 ]