# Thermal properties / unit cell (natom)

unit:
  temperature:   K
  free_energy:   kJ/mol
  entropy:       J/K/mol
  heat_capacity: J/K/mol

natom: 9    
cutoff_frequency: 0.00000
num_modes: 181440
num_integrated_modes: 181438

zero_point_energy:      34.8500008

thermal_properties:
- temperature:         0.0000000
  free_energy:        34.8500008
  entropy:             0.0000000
  heat_capacity:       0.0000000
  energy:             34.8500008

- temperature:        10.0000000
  free_energy:        34.8493006
  entropy:             0.2440310
  heat_capacity:       0.7503024
  energy:             34.8517409

- temperature:        20.0000000
  free_energy:        34.8395329
  entropy:             2.1065057
  heat_capacity:       6.1714919
  energy:             34.8816630

- temperature:        30.0000000
  free_energy:        34.7991048
  entropy:             6.3520856
  heat_capacity:      15.9642996
  energy:             34.9896674

- temperature:        40.0000000
  free_energy:        34.7058832
  entropy:            12.5822594
  heat_capacity:      28.2545779
  energy:             35.2091736

- temperature:        50.0000000
  free_energy:        34.5423524
  entropy:            20.3481814
  heat_capacity:      42.0531785
  energy:             35.5597615

- temperature:        60.0000000
  free_energy:        34.2949762
  entropy:            29.2989022
  heat_capacity:      56.6540686
  energy:             36.0529103

- temperature:        70.0000000
  free_energy:        33.9534051
  entropy:            39.1414169
  heat_capacity:      71.3962940
  energy:             36.6933043

- temperature:        80.0000000
  free_energy:        33.5100425
  entropy:            49.6166306
  heat_capacity:      85.7051934
  energy:             37.4793729

- temperature:        90.0000000
  free_energy:        32.9597220
  entropy:            60.4982468
  heat_capacity:      99.1669193
  energy:             38.4045643

- temperature:       100.0000000
  free_energy:        32.2993575
  entropy:            71.5971680
  heat_capacity:     111.5423761
  energy:             39.4590743

- temperature:       110.0000000
  free_energy:        31.5275605
  entropy:            82.7627372
  heat_capacity:     122.7360595
  energy:             40.6314616

- temperature:       120.0000000
  free_energy:        30.6442674
  entropy:            93.8799549
  heat_capacity:     132.7516119
  energy:             41.9098619

- temperature:       130.0000000
  free_energy:        29.6504069
  entropy:           104.8643636
  heat_capacity:     141.6522231
  energy:             43.2827741

- temperature:       140.0000000
  free_energy:        28.5476239
  entropy:           115.6562645
  heat_capacity:     149.5315428
  energy:             44.7395009

- temperature:       150.0000000
  free_energy:        27.3380595
  entropy:           126.2152767
  heat_capacity:     156.4946448
  energy:             46.2703510

- temperature:       160.0000000
  free_energy:        26.0241816
  entropy:           136.5156830
  heat_capacity:     162.6466449
  energy:             47.8666909

- temperature:       170.0000000
  free_energy:        24.6086581
  entropy:           146.5426650
  heat_capacity:     168.0865182
  energy:             49.5209112

- temperature:       180.0000000
  free_energy:        23.0942632
  entropy:           156.2893621
  heat_capacity:     172.9041965
  energy:             51.2263484

- temperature:       190.0000000
  free_energy:        21.4838094
  entropy:           165.7546276
  heat_capacity:     177.1796140
  energy:             52.9771887

- temperature:       200.0000000
  free_energy:        19.7800995
  entropy:           174.9413413
  heat_capacity:     180.9828399
  energy:             54.7683677

- temperature:       210.0000000
  free_energy:        17.9858925
  entropy:           183.8551567
  heat_capacity:     184.3747657
  energy:             56.5954754

- temperature:       220.0000000
  free_energy:        16.1038811
  entropy:           192.5035782
  heat_capacity:     187.4080315
  energy:             58.4546683

- temperature:       230.0000000
  free_energy:        14.1366767
  entropy:           200.8952859
  heat_capacity:     190.1280151
  energy:             60.3425924

- temperature:       240.0000000
  free_energy:        12.0867999
  entropy:           209.0396469
  heat_capacity:     192.5737869
  energy:             62.2563152

- temperature:       250.0000000
  free_energy:         9.9566759
  entropy:           216.9463635
  heat_capacity:     194.7789855
  energy:             64.1932668

- temperature:       260.0000000
  free_energy:         7.7486322
  entropy:           224.6252226
  heat_capacity:     196.7725957
  energy:             66.1511900

- temperature:       270.0000000
  free_energy:         5.4648986
  entropy:           232.0859204
  heat_capacity:     198.5796269
  energy:             68.1280971

- temperature:       280.0000000
  free_energy:         3.1076093
  entropy:           239.3379418
  heat_capacity:     200.2216973
  energy:             70.1222330

- temperature:       290.0000000
  free_energy:         0.6788047
  entropy:           246.3904800
  heat_capacity:     201.7175327
  energy:             72.1320439

- temperature:       300.0000000
  free_energy:        -1.8195649
  entropy:           253.2523851
  heat_capacity:     203.0833903
  energy:             74.1561506

- temperature:       310.0000000
  free_energy:        -4.3856359
  entropy:           259.9321344
  heat_capacity:     204.3334188
  energy:             76.1933258

- temperature:       320.0000000
  free_energy:        -7.0176274
  entropy:           266.4378176
  heat_capacity:     205.4799623
  energy:             78.2424742

- temperature:       330.0000000
  free_energy:        -9.7138377
  entropy:           272.7771332
  heat_capacity:     206.5338176
  energy:             80.3026162

- temperature:       340.0000000
  free_energy:       -12.4726399
  entropy:           278.9573919
  heat_capacity:     207.5044526
  energy:             82.3728733

- temperature:       350.0000000
  free_energy:       -15.2924785
  entropy:           284.9855264
  heat_capacity:     208.4001906
  energy:             84.4524557

- temperature:       360.0000000
  free_energy:       -18.1718653
  entropy:           290.8681037
  heat_capacity:     209.2283674
  energy:             86.5406520

- temperature:       370.0000000
  free_energy:       -21.1093761
  entropy:           296.6113398
  heat_capacity:     209.9954640
  energy:             88.6368196

- temperature:       380.0000000
  free_energy:       -24.1036473
  entropy:           302.2211162
  heat_capacity:     210.7072206
  energy:             90.7403769

- temperature:       390.0000000
  free_energy:       -27.1533722
  entropy:           307.7029968
  heat_capacity:     211.3687329
  energy:             92.8507966

- temperature:       400.0000000
  free_energy:       -30.2572985
  entropy:           313.0622443
  heat_capacity:     211.9845354
  energy:             94.9675993

- temperature:       410.0000000
  free_energy:       -33.4142249
  entropy:           318.3038374
  heat_capacity:     212.5586720
  energy:             97.0903484

- temperature:       420.0000000
  free_energy:       -36.6229988
  entropy:           323.4324873
  heat_capacity:     213.0947572
  energy:             99.2186459

- temperature:       430.0000000
  free_energy:       -39.8825131
  entropy:           328.4526527
  heat_capacity:     213.5960284
  energy:            101.3521276

- temperature:       440.0000000
  free_energy:       -43.1917043
  entropy:           333.3685555
  heat_capacity:     214.0653918
  energy:            103.4904601

- temperature:       450.0000000
  free_energy:       -46.5495500
  entropy:           338.1841951
  heat_capacity:     214.5054609
  energy:            105.6333378

- temperature:       460.0000000
  free_energy:       -49.9550666
  entropy:           342.9033613
  heat_capacity:     214.9185909
  energy:            107.7804796

- temperature:       470.0000000
  free_energy:       -53.4073076
  entropy:           347.5296480
  heat_capacity:     215.3069085
  energy:            109.9316269

- temperature:       480.0000000
  free_energy:       -56.9053614
  entropy:           352.0664643
  heat_capacity:     215.6723370
  energy:            112.0865415

- temperature:       490.0000000
  free_energy:       -60.4483495
  entropy:           356.5170463
  heat_capacity:     216.0166197
  energy:            114.2450032

- temperature:       500.0000000
  free_energy:       -64.0354251
  entropy:           360.8844676
  heat_capacity:     216.3413385
  energy:            116.4068087

- temperature:       510.0000000
  free_energy:       -67.6657714
  entropy:           365.1716489
  heat_capacity:     216.6479323
  energy:            118.5717696

- temperature:       520.0000000
  free_energy:       -71.3385999
  entropy:           369.3813677
  heat_capacity:     216.9377113
  energy:            120.7397113

- temperature:       530.0000000
  free_energy:       -75.0531494
  entropy:           373.5162662
  heat_capacity:     217.2118707
  energy:            122.9104717

- temperature:       540.0000000
  free_energy:       -78.8086842
  entropy:           377.5788602
  heat_capacity:     217.4715025
  energy:            125.0839003

- temperature:       550.0000000
  free_energy:       -82.6044935
  entropy:           381.5715459
  heat_capacity:     217.7176057
  energy:            127.2598567

- temperature:       560.0000000
  free_energy:       -86.4398897
  entropy:           385.4966073
  heat_capacity:     217.9510958
  energy:            129.4382104

- temperature:       570.0000000
  free_energy:       -90.3142076
  entropy:           389.3562227
  heat_capacity:     218.1728130
  energy:            131.6188394

- temperature:       580.0000000
  free_energy:       -94.2268030
  entropy:           393.1524706
  heat_capacity:     218.3835289
  energy:            133.8016300

- temperature:       590.0000000
  free_energy:       -98.1770524
  entropy:           396.8873356
  heat_capacity:     218.5839538
  energy:            135.9864757

- temperature:       600.0000000
  free_energy:      -102.1643514
  entropy:           400.5627139
  heat_capacity:     218.7747419
  energy:            138.1732769

- temperature:       610.0000000
  free_energy:      -106.1881144
  entropy:           404.1804177
  heat_capacity:     218.9564965
  energy:            140.3619404

- temperature:       620.0000000
  free_energy:      -110.2477733
  entropy:           407.7421805
  heat_capacity:     219.1297751
  energy:            142.5523786

- temperature:       630.0000000
  free_energy:      -114.3427771
  entropy:           411.2496610
  heat_capacity:     219.2950929
  energy:            144.7445094

- temperature:       640.0000000
  free_energy:      -118.4725909
  entropy:           414.7044475
  heat_capacity:     219.4529269
  energy:            146.9382555

- temperature:       650.0000000
  free_energy:      -122.6366955
  entropy:           418.1080614
  heat_capacity:     219.6037192
  energy:            149.1335444

- temperature:       660.0000000
  free_energy:      -126.8345864
  entropy:           421.4619609
  heat_capacity:     219.7478797
  energy:            151.3303078

- temperature:       670.0000000
  free_energy:      -131.0657736
  entropy:           424.7675445
  heat_capacity:     219.8857894
  energy:            153.5284812

- temperature:       680.0000000
  free_energy:      -135.3297807
  entropy:           428.0261539
  heat_capacity:     220.0178024
  energy:            155.7280039

- temperature:       690.0000000
  free_energy:      -139.6261444
  entropy:           431.2390770
  heat_capacity:     220.1442481
  energy:            157.9288187

- temperature:       700.0000000
  free_energy:      -143.9544141
  entropy:           434.4075507
  heat_capacity:     220.2654336
  energy:            160.1308714

- temperature:       710.0000000
  free_energy:      -148.3141512
  entropy:           437.5327634
  heat_capacity:     220.3816449
  energy:            162.3341108

- temperature:       720.0000000
  free_energy:      -152.7049290
  entropy:           440.6158577
  heat_capacity:     220.4931491
  energy:            164.5384886

- temperature:       730.0000000
  free_energy:      -157.1263317
  entropy:           443.6579323
  heat_capacity:     220.6001959
  energy:            166.7439589

- temperature:       740.0000000
  free_energy:      -161.5779544
  entropy:           446.6600444
  heat_capacity:     220.7030184
  energy:            168.9504784

- temperature:       750.0000000
  free_energy:      -166.0594027
  entropy:           449.6232116
  heat_capacity:     220.8018349
  energy:            171.1580059

- temperature:       760.0000000
  free_energy:      -170.5702921
  entropy:           452.5484139
  heat_capacity:     220.8968499
  energy:            173.3665024

- temperature:       770.0000000
  free_energy:      -175.1102476
  entropy:           455.4365955
  heat_capacity:     220.9882550
  energy:            175.5759309

- temperature:       780.0000000
  free_energy:      -179.6789037
  entropy:           458.2886664
  heat_capacity:     221.0762300
  energy:            177.7862561

- temperature:       790.0000000
  free_energy:      -184.2759035
  entropy:           461.1055040
  heat_capacity:     221.1609435
  energy:            179.9974446

- temperature:       800.0000000
  free_energy:      -188.9008991
  entropy:           463.8879547
  heat_capacity:     221.2425542
  energy:            182.2094646

- temperature:       810.0000000
  free_energy:      -193.5535507
  entropy:           466.6368353
  heat_capacity:     221.3212112
  energy:            184.4222859

- temperature:       820.0000000
  free_energy:      -198.2335266
  entropy:           469.3529342
  heat_capacity:     221.3970546
  energy:            186.6358795

- temperature:       830.0000000
  free_energy:      -202.9405027
  entropy:           472.0370129
  heat_capacity:     221.4702165
  energy:            188.8502180

- temperature:       840.0000000
  free_energy:      -207.6741625
  entropy:           474.6898069
  heat_capacity:     221.5408214
  energy:            191.0652753

- temperature:       850.0000000
  free_energy:      -212.4341969
  entropy:           477.3120273
  heat_capacity:     221.6089867
  energy:            193.2810263

- temperature:       860.0000000
  free_energy:      -217.2203035
  entropy:           479.9043613
  heat_capacity:     221.6748230
  energy:            195.4974473

- temperature:       870.0000000
  free_energy:      -222.0321867
  entropy:           482.4674736
  heat_capacity:     221.7384348
  energy:            197.7145154

- temperature:       880.0000000
  free_energy:      -226.8695577
  entropy:           485.0020074
  heat_capacity:     221.7999209
  energy:            199.9322089

- temperature:       890.0000000
  free_energy:      -231.7321337
  entropy:           487.5085850
  heat_capacity:     221.8593746
  energy:            202.1505070

- temperature:       900.0000000
  free_energy:      -236.6196382
  entropy:           489.9878090
  heat_capacity:     221.9168843
  energy:            204.3693899

- temperature:       910.0000000
  free_energy:      -241.5318006
  entropy:           492.4402628
  heat_capacity:     221.9725334
  energy:            206.5888385

- temperature:       920.0000000
  free_energy:      -246.4683561
  entropy:           494.8665116
  heat_capacity:     222.0264011
  energy:            208.8088346

- temperature:       930.0000000
  free_energy:      -251.4290453
  entropy:           497.2671034
  heat_capacity:     222.0785625
  energy:            211.0293608

- temperature:       940.0000000
  free_energy:      -256.4136144
  entropy:           499.6425690
  heat_capacity:     222.1290885
  energy:            213.2504004

- temperature:       950.0000000
  free_energy:      -261.4218147
  entropy:           501.9934232
  heat_capacity:     222.1780467
  energy:            215.4719374

- temperature:       960.0000000
  free_energy:      -266.4534025
  entropy:           504.3201655
  heat_capacity:     222.2255011
  energy:            217.6939563

- temperature:       970.0000000
  free_energy:      -271.5081392
  entropy:           506.6232802
  heat_capacity:     222.2715124
  energy:            219.9164426

- temperature:       980.0000000
  free_energy:      -276.5857909
  entropy:           508.9032376
  heat_capacity:     222.3161384
  energy:            222.1393820

- temperature:       990.0000000
  free_energy:      -281.6861283
  entropy:           511.1604942
  heat_capacity:     222.3594340
  energy:            224.3627609

- temperature:      1000.0000000
  free_energy:      -286.8089266
  entropy:           513.3954930
  heat_capacity:     222.4014514
  energy:            226.5865664
