phonopy:
  version: "2.37.1"
  frequency_unit_conversion_factor: 15.633302
  symmetry_tolerance: 1.00000e-05

space_group:
  type: "P6_3/mmc"
  number: 194
  Hall_symbol: "-P 6c 2c"

primitive_matrix:
- [  1.000000000000000, -0.000000000000000,  0.000000000000000 ]
- [  0.000000000000000,  1.000000000000000,  0.000000000000000 ]
- [  0.000000000000000,  0.000000000000000,  1.000000000000000 ]

supercell_matrix:
- [   2,   0,   0 ]
- [   0,   2,   0 ]
- [   0,   0,   2 ]

primitive_cell:
  lattice:
  - [     6.670425130380502,     0.000000000000000,     0.000000000000000 ] # a
  - [    -3.335214921843056,     5.776757459277417,     0.000000000000000 ] # b
  - [     0.000000054889693,     0.000000339538140,     5.501255155139207 ] # c
  points:
  - symbol: Ga # 1
    coordinates: [  0.333333351807196,  0.666666650443692,  0.749999999274651 ]
    mass: 69.723000
  - symbol: Ga # 2
    coordinates: [  0.666666652598830,  0.333333344631503,  0.250000002428655 ]
    mass: 69.723000
  - symbol: Sn # 3
    coordinates: [  0.169493591803173,  0.338988090552751,  0.250000000334669 ]
    mass: 118.710000
  - symbol: Sn # 4
    coordinates: [  0.661011911133453,  0.830506409950317,  0.250000001906460 ]
    mass: 118.710000
  - symbol: Sn # 5
    coordinates: [  0.169493554395270,  0.830506447334858,  0.250000000683590 ]
    mass: 118.710000
  - symbol: Sn # 6
    coordinates: [  0.830506403011704,  0.661011910517850,  0.749999998154080 ]
    mass: 118.710000
  - symbol: Sn # 7
    coordinates: [  0.338988089954503,  0.169493595960904,  0.749999999512412 ]
    mass: 118.710000
  - symbol: Sn # 8
    coordinates: [  0.830506445221399,  0.169493550559522,  0.749999997749547 ]
    mass: 118.710000
  reciprocal_lattice: # without 2pi
  - [     0.149915482214993,     0.086553807533627,    -0.000000006837918 ] # a*
  - [     0.000000000000000,     0.173107492749935,    -0.000000010684216 ] # b*
  - [     0.000000000000000,     0.000000000000000,     0.181776698553204 ] # c*

unit_cell:
  lattice:
  - [     6.670425130380500,     0.000000000000000,     0.000000000000000 ] # a
  - [    -3.335214921843055,     5.776757459277417,     0.000000000000000 ] # b
  - [     0.000000054889693,     0.000000339538140,     5.501255155139207 ] # c
  points:
  - symbol: Ga # 1
    coordinates: [  0.333333351807196,  0.666666650443692,  0.749999999274651 ]
    mass: 69.723000
    reduced_to: 1
  - symbol: Ga # 2
    coordinates: [  0.666666652598830,  0.333333344631503,  0.250000002428655 ]
    mass: 69.723000
    reduced_to: 2
  - symbol: Sn # 3
    coordinates: [  0.169493591803173,  0.338988090552751,  0.250000000334669 ]
    mass: 118.710000
    reduced_to: 3
  - symbol: Sn # 4
    coordinates: [  0.661011911133453,  0.830506409950317,  0.250000001906460 ]
    mass: 118.710000
    reduced_to: 4
  - symbol: Sn # 5
    coordinates: [  0.169493554395270,  0.830506447334858,  0.250000000683590 ]
    mass: 118.710000
    reduced_to: 5
  - symbol: Sn # 6
    coordinates: [  0.830506403011704,  0.661011910517850,  0.749999998154080 ]
    mass: 118.710000
    reduced_to: 6
  - symbol: Sn # 7
    coordinates: [  0.338988089954503,  0.169493595960904,  0.749999999512412 ]
    mass: 118.710000
    reduced_to: 7
  - symbol: Sn # 8
    coordinates: [  0.830506445221400,  0.169493550559522,  0.749999997749547 ]
    mass: 118.710000
    reduced_to: 8

supercell:
  lattice:
  - [    13.340850260761000,     0.000000000000000,     0.000000000000000 ] # a
  - [    -6.670429843686110,    11.553514918554834,     0.000000000000000 ] # b
  - [     0.000000109779386,     0.000000679076280,    11.002510310278414 ] # c
  points:
  - symbol: Ga # 1
    coordinates: [  0.166666675903598,  0.333333325221846,  0.374999999637326 ]
    mass: 69.723000
    reduced_to: 1
  - symbol: Ga # 2
    coordinates: [  0.666666675903598,  0.333333325221846,  0.374999999637326 ]
    mass: 69.723000
    reduced_to: 1
  - symbol: Ga # 3
    coordinates: [  0.166666675903598,  0.833333325221846,  0.374999999637326 ]
    mass: 69.723000
    reduced_to: 1
  - symbol: Ga # 4
    coordinates: [  0.666666675903598,  0.833333325221846,  0.374999999637326 ]
    mass: 69.723000
    reduced_to: 1
  - symbol: Ga # 5
    coordinates: [  0.166666675903598,  0.333333325221846,  0.874999999637326 ]
    mass: 69.723000
    reduced_to: 1
  - symbol: Ga # 6
    coordinates: [  0.666666675903598,  0.333333325221846,  0.874999999637326 ]
    mass: 69.723000
    reduced_to: 1
  - symbol: Ga # 7
    coordinates: [  0.166666675903598,  0.833333325221846,  0.874999999637326 ]
    mass: 69.723000
    reduced_to: 1
  - symbol: Ga # 8
    coordinates: [  0.666666675903598,  0.833333325221846,  0.874999999637326 ]
    mass: 69.723000
    reduced_to: 1
  - symbol: Ga # 9
    coordinates: [  0.333333326299415,  0.166666672315751,  0.125000001214328 ]
    mass: 69.723000
    reduced_to: 9
  - symbol: Ga # 10
    coordinates: [  0.833333326299415,  0.166666672315751,  0.125000001214328 ]
    mass: 69.723000
    reduced_to: 9
  - symbol: Ga # 11
    coordinates: [  0.333333326299415,  0.666666672315751,  0.125000001214328 ]
    mass: 69.723000
    reduced_to: 9
  - symbol: Ga # 12
    coordinates: [  0.833333326299415,  0.666666672315751,  0.125000001214328 ]
    mass: 69.723000
    reduced_to: 9
  - symbol: Ga # 13
    coordinates: [  0.333333326299415,  0.166666672315751,  0.625000001214328 ]
    mass: 69.723000
    reduced_to: 9
  - symbol: Ga # 14
    coordinates: [  0.833333326299415,  0.166666672315751,  0.625000001214328 ]
    mass: 69.723000
    reduced_to: 9
  - symbol: Ga # 15
    coordinates: [  0.333333326299415,  0.666666672315751,  0.625000001214328 ]
    mass: 69.723000
    reduced_to: 9
  - symbol: Ga # 16
    coordinates: [  0.833333326299415,  0.666666672315751,  0.625000001214328 ]
    mass: 69.723000
    reduced_to: 9
  - symbol: Sn # 17
    coordinates: [  0.084746795901586,  0.169494045276376,  0.125000000167335 ]
    mass: 118.710000
    reduced_to: 17
  - symbol: Sn # 18
    coordinates: [  0.584746795901586,  0.169494045276376,  0.125000000167335 ]
    mass: 118.710000
    reduced_to: 17
  - symbol: Sn # 19
    coordinates: [  0.084746795901586,  0.669494045276376,  0.125000000167335 ]
    mass: 118.710000
    reduced_to: 17
  - symbol: Sn # 20
    coordinates: [  0.584746795901586,  0.669494045276376,  0.125000000167335 ]
    mass: 118.710000
    reduced_to: 17
  - symbol: Sn # 21
    coordinates: [  0.084746795901586,  0.169494045276376,  0.625000000167335 ]
    mass: 118.710000
    reduced_to: 17
  - symbol: Sn # 22
    coordinates: [  0.584746795901586,  0.169494045276376,  0.625000000167335 ]
    mass: 118.710000
    reduced_to: 17
  - symbol: Sn # 23
    coordinates: [  0.084746795901586,  0.669494045276376,  0.625000000167335 ]
    mass: 118.710000
    reduced_to: 17
  - symbol: Sn # 24
    coordinates: [  0.584746795901586,  0.669494045276376,  0.625000000167335 ]
    mass: 118.710000
    reduced_to: 17
  - symbol: Sn # 25
    coordinates: [  0.330505955566727,  0.415253204975159,  0.125000000953230 ]
    mass: 118.710000
    reduced_to: 25
  - symbol: Sn # 26
    coordinates: [  0.830505955566726,  0.415253204975159,  0.125000000953230 ]
    mass: 118.710000
    reduced_to: 25
  - symbol: Sn # 27
    coordinates: [  0.330505955566727,  0.915253204975159,  0.125000000953230 ]
    mass: 118.710000
    reduced_to: 25
  - symbol: Sn # 28
    coordinates: [  0.830505955566726,  0.915253204975159,  0.125000000953230 ]
    mass: 118.710000
    reduced_to: 25
  - symbol: Sn # 29
    coordinates: [  0.330505955566727,  0.415253204975159,  0.625000000953230 ]
    mass: 118.710000
    reduced_to: 25
  - symbol: Sn # 30
    coordinates: [  0.830505955566726,  0.415253204975159,  0.625000000953230 ]
    mass: 118.710000
    reduced_to: 25
  - symbol: Sn # 31
    coordinates: [  0.330505955566727,  0.915253204975159,  0.625000000953230 ]
    mass: 118.710000
    reduced_to: 25
  - symbol: Sn # 32
    coordinates: [  0.830505955566726,  0.915253204975159,  0.625000000953230 ]
    mass: 118.710000
    reduced_to: 25
  - symbol: Sn # 33
    coordinates: [  0.084746777197635,  0.415253223667429,  0.125000000341795 ]
    mass: 118.710000
    reduced_to: 33
  - symbol: Sn # 34
    coordinates: [  0.584746777197635,  0.415253223667429,  0.125000000341795 ]
    mass: 118.710000
    reduced_to: 33
  - symbol: Sn # 35
    coordinates: [  0.084746777197635,  0.915253223667429,  0.125000000341795 ]
    mass: 118.710000
    reduced_to: 33
  - symbol: Sn # 36
    coordinates: [  0.584746777197635,  0.915253223667429,  0.125000000341795 ]
    mass: 118.710000
    reduced_to: 33
  - symbol: Sn # 37
    coordinates: [  0.084746777197635,  0.415253223667429,  0.625000000341795 ]
    mass: 118.710000
    reduced_to: 33
  - symbol: Sn # 38
    coordinates: [  0.584746777197635,  0.415253223667429,  0.625000000341795 ]
    mass: 118.710000
    reduced_to: 33
  - symbol: Sn # 39
    coordinates: [  0.084746777197635,  0.915253223667429,  0.625000000341795 ]
    mass: 118.710000
    reduced_to: 33
  - symbol: Sn # 40
    coordinates: [  0.584746777197635,  0.915253223667429,  0.625000000341795 ]
    mass: 118.710000
    reduced_to: 33
  - symbol: Sn # 41
    coordinates: [  0.415253201505852,  0.330505955258925,  0.374999999077040 ]
    mass: 118.710000
    reduced_to: 41
  - symbol: Sn # 42
    coordinates: [  0.915253201505852,  0.330505955258925,  0.374999999077040 ]
    mass: 118.710000
    reduced_to: 41
  - symbol: Sn # 43
    coordinates: [  0.415253201505852,  0.830505955258925,  0.374999999077040 ]
    mass: 118.710000
    reduced_to: 41
  - symbol: Sn # 44
    coordinates: [  0.915253201505852,  0.830505955258925,  0.374999999077040 ]
    mass: 118.710000
    reduced_to: 41
  - symbol: Sn # 45
    coordinates: [  0.415253201505852,  0.330505955258925,  0.874999999077040 ]
    mass: 118.710000
    reduced_to: 41
  - symbol: Sn # 46
    coordinates: [  0.915253201505852,  0.330505955258925,  0.874999999077040 ]
    mass: 118.710000
    reduced_to: 41
  - symbol: Sn # 47
    coordinates: [  0.415253201505852,  0.830505955258925,  0.874999999077040 ]
    mass: 118.710000
    reduced_to: 41
  - symbol: Sn # 48
    coordinates: [  0.915253201505852,  0.830505955258925,  0.874999999077040 ]
    mass: 118.710000
    reduced_to: 41
  - symbol: Sn # 49
    coordinates: [  0.169494044977252,  0.084746797980452,  0.374999999756206 ]
    mass: 118.710000
    reduced_to: 49
  - symbol: Sn # 50
    coordinates: [  0.669494044977252,  0.084746797980452,  0.374999999756206 ]
    mass: 118.710000
    reduced_to: 49
  - symbol: Sn # 51
    coordinates: [  0.169494044977252,  0.584746797980452,  0.374999999756206 ]
    mass: 118.710000
    reduced_to: 49
  - symbol: Sn # 52
    coordinates: [  0.669494044977252,  0.584746797980452,  0.374999999756206 ]
    mass: 118.710000
    reduced_to: 49
  - symbol: Sn # 53
    coordinates: [  0.169494044977252,  0.084746797980452,  0.874999999756206 ]
    mass: 118.710000
    reduced_to: 49
  - symbol: Sn # 54
    coordinates: [  0.669494044977252,  0.084746797980452,  0.874999999756206 ]
    mass: 118.710000
    reduced_to: 49
  - symbol: Sn # 55
    coordinates: [  0.169494044977252,  0.584746797980452,  0.874999999756206 ]
    mass: 118.710000
    reduced_to: 49
  - symbol: Sn # 56
    coordinates: [  0.669494044977252,  0.584746797980452,  0.874999999756206 ]
    mass: 118.710000
    reduced_to: 49
  - symbol: Sn # 57
    coordinates: [  0.415253222610700,  0.084746775279761,  0.374999998874773 ]
    mass: 118.710000
    reduced_to: 57
  - symbol: Sn # 58
    coordinates: [  0.915253222610700,  0.084746775279761,  0.374999998874773 ]
    mass: 118.710000
    reduced_to: 57
  - symbol: Sn # 59
    coordinates: [  0.415253222610700,  0.584746775279761,  0.374999998874773 ]
    mass: 118.710000
    reduced_to: 57
  - symbol: Sn # 60
    coordinates: [  0.915253222610700,  0.584746775279761,  0.374999998874773 ]
    mass: 118.710000
    reduced_to: 57
  - symbol: Sn # 61
    coordinates: [  0.415253222610700,  0.084746775279761,  0.874999998874773 ]
    mass: 118.710000
    reduced_to: 57
  - symbol: Sn # 62
    coordinates: [  0.915253222610700,  0.084746775279761,  0.874999998874773 ]
    mass: 118.710000
    reduced_to: 57
  - symbol: Sn # 63
    coordinates: [  0.415253222610700,  0.584746775279761,  0.874999998874773 ]
    mass: 118.710000
    reduced_to: 57
  - symbol: Sn # 64
    coordinates: [  0.915253222610700,  0.584746775279761,  0.874999998874773 ]
    mass: 118.710000
    reduced_to: 57

displacements:
- atom:    1
  displacement:
    [   0.0077147805235829,  0.0000000003926979,  0.0063625593492671 ]
  forces:
  - [  -0.0102819986641407, -0.0000208392739296, -0.0084230853244662 ]
  - [   0.0018494037212804, -0.0000023730099201, -0.0000862727902131 ]
  - [   0.0003474607365206, -0.0008672461844981, -0.0000848245545058 ]
  - [   0.0003456585109234,  0.0008634263649583, -0.0000849966163514 ]
  - [  -0.0000820290297270,  0.0000007469207048,  0.0003406438045204 ]
  - [   0.0001531235466246, -0.0000024577602744,  0.0000561246561119 ]
  - [   0.0000286410922854, -0.0000664303079247,  0.0000579070620006 ]
  - [   0.0000262535177171,  0.0000695108901709,  0.0000586160749663 ]
  - [  -0.0000938232988119,  0.0001076774206012,  0.0001775645650923 ]
  - [  -0.0006163530051708, -0.0004027453251183, -0.0004726685583591 ]
  - [   0.0000887266360223,  0.0003084465861320, -0.0001513455063105 ]
  - [   0.0001134390840889,  0.0000013411045074,  0.0000005103647709 ]
  - [  -0.0006470116786659,  0.0004297096747905, -0.0004965290427208 ]
  - [  -0.0000897478312254, -0.0001015565358102,  0.0001719910651445 ]
  - [   0.0000916691496968, -0.0003244231920689, -0.0001563844271004 ]
  - [   0.0001115790655604, -0.0000046826899052,  0.0000017229467630 ]
  - [  -0.0004251315258443,  0.0220335293561220,  0.0017371618887410 ]
  - [   0.0002301743952557,  0.0205935873091221, -0.0000007152557373 ]
  - [  -0.0002466372388881,  0.0205889791250229, -0.0000599436461926 ]
  - [  -0.0001323386095464,  0.0205839052796364,  0.0000695138005540 ]
  - [  -0.0004483596421778,  0.0189881958067417,  0.0017865340923890 ]
  - [   0.0002306657261215,  0.0204742923378944, -0.0000016475096345 ]
  - [  -0.0001270146167371,  0.0204750709235668,  0.0000632293522358 ]
  - [  -0.0002570408396423,  0.0204579681158066, -0.0000716800568625 ]
  - [  -0.0185775477439165, -0.0104733183979988,  0.0001465035602450 ]
  - [  -0.0179669428616762, -0.0100986892357469, -0.0001773117110133 ]
  - [  -0.0178060140460730, -0.0104196947067976, -0.0000591017305851 ]
  - [  -0.0178217235952616, -0.0103528033941984, -0.0001216769451275 ]
  - [  -0.0159013066440821, -0.0089158266782761,  0.0034656990319490 ]
  - [  -0.0178099181503057, -0.0101433480158448,  0.0001846458762884 ]
  - [  -0.0177111644297838, -0.0103547731414437,  0.0000570695847273 ]
  - [  -0.0177843943238258, -0.0101837012916803,  0.0001179054670502 ]
  - [   0.0195750184357166, -0.0115428846329451,  0.0033017965033650 ]
  - [   0.0177419092506170, -0.0103917550295591,  0.0001930353464559 ]
  - [   0.0177781432867050, -0.0103405686095357,  0.0001225320738740 ]
  - [   0.0178533494472504, -0.0101782521232963,  0.0000566744129173 ]
  - [   0.0169824678450823, -0.0100530087947845,  0.0001409575343132 ]
  - [   0.0175684802234173, -0.0104336738586426, -0.0001930595608428 ]
  - [   0.0177409034222364, -0.0101731671020389, -0.0001257051480934 ]
  - [   0.0177585072815418, -0.0101162670180202, -0.0000571896089241 ]
  - [   0.0035224612802267, -0.0204327516257763, -0.0005154778482392 ]
  - [   0.0033974004909396, -0.0206404644995928, -0.0004833251587115 ]
  - [   0.0001966934651136, -0.0205401387065649, -0.0000445153455075 ]
  - [   0.0001875871821539, -0.0205326974391937, -0.0001002087519737 ]
  - [  -0.0000158892944455, -0.0206124186515808,  0.0002642932522576 ]
  - [  -0.0000220257788897, -0.0204639062285423,  0.0002486878074706 ]
  - [  -0.0000201528891921, -0.0205348320305347,  0.0000406668114010 ]
  - [  -0.0000522395603184, -0.0205365400761366,  0.0000999721523840 ]
  - [   0.0181553401052952,  0.0085370093584061, -0.0005045895813964 ]
  - [   0.0175498202443123,  0.0100273787975311, -0.0000420931755798 ]
  - [   0.0183036047965288,  0.0085123330354691, -0.0004883318324573 ]
  - [   0.0175928324460983,  0.0100477579981089, -0.0001017397153191 ]
  - [   0.0177964232861996,  0.0102375196292996,  0.0002566441544332 ]
  - [   0.0178186222910881,  0.0103002972900867,  0.0000361985730706 ]
  - [   0.0176947936415672,  0.0102714216336608,  0.0002456760266796 ]
  - [   0.0178649779409170,  0.0103431129828095,  0.0000934167765081 ]
  - [  -0.0180324874818325,  0.0105289919301867, -0.0000398060983571 ]
  - [  -0.0174129717051983,  0.0119665842503309, -0.0004891700227745 ]
  - [  -0.0172585509717464,  0.0120475990697742, -0.0005077876849100 ]
  - [  -0.0179530698806047,  0.0104723740369081, -0.0001027304388117 ]
  - [  -0.0177449602633715,  0.0102368677034974,  0.0000350095251633 ]
  - [  -0.0177761837840080,  0.0102980770170689,  0.0002579757710919 ]
  - [  -0.0178762152791023,  0.0102673899382353,  0.0002644340565894 ]
  - [  -0.0177048780024052,  0.0101871434599161,  0.0000925894273678 ]
- atom:   17
  displacement:
    [  -0.0038573924607601,  0.0066811953261480,  0.0063625586376496 ]
  forces:
  - [   0.0002380842342973,  0.0023323725908995,  0.0034382622689009 ]
  - [  -0.0001088807766791,  0.0000136643648148,  0.0000610244605923 ]
  - [   0.0000522836417076,  0.0000770371407270,  0.0000972692650976 ]
  - [   0.0001526512205601,  0.0001767687499523,  0.0000256243947661 ]
  - [   0.0002271588891745, -0.0008022207766771,  0.0001595520589035 ]
  - [  -0.0001031876017805, -0.0000935299322009, -0.0000645206164336 ]
  - [   0.0001542969839647, -0.0002081566490233, -0.0000978415337158 ]
  - [   0.0000405819155276, -0.0001114895567298, -0.0000272738689091 ]
  - [  -0.0016153813339770, -0.0005149662028998, -0.0004889219999313 ]
  - [  -0.0018659578636289, -0.0004651146009564, -0.0005056317895651 ]
  - [  -0.0001030783168972, -0.0003454030957073, -0.0000438420102000 ]
  - [  -0.0001006467791740, -0.0002571325749159, -0.0000996235758066 ]
  - [  -0.0000576172024012, -0.0000228132121265,  0.0002485448494554 ]
  - [   0.0000618025660515, -0.0000656954944134,  0.0002575032413006 ]
  - [   0.0000016782432795,  0.0000428739003837,  0.0000373902730644 ]
  - [   0.0000142517892527,  0.0000973343849182,  0.0000982340425253 ]
  - [   0.0034386687912047,  0.0102213658392429, -0.0060227732174098 ]
  - [  -0.0005235720309429,  0.0203585922718048, -0.0000999057665467 ]
  - [  -0.0001473870797781,  0.0208778046071529, -0.0000605303794146 ]
  - [   0.0001766914501786,  0.0206913314759731, -0.0000601980136707 ]
  - [  -0.0002688285894692,  0.0209111329168081, -0.0012856011744589 ]
  - [  -0.0000297366968880,  0.0205367673188448,  0.0000988189131021 ]
  - [  -0.0000712100154487,  0.0206162817776203,  0.0000522993505001 ]
  - [   0.0000413199886680,  0.0205526724457741,  0.0000507431104779 ]
  - [  -0.0146380746737123, -0.0077525093220174, -0.0009193476289511 ]
  - [  -0.0174432508647442, -0.0103835705667734, -0.0000523841008544 ]
  - [  -0.0174565035849810, -0.0102613130584359, -0.0000549759715796 ]
  - [  -0.0166270341724157, -0.0092820823192596, -0.0009153343271464 ]
  - [  -0.0178408157080412, -0.0103861242532730,  0.0000276146456599 ]
  - [  -0.0178379192948341, -0.0102513898164034,  0.0000584777444601 ]
  - [  -0.0178377702832222, -0.0102516338229179,  0.0000519780442119 ]
  - [  -0.0176781341433525, -0.0102541940286756, -0.0000522596819792 ]
  - [   0.0139927864074707, -0.0050639207474887, -0.0009280126541853 ]
  - [   0.0176022946834564, -0.0101504679769278, -0.0000510520767421 ]
  - [   0.0163668915629387, -0.0065131364390254, -0.0008981431601569 ]
  - [   0.0177118945866823, -0.0100917126983404, -0.0000548720709048 ]
  - [   0.0179121866822243, -0.0104186153039336,  0.0000249091535807 ]
  - [   0.0177953131496906, -0.0102589726448059,  0.0000557734747417 ]
  - [   0.0177193209528923, -0.0104208542034030, -0.0000521375332028 ]
  - [   0.0177953690290451, -0.0102696567773819,  0.0000542408088222 ]
  - [  -0.0006316397339106, -0.0206311233341694, -0.0003666767443065 ]
  - [   0.0013142256066203, -0.0211659241467714, -0.0010014257859439 ]
  - [  -0.0000572483986616, -0.0203500762581825, -0.0000243927024712 ]
  - [  -0.0002970136119984, -0.0204362031072378,  0.0005553890368901 ]
  - [   0.0003680344671011, -0.0197697598487139, -0.0000495295680594 ]
  - [   0.0002746414393187, -0.0202767197042704,  0.0005576992407441 ]
  - [  -0.0000560749322176, -0.0203079245984554,  0.0000269089396170 ]
  - [  -0.0002922976273112, -0.0213319286704063, -0.0003698249929585 ]
  - [   0.0189665015786886,  0.0093109812587500,  0.0000949283858063 ]
  - [   0.0180625766515732,  0.0102752028033137, -0.0001367218792439 ]
  - [   0.0179138761013746,  0.0097735645249486, -0.0003274501068518 ]
  - [   0.0178931336849928,  0.0103174392133951, -0.0000104627688415 ]
  - [   0.0155353024601936,  0.0109866661950946,  0.0041959127411246 ]
  - [   0.0175480172038078,  0.0102391280233860,  0.0001209283946082 ]
  - [   0.0177002083510160,  0.0100707951933146,  0.0003080167807639 ]
  - [   0.0178800169378519,  0.0103900078684092,  0.0000056751887314 ]
  - [  -0.0177576653659344,  0.0101240398362279,  0.0000823992959340 ]
  - [  -0.0191793702542782,  0.0088055552914739,  0.0020652483217418 ]
  - [  -0.0178834274411201,  0.0097890282049775, -0.0001842828642111 ]
  - [  -0.0179147273302078,  0.0104029830545187,  0.0000309035240207 ]
  - [  -0.0172534529119730,  0.0100947665050626, -0.0000950970643316 ]
  - [  -0.0156997404992580,  0.0105265267193317,  0.0023306948132813 ]
  - [  -0.0176734700798988,  0.0100830160081387,  0.0001651098136790 ]
  - [  -0.0179008841514587,  0.0104706073179841, -0.0000369819899788 ]
- atom:   17
  displacement:
    [   0.0038573924607601, -0.0066811953261480, -0.0063625586376496 ]
  forces:
  - [  -0.0002008955925703, -0.0022126305848360, -0.0032811162527651 ]
  - [   0.0001212909410242, -0.0000196611508727, -0.0000614669988863 ]
  - [  -0.0000434125395259, -0.0000703665427864, -0.0001003846264211 ]
  - [  -0.0001413063146174, -0.0001768867950886, -0.0000244173133979 ]
  - [  -0.0002126758918166,  0.0008230842649937, -0.0001690252684057 ]
  - [   0.0001268490741495,  0.0000913850963116,  0.0000579485786147 ]
  - [  -0.0001585221471032,  0.0002301456406713,  0.0001049588900059 ]
  - [  -0.0000368491746485,  0.0001199445687234,  0.0000281721295323 ]
  - [   0.0016699396073818,  0.0005288182292134,  0.0005052560009062 ]
  - [   0.0017760721966624,  0.0004397388547659,  0.0004876982420683 ]
  - [   0.0000952677801251,  0.0003289054147899,  0.0000430704094470 ]
  - [   0.0000886680136318,  0.0002731671556830,  0.0000999234616756 ]
  - [   0.0000580148771405,  0.0000229177530855, -0.0002667149528861 ]
  - [  -0.0000797193497419,  0.0000671823509037, -0.0002581905573606 ]
  - [  -0.0000174161978066, -0.0000495230779052, -0.0000355290248990 ]
  - [  -0.0000347011664417, -0.0001114690676332, -0.0000942945480347 ]
  - [  -0.0034926305525005,  0.0308677162975073,  0.0061164852231741 ]
  - [   0.0005254397401586,  0.0207138769328594,  0.0001013204455376 ]
  - [   0.0001480835780967,  0.0201852172613144,  0.0000645723193884 ]
  - [  -0.0001696972176433,  0.0203691869974136,  0.0000648186542094 ]
  - [   0.0002781124785542,  0.0201534256339073,  0.0012969474773854 ]
  - [   0.0000291987435048,  0.0205323696136475, -0.0001047467812896 ]
  - [   0.0000805907620816,  0.0204477794468403, -0.0000488804653287 ]
  - [  -0.0000269287265837,  0.0205109454691410, -0.0000503203482367 ]
  - [  -0.0208732858300209, -0.0127521175891161,  0.0008969102054834 ]
  - [  -0.0181088615208864, -0.0101556414738297,  0.0000558244064450 ]
  - [  -0.0181217957288027, -0.0102785509079695,  0.0000538527965546 ]
  - [  -0.0189713798463345, -0.0112760374322534,  0.0009346618317068 ]
  - [  -0.0177355650812387, -0.0101539576426148, -0.0000304803252220 ]
  - [  -0.0177355166524649, -0.0102866217494011, -0.0000487593933940 ]
  - [  -0.0177347678691149, -0.0102781690657139, -0.0000554453581572 ]
  - [  -0.0179003737866879, -0.0102777527645230,  0.0000517725129612 ]
  - [   0.0214404482394457, -0.0152655551210046,  0.0008886000141501 ]
  - [   0.0179501846432686, -0.0103773809969425,  0.0000575631856918 ]
  - [   0.0192663483321667, -0.0141530968248844,  0.0009533573174849 ]
  - [   0.0178474187850952, -0.0104402247816324,  0.0000537693267688 ]
  - [   0.0176586266607046, -0.0101021137088537, -0.0000330749899149 ]
  - [   0.0177667569369078, -0.0102546419948339, -0.0000514765270054 ]
  - [   0.0178512614220381, -0.0100967744365335,  0.0000525923678651 ]
  - [   0.0177748259156942, -0.0102602420374751, -0.0000533198472112 ]
  - [   0.0006069503724575, -0.0204411074519157,  0.0003525583015289 ]
  - [  -0.0012398958206177, -0.0199465025216341,  0.0009281344246119 ]
  - [   0.0000557666644454, -0.0207163617014885,  0.0000231042067753 ]
  - [   0.0002971891954076, -0.0206279121339321, -0.0005694658611901 ]
  - [  -0.0004021376371384, -0.0213187932968140,  0.0000612902804278 ]
  - [  -0.0002792272716761, -0.0207902882248163, -0.0005487757734954 ]
  - [   0.0000574076548219, -0.0207643676549196, -0.0000200690301426 ]
  - [   0.0003023534663953, -0.0197218060493469,  0.0003918267029803 ]
  - [   0.0166424177587032,  0.0112081328406930, -0.0000752580890548 ]
  - [   0.0175109766423702,  0.0102722840383649,  0.0001352399704047 ]
  - [   0.0176655426621437,  0.0107341259717941,  0.0003121994086541 ]
  - [   0.0176737587898970,  0.0102180726826191,  0.0000086893560365 ]
  - [   0.0201732609421015,  0.0095028989017010, -0.0044142939150333 ]
  - [   0.0180255174636841,  0.0102978022769094, -0.0001185642322525 ]
  - [   0.0178741198033094,  0.0104538891464472, -0.0002999806893058 ]
  - [   0.0176923125982285,  0.0101441666483879, -0.0000133441062644 ]
  - [  -0.0178060848265886,  0.0104104634374380, -0.0000765974036767 ]
  - [  -0.0164557509124279,  0.0116617744788527, -0.0019880475010723 ]
  - [  -0.0176780410110950,  0.0107168639078736,  0.0001760309387464 ]
  - [  -0.0176474247127771,  0.0101254777982831, -0.0000365774321835 ]
  - [  -0.0183317307382822,  0.0104428781196475,  0.0000959424432949 ]
  - [  -0.0199391283094883,  0.0100018959492445, -0.0023938603699207 ]
  - [  -0.0178900230675936,  0.0104336682707071, -0.0001632039202377 ]
  - [  -0.0176651738584042,  0.0100463200360537,  0.0000305815046886 ]

force_constants:
  format: "full"
  shape: [ 64, 64 ]
  elements:
  - # (1, 1)
    - [     1.332777127230658,     0.000000007037778,     0.000000000017362 ]
    - [     0.000000007037778,     1.332777126064327,    -0.000000001607163 ]
    - [     0.000000000017362,    -0.000000001607163,     1.323848652268001 ]
  - # (1, 2)
    - [    -0.239536706434798,    -0.000000045785853,     0.000000001971526 ]
    - [    -0.000000122424105,     0.019848505635124,    -0.000000001471193 ]
    - [     0.000000009931085,    -0.000000001691817,     0.013413619307390 ]
  - # (1, 3)
    - [    -0.044997853720752,     0.112317152549463,    -0.000000002836245 ]
    - [     0.112317142477680,    -0.174690393311194,     0.000000003968425 ]
    - [    -0.000000003140222,     0.000000004185714,     0.013413619405204 ]
  - # (1, 4)
    - [    -0.044997810064875,    -0.112317159024597,     0.000000004009774 ]
    - [    -0.112317081465937,    -0.174690492541623,     0.000000005395463 ]
    - [     0.000000008349200,     0.000000013249575,     0.013413619268454 ]
  - # (1, 5)
    - [     0.010643644311274,     0.000000006830486,     0.000000000762857 ]
    - [     0.000000007984321,     0.010643643650174,     0.000000001192990 ]
    - [    -0.000000000198036,    -0.000000002111463,    -0.053541898831629 ]
  - # (1, 6)
    - [    -0.019493738288932,    -0.000000001966277,    -0.000000000351253 ]
    - [    -0.000000008664611,     0.001539883428060,    -0.000000001132230 ]
    - [    -0.000000000702779,    -0.000000001721372,    -0.009048083620625 ]
  - # (1, 7)
    - [    -0.003718516161214,     0.009107832348738,    -0.000000000688938 ]
    - [     0.009107829185313,    -0.014235336174862,    -0.000000000574848 ]
    - [    -0.000000001064918,    -0.000000000017086,    -0.009048083718439 ]
  - # (1, 8)
    - [    -0.003718525450773,    -0.009107831383993,     0.000000001493216 ]
    - [    -0.009107825143280,    -0.014235339220905,    -0.000000001004485 ]
    - [     0.000000000802862,    -0.000000000298862,    -0.009048083581690 ]
  - # (1, 9)
    - [     0.046880634371049,    -0.033788721322738,    -0.042687213103977 ]
    - [    -0.033788697120514,     0.007864744478046,     0.024645445422858 ]
    - [    -0.042687215188358,     0.024645464369581,     0.024289326094109 ]
  - # (1, 10)
    - [     0.046880621389242,     0.033788738840896,     0.042687203526651 ]
    - [     0.033788752348702,     0.007864790359203,     0.024645497542111 ]
    - [     0.042687204245315,     0.024645481524779,     0.024289324679126 ]
  - # (1, 11)
    - [    -0.011643158551687,     0.000000004040564,    -0.000000003855911 ]
    - [    -0.000000018227872,     0.066388565540503,    -0.049290957348084 ]
    - [     0.000000009657656,    -0.049290948854133,     0.024289330197215 ]
  - # (1, 12)
    - [    -0.014572641227781,     0.000000006830486,     0.000000000622437 ]
    - [     0.000000007984321,    -0.014572641888882,     0.000000000324372 ]
    - [     0.000000000445584,     0.000000001869860,    -0.000178601121485 ]
  - # (1, 13)
    - [     0.046880635383805,    -0.033788719808576,     0.042687215690156 ]
    - [    -0.033788697282544,     0.007864743011626,    -0.024645447172561 ]
    - [     0.042687218777735,    -0.024645463891257,     0.024289329289764 ]
  - # (1, 14)
    - [     0.046880614820264,     0.033788745898215,    -0.042687206236350 ]
    - [     0.033788735826432,     0.007864780477423,    -0.024645482094500 ]