# Thermal properties / unit cell (natom)

unit:
  temperature:   K
  free_energy:   kJ/mol
  entropy:       J/K/mol
  heat_capacity: J/K/mol

natom: 8    
cutoff_frequency: 0.00000
num_modes: 124848
num_integrated_modes: 104475

zero_point_energy:       6.8948755

thermal_properties:
- temperature:         0.0000000
  free_energy:         6.8948755
  entropy:             0.0000000
  heat_capacity:       0.0000000
  energy:              6.8948755

- temperature:        10.0000000
  free_energy:         6.8548631
  entropy:            12.0167747
  heat_capacity:      22.7508719
  energy:              6.9750309

- temperature:        20.0000000
  free_energy:         6.6032799
  entropy:            39.5770891
  heat_capacity:      61.2056798
  energy:              7.3948217

- temperature:        30.0000000
  free_energy:         6.0513925
  entropy:            70.9018503
  heat_capacity:      93.8353182
  energy:              8.1784480

- temperature:        40.0000000
  free_energy:         5.1890683
  entropy:           101.1841686
  heat_capacity:     116.1656126
  energy:              9.2364350

- temperature:        50.0000000
  free_energy:         4.0368471
  entropy:           128.7699558
  heat_capacity:     130.5653007
  energy:             10.4753449

- temperature:        60.0000000
  free_energy:         2.6233547
  entropy:           153.4634847
  heat_capacity:     139.9546734
  energy:             11.8311638

- temperature:        70.0000000
  free_energy:         0.9762990
  entropy:           175.5427380
  heat_capacity:     146.2736677
  energy:             13.2642907

- temperature:        80.0000000
  free_energy:        -0.8800274
  entropy:           195.3790730
  heat_capacity:     150.6758271
  energy:             14.7502984

- temperature:        90.0000000
  free_energy:        -2.9249663
  entropy:           213.3187211
  heat_capacity:     153.8427525
  energy:             16.2737186

- temperature:       100.0000000
  free_energy:        -5.1410629
  entropy:           229.6548969
  heat_capacity:     156.1867150
  energy:             17.8244268

- temperature:       110.0000000
  free_energy:        -7.5135264
  entropy:           244.6282136
  heat_capacity:     157.9650044
  energy:             19.3955771

- temperature:       120.0000000
  free_energy:       -10.0297411
  entropy:           258.4345081
  heat_capacity:     159.3433886
  energy:             20.9823999

- temperature:       130.0000000
  free_energy:       -12.6788618
  entropy:           271.2334172
  heat_capacity:     160.4319150
  energy:             22.5814825

- temperature:       140.0000000
  free_energy:       -15.4514902
  entropy:           283.1558211
  heat_capacity:     161.3056607
  energy:             24.1903247

- temperature:       150.0000000
  free_energy:       -18.3394189
  entropy:           294.3098349
  heat_capacity:     162.0171185
  energy:             25.8070564

- temperature:       160.0000000
  free_energy:       -21.3354274
  entropy:           304.7854979
  heat_capacity:     162.6038080
  energy:             27.4302523

- temperature:       170.0000000
  free_energy:       -24.4331210
  entropy:           314.6584089
  heat_capacity:     163.0930815
  energy:             29.0588086

- temperature:       180.0000000
  free_energy:       -27.6268007
  entropy:           323.9925449
  heat_capacity:     163.5052361
  energy:             30.6918574

- temperature:       190.0000000
  free_energy:       -30.9113586
  entropy:           332.8424539
  heat_capacity:     163.8555761
  energy:             32.3287076

- temperature:       200.0000000
  free_energy:       -34.2821925
  entropy:           341.2549734
  heat_capacity:     164.1558097
  energy:             33.9688022

- temperature:       210.0000000
  free_energy:       -37.7351356
  entropy:           349.2705853
  heat_capacity:     164.4150119
  energy:             35.6116873

- temperature:       220.0000000
  free_energy:       -41.2663990
  entropy:           356.9244935
  heat_capacity:     164.6403012
  energy:             37.2569896

- temperature:       230.0000000
  free_energy:       -44.8725229
  entropy:           364.2474873
  heat_capacity:     164.8373230
  energy:             38.9043992

- temperature:       240.0000000
  free_energy:       -48.5503363
  entropy:           371.2666385
  heat_capacity:     165.0105993
  energy:             40.5536570

- temperature:       250.0000000
  free_energy:       -52.2969229
  entropy:           378.0058686
  heat_capacity:     165.1637856
  energy:             42.2045443

- temperature:       260.0000000
  free_energy:       -56.1095916
  entropy:           384.4864128
  heat_capacity:     165.2998624
  energy:             43.8568757

- temperature:       270.0000000
  free_energy:       -59.9858522
  entropy:           390.7272033
  heat_capacity:     165.4212788
  energy:             45.5104927

- temperature:       280.0000000
  free_energy:       -63.9233932
  entropy:           396.7451871
  heat_capacity:     165.5300621
  energy:             47.1652592

- temperature:       290.0000000
  free_energy:       -67.9200641
  entropy:           402.5555919
  heat_capacity:     165.6279018
  energy:             48.8210575

- temperature:       300.0000000
  free_energy:       -71.9738590
  entropy:           408.1721484
  heat_capacity:     165.7162146
  energy:             50.4777855

- temperature:       310.0000000
  free_energy:       -76.0829025
  entropy:           413.6072792
  heat_capacity:     165.7961959
  energy:             52.1353541

- temperature:       320.0000000
  free_energy:       -80.2454375
  entropy:           418.8722581
  heat_capacity:     165.8688595
  energy:             53.7936850

- temperature:       330.0000000
  free_energy:       -84.4598148
  entropy:           423.9773470
  heat_capacity:     165.9350699
  energy:             55.4527097

- temperature:       340.0000000
  free_energy:       -88.7244828
  entropy:           428.9319125
  heat_capacity:     165.9955679
  energy:             57.1123674

- temperature:       350.0000000
  free_energy:       -93.0379799
  entropy:           433.7445261
  heat_capacity:     166.0509911
  energy:             58.7726042

- temperature:       360.0000000
  free_energy:       -97.3989265
  entropy:           438.4230517
  heat_capacity:     166.1018907
  energy:             60.4333722

- temperature:       370.0000000
  free_energy:      -101.8060182
  entropy:           442.9747208
  heat_capacity:     166.1487452
  energy:             62.0946285

- temperature:       380.0000000
  free_energy:      -106.2580203
  entropy:           447.4061981
  heat_capacity:     166.1919716
  energy:             63.7563350

- temperature:       390.0000000
  free_energy:      -110.7537621
  entropy:           451.7236389
  heat_capacity:     166.2319344
  energy:             65.4184571

- temperature:       400.0000000
  free_energy:      -115.2921320
  entropy:           455.9327396
  heat_capacity:     166.2689538
  energy:             67.0809639

- temperature:       410.0000000
  free_energy:      -119.8720734
  entropy:           460.0387821
  heat_capacity:     166.3033114
  energy:             68.7438273

- temperature:       420.0000000
  free_energy:      -124.4925805
  entropy:           464.0466727
  heat_capacity:     166.3352561
  energy:             70.4070220

- temperature:       430.0000000
  free_energy:      -129.1526949
  entropy:           467.9609768
  heat_capacity:     166.3650086
  energy:             72.0705251

- temperature:       440.0000000
  free_energy:      -133.8515023
  entropy:           471.7859497
  heat_capacity:     166.3927646
  energy:             73.7343156

- temperature:       450.0000000
  free_energy:      -138.5881294
  entropy:           475.5255639
  heat_capacity:     166.4186986
  energy:             75.3983743

- temperature:       460.0000000
  free_energy:      -143.3617414
  entropy:           479.1835336
  heat_capacity:     166.4429667
  energy:             77.0626840

- temperature:       470.0000000
  free_energy:      -148.1715395
  entropy:           482.7633364
  heat_capacity:     166.4657083
  energy:             78.7272286

- temperature:       480.0000000
  free_energy:      -153.0167585
  entropy:           486.2682333
  heat_capacity:     166.4870487
  energy:             80.3919935

- temperature:       490.0000000
  free_energy:      -157.8966647
  entropy:           489.7012857
  heat_capacity:     166.5071006
  energy:             82.0569653

- temperature:       500.0000000
  free_energy:      -162.8105544
  entropy:           493.0653718
  heat_capacity:     166.5259656
  energy:             83.7221315

- temperature:       510.0000000
  free_energy:      -167.7577513
  entropy:           496.3632005
  heat_capacity:     166.5437354
  energy:             85.3874809

- temperature:       520.0000000
  free_energy:      -172.7376060
  entropy:           499.5973248
  heat_capacity:     166.5604932
  energy:             87.0530029

- temperature:       530.0000000
  free_energy:      -177.7494935
  entropy:           502.7701532
  heat_capacity:     166.5763144
  energy:             88.7186877

- temperature:       540.0000000
  free_energy:      -182.7928124
  entropy:           505.8839605
  heat_capacity:     166.5912673
  energy:             90.3845263

- temperature:       550.0000000
  free_energy:      -187.8669832
  entropy:           508.9408973
  heat_capacity:     166.6054144
  energy:             92.0505103

- temperature:       560.0000000
  free_energy:      -192.9714475
  entropy:           511.9429993
  heat_capacity:     166.6188125
  energy:             93.7166321

- temperature:       570.0000000
  free_energy:      -198.1056668
  entropy:           514.8921949
  heat_capacity:     166.6315135
  energy:             95.3828843

- temperature:       580.0000000
  free_energy:      -203.2691212
  entropy:           517.7903127
  heat_capacity:     166.6435649
  energy:             97.0492602

- temperature:       590.0000000
  free_energy:      -208.4613086
  entropy:           520.6390884
  heat_capacity:     166.6550102
  energy:             98.7157535

- temperature:       600.0000000
  free_energy:      -213.6817440
  entropy:           523.4401708
  heat_capacity:     166.6658894
  energy:            100.3823585

- temperature:       610.0000000
  free_energy:      -218.9299583
  entropy:           526.1951276
  heat_capacity:     166.6762392
  energy:            102.0490696

- temperature:       620.0000000
  free_energy:      -224.2054978
  entropy:           528.9054506
  heat_capacity:     166.6860934
  energy:            103.7158816

- temperature:       630.0000000
  free_energy:      -229.5079233
  entropy:           531.5725606
  heat_capacity:     166.6954831
  energy:            105.3827899

- temperature:       640.0000000
  free_energy:      -234.8368095
  entropy:           534.1978114
  heat_capacity:     166.7044370
  energy:            107.0497898

- temperature:       650.0000000
  free_energy:      -240.1917443
  entropy:           536.7824947
  heat_capacity:     166.7129817
  energy:            108.7168773

- temperature:       660.0000000
  free_energy:      -245.5723283
  entropy:           539.3278431
  heat_capacity:     166.7211417
  energy:            110.3840482

- temperature:       670.0000000
  free_energy:      -250.9781740
  entropy:           541.8350341
  heat_capacity:     166.7289398
  energy:            112.0512989

- temperature:       680.0000000
  free_energy:      -256.4089055
  entropy:           544.3051931
  heat_capacity:     166.7363970
  energy:            113.7186258

- temperature:       690.0000000
  free_energy:      -261.8641580
  entropy:           546.7393967
  heat_capacity:     166.7435329
  energy:            115.3860257

- temperature:       700.0000000
  free_energy:      -267.3435770
  entropy:           549.1386750
  heat_capacity:     166.7503657
  energy:            117.0534955

- temperature:       710.0000000
  free_energy:      -272.8468183
  entropy:           551.5040147
  heat_capacity:     166.7569124
  energy:            118.7210321

- temperature:       720.0000000
  free_energy:      -278.3735473
  entropy:           553.8363614
  heat_capacity:     166.7631886
  energy:            120.3886328

- temperature:       730.0000000
  free_energy:      -283.9234386
  entropy:           556.1366214
  heat_capacity:     166.7692091
  energy:            122.0562950

- temperature:       740.0000000
  free_energy:      -289.4961757
  entropy:           558.4056648
  heat_capacity:     166.7749875
  energy:            123.7240162

- temperature:       750.0000000
  free_energy:      -295.0914507
  entropy:           560.6443262
  heat_capacity:     166.7805367
  energy:            125.3917940

- temperature:       760.0000000
  free_energy:      -300.7089636
  entropy:           562.8534077
  heat_capacity:     166.7858686
  energy:            127.0596262

- temperature:       770.0000000
  free_energy:      -306.3484228
  entropy:           565.0336798
  heat_capacity:     166.7909945
  energy:            128.7275107

- temperature:       780.0000000
  free_energy:      -312.0095437
  entropy:           567.1858835
  heat_capacity:     166.7959247
  energy:            130.3954455

- temperature:       790.0000000
  free_energy:      -317.6920493
  entropy:           569.3107314
  heat_capacity:     166.8006692
  energy:            132.0634286

- temperature:       800.0000000
  free_energy:      -323.3956694
  entropy:           571.4089096
  heat_capacity:     166.8052371
  energy:            133.7314583

- temperature:       810.0000000
  free_energy:      -329.1201408
  entropy:           573.4810784
  heat_capacity:     166.8096371
  energy:            135.3995328

- temperature:       820.0000000
  free_energy:      -334.8652064
  entropy:           575.5278742
  heat_capacity:     166.8138773
  energy:            137.0676505

- temperature:       830.0000000
  free_energy:      -340.6306157
  entropy:           577.5499103
  heat_capacity:     166.8179653
  energy:            138.7358098

- temperature:       840.0000000
  free_energy:      -346.4161241
  entropy:           579.5477778
  heat_capacity:     166.8219084
  energy:            140.4040093

- temperature:       850.0000000
  free_energy:      -352.2214926
  entropy:           581.5220472
  heat_capacity:     166.8257133
  energy:            142.0722475

- temperature:       860.0000000
  free_energy:      -358.0464882
  entropy:           583.4732689
  heat_capacity:     166.8293864
  energy:            143.7405231

- temperature:       870.0000000
  free_energy:      -363.8908829
  entropy:           585.4019744
  heat_capacity:     166.8329338
  energy:            145.4088348

- temperature:       880.0000000
  free_energy:      -369.7544543
  entropy:           587.3086769
  heat_capacity:     166.8363610
  energy:            147.0771814

- temperature:       890.0000000
  free_energy:      -375.6369848
  entropy:           589.1938724
  heat_capacity:     166.8396735
  energy:            148.7455617

- temperature:       900.0000000
  free_energy:      -381.5382617
  entropy:           591.0580402
  heat_capacity:     166.8428763
  energy:            150.4139745

- temperature:       910.0000000
  free_energy:      -387.4580770
  entropy:           592.9016438
  heat_capacity:     166.8459741
  energy:            152.0824188

- temperature:       920.0000000
  free_energy:      -393.3962275
  entropy:           594.7251317
  heat_capacity:     166.8489717
  energy:            153.7508936

- temperature:       930.0000000
  free_energy:      -399.3525141
  entropy:           596.5289377
  heat_capacity:     166.8518731
  energy:            155.4193979

- temperature:       940.0000000
  free_energy:      -405.3267421
  entropy:           598.3134818
  heat_capacity:     166.8546826
  energy:            157.0879308

- temperature:       950.0000000
  free_energy:      -411.3187209
  entropy:           600.0791707
  heat_capacity:     166.8574038
  energy:            158.7564913

- temperature:       960.0000000
  free_energy:      -417.3282639
  entropy:           601.8263985
  heat_capacity:     166.8600406
  energy:            160.4250786

- temperature:       970.0000000
  free_energy:      -423.3551886
  entropy:           603.5555468
  heat_capacity:     166.8625963
  energy:            162.0936918

- temperature:       980.0000000
  free_energy:      -429.3993158
  entropy:           605.2669858
  heat_capacity:     166.8650742
  energy:            163.7623303

- temperature:       990.0000000
  free_energy:      -435.4604705
  entropy:           606.9610743
  heat_capacity:     166.8674775
  energy:            165.4309931

- temperature:      1000.0000000
  free_energy:      -441.5384807
  entropy:           608.6381602
  heat_capacity:     166.8698091
  energy:            167.0996796
