# Thermal properties / unit cell (natom)

unit:
  temperature:   K
  free_energy:   kJ/mol
  entropy:       J/K/mol
  heat_capacity: J/K/mol

natom: 6    
cutoff_frequency: 0.00000
num_modes: 176256
num_integrated_modes: 176254

zero_point_energy:      19.3363869

thermal_properties:
- temperature:         0.0000000
  free_energy:        19.3363869
  entropy:             0.0000000
  heat_capacity:       0.0000000
  energy:             19.3363869

- temperature:        10.0000000
  free_energy:        19.3344639
  entropy:             0.7739529
  heat_capacity:       2.5184100
  energy:             19.3422034

- temperature:        20.0000000
  free_energy:        19.3030628
  entropy:             6.6150667
  heat_capacity:      17.9509243
  energy:             19.4353642

- temperature:        30.0000000
  free_energy:        19.1854732
  entropy:            17.3801781
  heat_capacity:      35.6415550
  energy:             19.7068785

- temperature:        40.0000000
  free_energy:        18.9513270
  entropy:            29.4718674
  heat_capacity:      48.1995863
  energy:             20.1302017

- temperature:        50.0000000
  free_energy:        18.5973023
  entropy:            41.2246335
  heat_capacity:      57.0522293
  energy:             20.6585339

- temperature:        60.0000000
  free_energy:        18.1291970
  entropy:            52.2802954
  heat_capacity:      64.2960467
  energy:             21.2660147

- temperature:        70.0000000
  free_energy:        17.5538234
  entropy:            62.6991261
  heat_capacity:      71.0068123
  energy:             21.9427622

- temperature:        80.0000000
  free_energy:        16.8769137
  entropy:            72.6069006
  heat_capacity:      77.5017196
  energy:             22.6854658

- temperature:        90.0000000
  free_energy:        16.1030646
  entropy:            82.0995752
  heat_capacity:      83.7632913
  energy:             23.4920264

- temperature:       100.0000000
  free_energy:        15.2361103
  entropy:            91.2349665
  heat_capacity:      89.6882618
  energy:             24.3596070

- temperature:       110.0000000
  free_energy:        14.2794491
  entropy:           100.0447550
  heat_capacity:      95.1888628
  energy:             25.2843721

- temperature:       120.0000000
  free_energy:        13.2362417
  entropy:           108.5463982
  heat_capacity:     100.2183033
  energy:             26.2618095

- temperature:       130.0000000
  free_energy:        12.1095113
  entropy:           116.7509331
  heat_capacity:     104.7669091
  energy:             27.2871326

- temperature:       140.0000000
  free_energy:        10.9021838
  entropy:           124.6672360
  heat_capacity:     108.8507588
  energy:             28.3555968

- temperature:       150.0000000
  free_energy:         9.6170983
  entropy:           132.3040216
  heat_capacity:     112.5009886
  energy:             29.4627016

- temperature:       160.0000000
  free_energy:         8.2570042
  entropy:           139.6705909
  heat_capacity:     115.7559104
  energy:             30.6042987

- temperature:       170.0000000
  free_energy:         6.8245539
  entropy:           146.7769577
  heat_capacity:     118.6558750
  energy:             31.7766367

- temperature:       180.0000000
  free_energy:         5.3222971
  entropy:           153.6337075
  heat_capacity:     121.2402199
  energy:             32.9763645

- temperature:       190.0000000
  free_energy:         3.7526754
  entropy:           160.2517701
  heat_capacity:     123.5456321
  energy:             34.2005117

- temperature:       200.0000000
  free_energy:         2.1180205
  entropy:           166.6421910
  heat_capacity:     125.6054072
  energy:             35.4464587

- temperature:       210.0000000
  free_energy:         0.4205538
  entropy:           172.8159365
  heat_capacity:     127.4492434
  energy:             36.7119005

- temperature:       220.0000000
  free_energy:        -1.3376118
  entropy:           178.7837421
  heat_capacity:     129.1033376
  energy:             37.9948115

- temperature:       230.0000000
  free_energy:        -3.1544692
  entropy:           184.5560036
  heat_capacity:     130.5906353
  energy:             39.2934116

- temperature:       240.0000000
  free_energy:        -5.0281134
  entropy:           190.1427023
  heat_capacity:     131.9311488
  energy:             40.6061352

- temperature:       250.0000000
  free_energy:        -6.9567365
  entropy:           195.5533605
  heat_capacity:     133.1422907
  energy:             41.9316036

- temperature:       260.0000000
  free_energy:        -8.9386240
  entropy:           200.7970169
  heat_capacity:     134.2391971
  energy:             43.2686004

- temperature:       270.0000000
  free_energy:       -10.9721488
  entropy:           205.8822205
  heat_capacity:     135.2350246
  energy:             44.6160508

- temperature:       280.0000000
  free_energy:       -13.0557671
  entropy:           210.8170337
  heat_capacity:     136.1412176
  energy:             45.9730023

- temperature:       290.0000000
  free_energy:       -15.1880135
  entropy:           215.6090455
  heat_capacity:     136.9677423
  energy:             47.3386097

- temperature:       300.0000000
  free_energy:       -17.3674959
  entropy:           220.2653885
  heat_capacity:     137.7232918
  energy:             48.7121207

- temperature:       310.0000000
  free_energy:       -19.5928914
  entropy:           224.7927606
  heat_capacity:     138.4154621
  energy:             50.0928644

- temperature:       320.0000000
  free_energy:       -21.8629422
  entropy:           229.1974472
  heat_capacity:     139.0509041
  energy:             51.4802409

- temperature:       330.0000000
  free_energy:       -24.1764511
  entropy:           233.4853454
  heat_capacity:     139.6354532
  energy:             52.8737129

- temperature:       340.0000000
  free_energy:       -26.5322783
  entropy:           237.6619876
  heat_capacity:     140.1742408
  energy:             54.2727975

- temperature:       350.0000000
  free_energy:       -28.9293373
  entropy:           241.7325646
  heat_capacity:     140.6717891
  energy:             55.6770603

- temperature:       360.0000000
  free_energy:       -31.3665923
  entropy:           245.7019485
  heat_capacity:     141.1320925
  energy:             57.0861092

- temperature:       370.0000000
  free_energy:       -33.8430543
  entropy:           249.5747138
  heat_capacity:     141.5586872
  energy:             58.4995898

- temperature:       380.0000000
  free_energy:       -36.3577788
  entropy:           253.3551577
  heat_capacity:     141.9547107
  energy:             59.9171811

- temperature:       390.0000000
  free_energy:       -38.9098632
  entropy:           257.0473196
  heat_capacity:     142.3229528
  energy:             61.3385915

- temperature:       400.0000000
  free_energy:       -41.4984436
  entropy:           260.6549987
  heat_capacity:     142.6658995
  energy:             62.7635559

- temperature:       410.0000000
  free_energy:       -44.1226935
  entropy:           264.1817709
  heat_capacity:     142.9857713
  energy:             64.1918326

- temperature:       420.0000000
  free_energy:       -46.7818206
  entropy:           267.6310039
  heat_capacity:     143.2845550
  energy:             65.6232010

- temperature:       430.0000000
  free_energy:       -49.4750657
  entropy:           271.0058722
  heat_capacity:     143.5640322
  energy:             67.0574593

- temperature:       440.0000000
  free_energy:       -52.2017002
  entropy:           274.3093701
  heat_capacity:     143.8258039
  energy:             68.4944227

- temperature:       450.0000000
  free_energy:       -54.9610246
  entropy:           277.5443241
  heat_capacity:     144.0713113
  energy:             69.9339212

- temperature:       460.0000000
  free_energy:       -57.7523671
  entropy:           280.7134046
  heat_capacity:     144.3018542
  energy:             71.3757990

- temperature:       470.0000000
  free_energy:       -60.5750816
  entropy:           283.8191360
  heat_capacity:     144.5186075
  energy:             72.8199124

- temperature:       480.0000000
  free_energy:       -63.4285466
  entropy:           286.8639070
  heat_capacity:     144.7226342
  energy:             74.2661287

- temperature:       490.0000000
  free_energy:       -66.3121641
  entropy:           289.8499794
  heat_capacity:     144.9148987
  energy:             75.7143258

- temperature:       500.0000000
  free_energy:       -69.2253577
  entropy:           292.7794963
  heat_capacity:     145.0962768
  energy:             77.1643904

- temperature:       510.0000000
  free_energy:       -72.1675723
  entropy:           295.6544902
  heat_capacity:     145.2675653
  energy:             78.6162177

- temperature:       520.0000000
  free_energy:       -75.1382722
  entropy:           298.4768899
  heat_capacity:     145.4294903
  energy:             80.0697105

- temperature:       530.0000000
  free_energy:       -78.1369409
  entropy:           301.2485272
  heat_capacity:     145.5827147
  energy:             81.5247786

- temperature:       540.0000000
  free_energy:       -81.1630794
  entropy:           303.9711430
  heat_capacity:     145.7278442
  energy:             82.9813379

- temperature:       550.0000000
  free_energy:       -84.2162058
  entropy:           306.6463930
  heat_capacity:     145.8654334
  energy:             84.4393103

- temperature:       560.0000000
  free_energy:       -87.2958546
  entropy:           309.2758530
  heat_capacity:     145.9959906
  energy:             85.8986231

- temperature:       570.0000000
  free_energy:       -90.4015753
  entropy:           311.8610237
  heat_capacity:     146.1199824
  energy:             87.3592082

- temperature:       580.0000000
  free_energy:       -93.5329322
  entropy:           314.4033354
  heat_capacity:     146.2378379
  energy:             88.8210023

- temperature:       590.0000000
  free_energy:       -96.6895037
  entropy:           316.9041518
  heat_capacity:     146.3499519
  energy:             90.2839459

- temperature:       600.0000000
  free_energy:       -99.8708813
  entropy:           319.3647745
  heat_capacity:     146.4566880
  energy:             91.7479834

- temperature:       610.0000000
  free_energy:      -103.0766693
  entropy:           321.7864462
  heat_capacity:     146.5583822
  energy:             93.2130628

- temperature:       620.0000000
  free_energy:      -106.3064843
  entropy:           324.1703542
  heat_capacity:     146.6553445
  energy:             94.6791353

- temperature:       630.0000000
  free_energy:      -109.5599543
  entropy:           326.5176337
  heat_capacity:     146.7478617
  energy:             96.1461549

- temperature:       640.0000000
  free_energy:      -112.8367185
  entropy:           328.8293705
  heat_capacity:     146.8361995
  energy:             97.6140786

- temperature:       650.0000000
  free_energy:      -116.1364267
  entropy:           331.1066039
  heat_capacity:     146.9206041
  energy:             99.0828658

- temperature:       660.0000000
  free_energy:      -119.4587389
  entropy:           333.3503291
  heat_capacity:     147.0013039
  energy:            100.5524783

- temperature:       670.0000000
  free_energy:      -122.8033248
  entropy:           335.5615000
  heat_capacity:     147.0785112
  energy:            102.0228802

- temperature:       680.0000000
  free_energy:      -126.1698635
  entropy:           337.7410309
  heat_capacity:     147.1524233
  energy:            103.4940376

- temperature:       690.0000000
  free_energy:      -129.5580429
  entropy:           339.8897988
  heat_capacity:     147.2232240
  energy:            104.9659183

- temperature:       700.0000000
  free_energy:      -132.9675597
  entropy:           342.0086456
  heat_capacity:     147.2910843
  energy:            106.4384922

- temperature:       710.0000000
  free_energy:      -136.3981188
  entropy:           344.0983796
  heat_capacity:     147.3561640
  energy:            107.9117307

- temperature:       720.0000000
  free_energy:      -139.8494328
  entropy:           346.1597772
  heat_capacity:     147.4186119
  energy:            109.3856067

- temperature:       730.0000000
  free_energy:      -143.3212223
  entropy:           348.1935849
  heat_capacity:     147.4785674
  energy:            110.8600947

- temperature:       740.0000000
  free_energy:      -146.8132150
  entropy:           350.2005205
  heat_capacity:     147.5361605
  energy:            112.3351702

- temperature:       750.0000000
  free_energy:      -150.3251455
  entropy:           352.1812745
  heat_capacity:     147.5915132
  energy:            113.8108104

- temperature:       760.0000000
  free_energy:      -153.8567554
  entropy:           354.1365116
  heat_capacity:     147.6447395
  energy:            115.2869934

- temperature:       770.0000000
  free_energy:      -157.4077928
  entropy:           356.0668718
  heat_capacity:     147.6959465
  energy:            116.7636985

- temperature:       780.0000000
  free_energy:      -160.9780120
  entropy:           357.9729717
  heat_capacity:     147.7452344
  energy:            118.2409059

- temperature:       790.0000000
  free_energy:      -164.5671733
  entropy:           359.8554056
  heat_capacity:     147.7926977
  energy:            119.7185971

- temperature:       800.0000000
  free_energy:      -168.1750431
  entropy:           361.7147465
  heat_capacity:     147.8384247
  energy:            121.1967541

- temperature:       810.0000000
  free_energy:      -171.8013931
  entropy:           363.5515472
  heat_capacity:     147.8824988
  energy:            122.6753601

- temperature:       820.0000000
  free_energy:      -175.4460007
  entropy:           365.3663409
  heat_capacity:     147.9249983
  energy:            124.1543988

- temperature:       830.0000000
  free_energy:      -179.1086483
  entropy:           367.1596426
  heat_capacity:     147.9659971
  energy:            125.6338550

- temperature:       840.0000000
  free_energy:      -182.7891236
  entropy:           368.9319495
  heat_capacity:     148.0055647
  energy:            127.1137140

- temperature:       850.0000000
  free_energy:      -186.4872189
  entropy:           370.6837420
  heat_capacity:     148.0437666
  energy:            128.5939618

- temperature:       860.0000000
  free_energy:      -190.2027316
  entropy:           372.4154844
  heat_capacity:     148.0806648
  energy:            130.0745850

- temperature:       870.0000000
  free_energy:      -193.9354633
  entropy:           374.1276255
  heat_capacity:     148.1163176
  energy:            131.5555709

- temperature:       880.0000000
  free_energy:      -197.6852202
  entropy:           375.8205995
  heat_capacity:     148.1507803
  energy:            133.0369074

- temperature:       890.0000000
  free_energy:      -201.4518128
  entropy:           377.4948264
  heat_capacity:     148.1841051
  energy:            134.5185827

- temperature:       900.0000000
  free_energy:      -205.2350556
  entropy:           379.1507127
  heat_capacity:     148.2163412
  energy:            136.0005858

- temperature:       910.0000000
  free_energy:      -209.0347672
  entropy:           380.7886520
  heat_capacity:     148.2475356
  energy:            137.4829061

- temperature:       920.0000000
  free_energy:      -212.8507701
  entropy:           382.4090253
  heat_capacity:     148.2777323
  energy:            138.9655332

- temperature:       930.0000000
  free_energy:      -216.6828904
  entropy:           384.0122021
  heat_capacity:     148.3069734
  energy:            140.4484575

- temperature:       940.0000000
  free_energy:      -220.5309580
  entropy:           385.5985400
  heat_capacity:     148.3352986
  energy:            141.9316696

- temperature:       950.0000000
  free_energy:      -224.3948062
  entropy:           387.1683861
  heat_capacity:     148.3627457
  energy:            143.4151606

- temperature:       960.0000000
  free_energy:      -228.2742719
  entropy:           388.7220767
  heat_capacity:     148.3893505
  energy:            144.8989218

- temperature:       970.0000000
  free_energy:      -232.1691950
  entropy:           390.2599380
  heat_capacity:     148.4151469
  energy:            146.3829449

- temperature:       980.0000000
  free_energy:      -236.0794189
  entropy:           391.7822868
  heat_capacity:     148.4401673
  energy:            147.8672221

- temperature:       990.0000000
  free_energy:      -240.0047901
  entropy:           393.2894301
  heat_capacity:     148.4644424
  energy:            149.3517458

- temperature:      1000.0000000
  free_energy:      -243.9451578
  entropy:           394.7816664
  heat_capacity:     148.4880015
  energy:            150.8365086
