# Thermal properties / unit cell (natom)

unit:
  temperature:   K
  free_energy:   kJ/mol
  entropy:       J/K/mol
  heat_capacity: J/K/mol

natom: 11   
cutoff_frequency: 0.00000
num_modes: 515625
num_integrated_modes: 515622

zero_point_energy:      44.2300764

thermal_properties:
- temperature:         0.0000000
  free_energy:        44.2300764
  entropy:             0.0000000
  heat_capacity:       0.0000000
  energy:             44.2300764

- temperature:        10.0000000
  free_energy:        44.2284536
  entropy:             0.6641576
  heat_capacity:       2.0990647
  energy:             44.2350951

- temperature:        20.0000000
  free_energy:        44.2023341
  entropy:             5.4788390
  heat_capacity:      14.9208297
  energy:             44.3119109

- temperature:        30.0000000
  free_energy:        44.1039952
  entropy:            14.6937166
  heat_capacity:      31.5545528
  energy:             44.5448067

- temperature:        40.0000000
  free_energy:        43.9019708
  entropy:            25.9120579
  heat_capacity:      46.9722406
  energy:             44.9384531

- temperature:        50.0000000
  free_energy:        43.5830165
  entropy:            37.9751324
  heat_capacity:      61.6369543
  energy:             45.4817732

- temperature:        60.0000000
  free_energy:        43.1409521
  entropy:            50.4998158
  heat_capacity:      76.2080108
  energy:             46.1709411

- temperature:        70.0000000
  free_energy:        42.5719524
  entropy:            63.3461235
  heat_capacity:      90.8419499
  energy:             47.0061811

- temperature:        80.0000000
  free_energy:        41.8732481
  entropy:            76.4267560
  heat_capacity:     105.3546634
  energy:             47.9873886

- temperature:        90.0000000
  free_energy:        41.0429259
  entropy:            89.6546250
  heat_capacity:     119.4388798
  energy:             49.1118421

- temperature:       100.0000000
  free_energy:        40.0799705
  entropy:           102.9381298
  heat_capacity:     132.8114046
  energy:             50.3737835

- temperature:       110.0000000
  free_energy:        38.9842742
  entropy:           116.1887143
  heat_capacity:     145.2759196
  energy:             51.7650328

- temperature:       120.0000000
  free_energy:        37.7565689
  entropy:           129.3279732
  heat_capacity:     156.7301327
  energy:             53.2759256

- temperature:       130.0000000
  free_energy:        36.3983027
  entropy:           142.2913291
  heat_capacity:     167.1481185
  energy:             54.8961755

- temperature:       140.0000000
  free_energy:        34.9114969
  entropy:           155.0287392
  heat_capacity:     176.5568770
  energy:             56.6155204

- temperature:       150.0000000
  free_energy:        33.2986044
  entropy:           167.5036012
  heat_capacity:     185.0156240
  energy:             58.4241446

- temperature:       160.0000000
  free_energy:        31.5623847
  entropy:           179.6908371
  heat_capacity:     192.6002870
  energy:             60.3129186

- temperature:       170.0000000
  free_energy:        29.7057995
  entropy:           191.5747710
  heat_capacity:     199.3929988
  energy:             62.2735105

- temperature:       180.0000000
  free_energy:        27.7319285
  entropy:           203.1471294
  heat_capacity:     205.4755161
  energy:             64.2984118

- temperature:       190.0000000
  free_energy:        25.6439046
  entropy:           214.4053065
  heat_capacity:     210.9254236
  energy:             66.3809129

- temperature:       200.0000000
  free_energy:        23.4448645
  entropy:           225.3509301
  heat_capacity:     215.8141911
  energy:             68.5150506

- temperature:       210.0000000
  free_energy:        21.1379124
  entropy:           235.9887137
  heat_capacity:     220.2063994
  energy:             70.6955423

- temperature:       220.0000000
  free_energy:        18.7260936
  entropy:           246.3255572
  heat_capacity:     224.1596674
  energy:             72.9177162

- temperature:       230.0000000
  free_energy:        16.2123765
  entropy:           256.3698547
  heat_capacity:     227.7249742
  energy:             75.1774431

- temperature:       240.0000000
  free_energy:        13.5996405
  entropy:           266.1309671
  heat_capacity:     230.9471810
  energy:             77.4710726

- temperature:       250.0000000
  free_energy:        10.8906680
  entropy:           275.6188268
  heat_capacity:     233.8656344
  energy:             79.7953747

- temperature:       260.0000000
  free_energy:         8.0881408
  entropy:           284.8436435
  heat_capacity:     236.5147816
  energy:             82.1474881

- temperature:       270.0000000
  free_energy:         5.1946377
  entropy:           293.8156882
  heat_capacity:     238.9247577
  energy:             84.5248736

- temperature:       280.0000000
  free_energy:         2.2126356
  entropy:           302.5451379
  heat_capacity:     241.1219276
  energy:             86.9252742

- temperature:       290.0000000
  free_energy:        -0.8554896
  entropy:           311.0419643
  heat_capacity:     243.1293721
  energy:             89.3466800

- temperature:       300.0000000
  free_energy:        -4.0074606
  entropy:           319.3158585
  heat_capacity:     244.9673185
  energy:             91.7872970

- temperature:       310.0000000
  free_energy:        -7.2410949
  entropy:           327.3761798
  heat_capacity:     246.6535183
  energy:             94.2455208

- temperature:       320.0000000
  free_energy:       -10.5543023
  entropy:           335.2319251
  heat_capacity:     248.2035748
  energy:             96.7199137

- temperature:       330.0000000
  free_energy:       -13.9450803
  entropy:           342.8917114
  heat_capacity:     249.6312282
  energy:             99.2091845

- temperature:       340.0000000
  free_energy:       -17.4115108
  entropy:           350.3637696
  heat_capacity:     250.9486003
  energy:            101.7121708

- temperature:       350.0000000
  free_energy:       -20.9517561
  entropy:           357.6559452
  heat_capacity:     252.1664064
  energy:            104.2278247

- temperature:       360.0000000
  free_energy:       -24.5640550
  entropy:           364.7757052
  heat_capacity:     253.2941375
  energy:            106.7551988

- temperature:       370.0000000
  free_energy:       -28.2467192
  entropy:           371.7301476
  heat_capacity:     254.3402173
  energy:            109.2934354

- temperature:       380.0000000
  free_energy:       -31.9981294
  entropy:           378.5260145
  heat_capacity:     255.3121375
  energy:            111.8417561

- temperature:       390.0000000
  free_energy:       -35.8167323
  entropy:           385.1697066
  heat_capacity:     256.2165744
  energy:            114.3994533

- temperature:       400.0000000
  free_energy:       -39.7010366
  entropy:           391.6672979
  heat_capacity:     257.0594896
  energy:            116.9658826

- temperature:       410.0000000
  free_energy:       -43.6496105
  entropy:           398.0245520
  heat_capacity:     257.8462170
  energy:            119.5404558

- temperature:       420.0000000
  free_energy:       -47.6610781
  entropy:           404.2469374
  heat_capacity:     258.5815386
  energy:            122.1226356

- temperature:       430.0000000
  free_energy:       -51.7341170
  entropy:           410.3396433
  heat_capacity:     259.2697493
  energy:            124.7119296

- temperature:       440.0000000
  free_energy:       -55.8674552
  entropy:           416.3075946
  heat_capacity:     259.9147143
  energy:            127.3078865

- temperature:       450.0000000
  free_energy:       -60.0598686
  entropy:           422.1554668
  heat_capacity:     260.5199181
  energy:            129.9100914

- temperature:       460.0000000
  free_energy:       -64.3101791
  entropy:           427.8876997
  heat_capacity:     261.0885077
  energy:            132.5181628

- temperature:       470.0000000
  free_energy:       -68.6172513
  entropy:           433.5085113
  heat_capacity:     261.6233307
  energy:            135.1317490

- temperature:       480.0000000
  free_energy:       -72.9799913
  entropy:           439.0219099
  heat_capacity:     262.1269674
  energy:            137.7505255

- temperature:       490.0000000
  free_energy:       -77.3973441
  entropy:           444.4317069
  heat_capacity:     262.6017606
  energy:            140.3741923

- temperature:       500.0000000
  free_energy:       -81.8682922
  entropy:           449.7415277
  heat_capacity:     263.0498403
  energy:            143.0024717

- temperature:       510.0000000
  free_energy:       -86.3918530
  entropy:           454.9548225
  heat_capacity:     263.4731465
  energy:            145.6351065

- temperature:       520.0000000
  free_energy:       -90.9670778
  entropy:           460.0748765
  heat_capacity:     263.8734487
  energy:            148.2718580

- temperature:       530.0000000
  free_energy:       -95.5930501
  entropy:           465.1048195
  heat_capacity:     264.2523633
  energy:            150.9125042

- temperature:       540.0000000
  free_energy:      -100.2688838
  entropy:           470.0476346
  heat_capacity:     264.6113688
  energy:            153.5568389

- temperature:       550.0000000
  free_energy:      -104.9937219
  entropy:           474.9061666
  heat_capacity:     264.9518201
  energy:            156.2046697

- temperature:       560.0000000
  free_energy:      -109.7667353
  entropy:           479.6831301
  heat_capacity:     265.2749598
  energy:            158.8558176

- temperature:       570.0000000
  free_energy:      -114.5871213
  entropy:           484.3811163
  heat_capacity:     265.5819294
  energy:            161.5101151

- temperature:       580.0000000
  free_energy:      -119.4541026
  entropy:           489.0026006
  heat_capacity:     265.8737792
  energy:            164.1674058

- temperature:       590.0000000
  free_energy:      -124.3669262
  entropy:           493.5499485
  heat_capacity:     266.1514760
  energy:            166.8275435

- temperature:       600.0000000
  free_energy:      -129.3248620
  entropy:           498.0254218
  heat_capacity:     266.4159117
  energy:            169.4903911

- temperature:       610.0000000
  free_energy:      -134.3272022
  entropy:           502.4311844
  heat_capacity:     266.6679097
  energy:            172.1558203

- temperature:       620.0000000
  free_energy:      -139.3732602
  entropy:           506.7693074
  heat_capacity:     266.9082308
  energy:            174.8237104

- temperature:       630.0000000
  free_energy:      -144.4623695
  entropy:           511.0417743
  heat_capacity:     267.1375793
  energy:            177.4939483

- temperature:       640.0000000
  free_energy:      -149.5938832
  entropy:           515.2504856
  heat_capacity:     267.3566075
  energy:            180.1664276

- temperature:       650.0000000
  free_energy:      -154.7671728
  entropy:           519.3972629
  heat_capacity:     267.5659205
  energy:            182.8410481

- temperature:       660.0000000
  free_energy:      -159.9816278
  entropy:           523.4838535
  heat_capacity:     267.7660799
  energy:            185.5177155

- temperature:       670.0000000
  free_energy:      -165.2366549
  entropy:           527.5119340
  heat_capacity:     267.9576077
  energy:            188.1963409

- temperature:       680.0000000
  free_energy:      -170.5316769
  entropy:           531.4831137
  heat_capacity:     268.1409896
  energy:            190.8768405

- temperature:       690.0000000
  free_energy:      -175.8661326
  entropy:           535.3989387
  heat_capacity:     268.3166776
  energy:            193.5591350

- temperature:       700.0000000
  free_energy:      -181.2394761
  entropy:           539.2608941
  heat_capacity:     268.4850934
  energy:            196.2431498

- temperature:       710.0000000
  free_energy:      -186.6511757
  entropy:           543.0704080
  heat_capacity:     268.6466299
  energy:            198.9288140

- temperature:       720.0000000
  free_energy:      -192.1007140
  entropy:           546.8288538
  heat_capacity:     268.8016545
  energy:            201.6160607

- temperature:       730.0000000
  free_energy:      -197.5875870
  entropy:           550.5375527
  heat_capacity:     268.9505102
  energy:            204.3048265

- temperature:       740.0000000
  free_energy:      -203.1113035
  entropy:           554.1977769
  heat_capacity:     269.0935181
  energy:            206.9950514

- temperature:       750.0000000
  free_energy:      -208.6713850
  entropy:           557.8107512
  heat_capacity:     269.2309786
  energy:            209.6866784

- temperature:       760.0000000
  free_energy:      -214.2673650
  entropy:           561.3776558
  heat_capacity:     269.3631733
  energy:            212.3796534

- temperature:       770.0000000
  free_energy:      -219.8987884
  entropy:           564.8996280
  heat_capacity:     269.4903662
  energy:            215.0739252

- temperature:       780.0000000
  free_energy:      -225.5652114
  entropy:           568.3777645
  heat_capacity:     269.6128052
  energy:            217.7694449

- temperature:       790.0000000
  free_energy:      -231.2662011
  entropy:           571.8131231
  heat_capacity:     269.7307228
  energy:            220.4661662

- temperature:       800.0000000
  free_energy:      -237.0013347
  entropy:           575.2067246
  heat_capacity:     269.8443380
  energy:            223.1640450

- temperature:       810.0000000
  free_energy:      -242.7701996
  entropy:           578.5595543
  heat_capacity:     269.9538562
  energy:            225.8630393

- temperature:       820.0000000
  free_energy:      -248.5723930
  entropy:           581.8725636
  heat_capacity:     270.0594713
  energy:            228.5631091

- temperature:       830.0000000
  free_energy:      -254.4075212
  entropy:           585.1466718
  heat_capacity:     270.1613656
  energy:            231.2642163

- temperature:       840.0000000
  free_energy:      -260.2751998
  entropy:           588.3827671
  heat_capacity:     270.2597110
  energy:            233.9663246

- temperature:       850.0000000
  free_energy:      -266.1750527
  entropy:           591.5817083
  heat_capacity:     270.3546697
  energy:            236.6693993

- temperature:       860.0000000
  free_energy:      -272.1067128
  entropy:           594.7443257
  heat_capacity:     270.4463947
  energy:            239.3734072

- temperature:       870.0000000
  free_energy:      -278.0698209
  entropy:           597.8714227
  heat_capacity:     270.5350304
  energy:            242.0783169

- temperature:       880.0000000
  free_energy:      -284.0640255
  entropy:           600.9637767
  heat_capacity:     270.6207136
  energy:            244.7840980

- temperature:       890.0000000
  free_energy:      -290.0889831
  entropy:           604.0221403
  heat_capacity:     270.7035733
  energy:            247.4907217

- temperature:       900.0000000
  free_energy:      -296.1443574
  entropy:           607.0472421
  heat_capacity:     270.7837316
  energy:            250.1981605

- temperature:       910.0000000
  free_energy:      -302.2298194
  entropy:           610.0397881
  heat_capacity:     270.8613044
  energy:            252.9063878

- temperature:       920.0000000
  free_energy:      -308.3450470
  entropy:           613.0004622
  heat_capacity:     270.9364012
  energy:            255.6153783

- temperature:       930.0000000
  free_energy:      -314.4897246
  entropy:           615.9299274
  heat_capacity:     271.0091258
  energy:            258.3251079

- temperature:       940.0000000
  free_energy:      -320.6635436
  entropy:           618.8288264
  heat_capacity:     271.0795767
  energy:            261.0355532

- temperature:       950.0000000
  free_energy:      -326.8662014
  entropy:           621.6977826
  heat_capacity:     271.1478474
  energy:            263.7466921

- temperature:       960.0000000
  free_energy:      -333.0974015
  entropy:           624.5374007
  heat_capacity:     271.2140266
  energy:            266.4585032

- temperature:       970.0000000
  free_energy:      -339.3568535
  entropy:           627.3482675
  heat_capacity:     271.2781985
  energy:            269.1709660

- temperature:       980.0000000
  free_energy:      -345.6442729
  entropy:           630.1309527
  heat_capacity:     271.3404432
  energy:            271.8840608

- temperature:       990.0000000
  free_energy:      -351.9593805
  entropy:           632.8860093
  heat_capacity:     271.4008369
  energy:            274.5977687

- temperature:      1000.0000000
  free_energy:      -358.3019028
  entropy:           635.6139743
  heat_capacity:     271.4594520
  energy:            277.3120716
