# Thermal properties / unit cell (natom)

unit:
  temperature:   K
  free_energy:   kJ/mol
  entropy:       J/K/mol
  heat_capacity: J/K/mol

natom: 14   
cutoff_frequency: 0.00000
num_modes: 190512
num_integrated_modes: 190491

zero_point_energy:      52.9882142

thermal_properties:
- temperature:         0.0000000
  free_energy:        52.9882142
  entropy:             0.0000000
  heat_capacity:       0.0000000
  energy:             52.9882142

- temperature:        10.0000000
  free_energy:        52.9840834
  entropy:             1.4443902
  heat_capacity:       4.1107331
  energy:             52.9985273

- temperature:        20.0000000
  free_energy:        52.9344157
  entropy:             9.9111973
  heat_capacity:      24.9007540
  energy:             53.1326396

- temperature:        30.0000000
  free_energy:        52.7643235
  entropy:            24.7922472
  heat_capacity:      49.8289072
  energy:             53.5080909

- temperature:        40.0000000
  free_energy:        52.4304339
  entropy:            42.2031255
  heat_capacity:      71.7802635
  energy:             54.1185589

- temperature:        50.0000000
  free_energy:        51.9178302
  entropy:            60.3808509
  heat_capacity:      91.6729198
  energy:             54.9368728

- temperature:        60.0000000
  free_energy:        51.2220779
  entropy:            78.7908808
  heat_capacity:     110.7868421
  energy:             55.9495308

- temperature:        70.0000000
  free_energy:        50.3417503
  entropy:            97.2813336
  heat_capacity:     129.5331194
  energy:             57.1514437

- temperature:        80.0000000
  free_energy:        49.2764355
  entropy:           115.7762318
  heat_capacity:     147.7767561
  energy:             58.5385340

- temperature:        90.0000000
  free_energy:        48.0264689
  entropy:           134.1978918
  heat_capacity:     165.2120899
  energy:             60.1042792

- temperature:       100.0000000
  free_energy:        46.5930048
  entropy:           152.4615179
  heat_capacity:     181.5652668
  energy:             61.8391566

- temperature:       110.0000000
  free_energy:        44.9780403
  entropy:           170.4849968
  heat_capacity:     196.6635867
  energy:             63.7313900

- temperature:       120.0000000
  free_energy:        43.1843443
  entropy:           188.1971550
  heat_capacity:     210.4369209
  energy:             65.7680029

- temperature:       130.0000000
  free_energy:        41.2153246
  entropy:           205.5416267
  heat_capacity:     222.8942640
  energy:             67.9357360

- temperature:       140.0000000
  free_energy:        39.0748758
  entropy:           222.4773291
  heat_capacity:     234.0966977
  energy:             70.2217019

- temperature:       150.0000000
  free_energy:        36.7672326
  entropy:           238.9770344
  heat_capacity:     244.1348884
  energy:             72.6137878

- temperature:       160.0000000
  free_energy:        34.2968415
  entropy:           255.0251498
  heat_capacity:     253.1128870
  energy:             75.1008654

- temperature:       170.0000000
  free_energy:        31.6682567
  entropy:           270.6153607
  heat_capacity:     261.1375160
  energy:             77.6728680

- temperature:       180.0000000
  free_energy:        28.8860585
  entropy:           285.7484675
  heat_capacity:     268.3119720
  energy:             80.3207827

- temperature:       190.0000000
  free_energy:        25.9547912
  entropy:           300.4305453
  heat_capacity:     274.7323389
  energy:             83.0365948

- temperature:       200.0000000
  free_energy:        22.8789185
  entropy:           314.6714480
  heat_capacity:     280.4859906
  energy:             85.8132081

- temperature:       210.0000000
  free_energy:        19.6627915
  entropy:           328.4836310
  heat_capacity:     285.6511573
  energy:             88.6443540

- temperature:       220.0000000
  free_energy:        16.3106279
  entropy:           341.8812444
  heat_capacity:     290.2971676
  energy:             91.5245016

- temperature:       230.0000000
  free_energy:        12.8264981
  entropy:           354.8794481
  heat_capacity:     294.4850505
  energy:             94.4487711

- temperature:       240.0000000
  free_energy:         9.2143181
  entropy:           367.4939022
  heat_capacity:     298.2683022
  energy:             97.4128546

- temperature:       250.0000000
  free_energy:         5.4778465
  entropy:           379.7403938
  heat_capacity:     301.6937003
  energy:            100.4129450

- temperature:       260.0000000
  free_energy:         1.6206846
  entropy:           391.6345691
  heat_capacity:     304.8020988
  energy:            103.4456725

- temperature:       270.0000000
  free_energy:        -2.3537216
  entropy:           403.1917454
  heat_capacity:     307.6291688
  energy:            106.5080497

- temperature:       280.0000000
  free_energy:        -6.4420766
  entropy:           414.4267823
  heat_capacity:     310.2060693
  energy:            109.5974225

- temperature:       290.0000000
  free_energy:       -10.6412312
  entropy:           425.3539986
  heat_capacity:     312.5600428
  energy:            112.7114284

- temperature:       300.0000000
  free_energy:       -14.9481763
  entropy:           435.9871213
  heat_capacity:     314.7149389
  energy:            115.8479600

- temperature:       310.0000000
  free_energy:       -19.3600371
  entropy:           446.3392601
  heat_capacity:     316.6916691
  energy:            119.0051335

- temperature:       320.0000000
  free_energy:       -23.8740666
  entropy:           456.4228988
  heat_capacity:     318.5086009
  energy:            122.1812610

- temperature:       330.0000000
  free_energy:       -28.4876397
  entropy:           466.2498990
  heat_capacity:     320.1818984
  energy:            125.3748270

- temperature:       340.0000000
  free_energy:       -33.1982467
  entropy:           475.8315135
  heat_capacity:     321.7258142
  energy:            128.5844679

- temperature:       350.0000000
  free_energy:       -38.0034876
  entropy:           485.1784050
  heat_capacity:     323.1529414
  energy:            131.8089541

- temperature:       360.0000000
  free_energy:       -42.9010661
  entropy:           494.3006690
  heat_capacity:     324.4744302
  energy:            135.0471747

- temperature:       370.0000000
  free_energy:       -47.8887841
  entropy:           503.2078590
  heat_capacity:     325.7001732
  energy:            138.2981237

- temperature:       380.0000000
  free_energy:       -52.9645365
  entropy:           511.9090132
  heat_capacity:     326.8389661
  energy:            141.5608885

- temperature:       390.0000000
  free_energy:       -58.1263062
  entropy:           520.4126809
  heat_capacity:     327.8986452
  energy:            144.8346394

- temperature:       400.0000000
  free_energy:       -63.3721589
  entropy:           528.7269499
  heat_capacity:     328.8862066
  energy:            148.1186211

- temperature:       410.0000000
  free_energy:       -68.7002394
  entropy:           536.8594718
  heat_capacity:     329.8079084
  energy:            151.4121441

- temperature:       420.0000000
  free_energy:       -74.1087667
  entropy:           544.8174884
  heat_capacity:     330.6693600
  energy:            154.7145785

- temperature:       430.0000000
  free_energy:       -79.5960303
  entropy:           552.6078550
  heat_capacity:     331.4755993
  energy:            158.0253473

- temperature:       440.0000000
  free_energy:       -85.1603866
  entropy:           560.2370641
  heat_capacity:     332.2311588
  energy:            161.3439216

- temperature:       450.0000000
  free_energy:       -90.8002550
  entropy:           567.7112671
  heat_capacity:     332.9401246
  energy:            164.6698152

- temperature:       460.0000000
  free_energy:       -96.5141148
  entropy:           575.0362953
  heat_capacity:     333.6061865
  energy:            168.0025811

- temperature:       470.0000000
  free_energy:      -102.3005021
  entropy:           582.2176791
  heat_capacity:     334.2326828
  energy:            171.3418071

- temperature:       480.0000000
  free_energy:      -108.1580070
  entropy:           589.2606667
  heat_capacity:     334.8226385
  energy:            174.6871130

- temperature:       490.0000000
  free_energy:      -114.0852707
  entropy:           596.1702408
  heat_capacity:     335.3787997
  energy:            178.0381472

- temperature:       500.0000000
  free_energy:      -120.0809830
  entropy:           602.9511352
  heat_capacity:     335.9036630
  energy:            181.3945847

- temperature:       510.0000000
  free_energy:      -126.1438795
  entropy:           609.6078496
  heat_capacity:     336.3995021
  energy:            184.7561238

- temperature:       520.0000000
  free_energy:      -132.2727403
  entropy:           616.1446638
  heat_capacity:     336.8683907
  energy:            188.1224849

- temperature:       530.0000000
  free_energy:      -138.4663867
  entropy:           622.5656506
  heat_capacity:     337.3122231
  energy:            191.4934081

- temperature:       540.0000000
  free_energy:      -144.7236802
  entropy:           628.8746885
  heat_capacity:     337.7327322
  energy:            194.8686516

- temperature:       550.0000000
  free_energy:      -151.0435197
  entropy:           635.0754727
  heat_capacity:     338.1315053
  energy:            198.2479903

- temperature:       560.0000000
  free_energy:      -157.4248405
  entropy:           641.1715262
  heat_capacity:     338.5099985
  energy:            201.6312141

- temperature:       570.0000000
  free_energy:      -163.8666123
  entropy:           647.1662096
  heat_capacity:     338.8695496
  energy:            205.0181271

- temperature:       580.0000000
  free_energy:      -170.3678375
  entropy:           653.0627304
  heat_capacity:     339.2113888
  energy:            208.4085461

- temperature:       590.0000000
  free_energy:      -176.9275500
  entropy:           658.8641519
  heat_capacity:     339.5366492
  energy:            211.8022997

- temperature:       600.0000000
  free_energy:      -183.5448133
  entropy:           664.5734011
  heat_capacity:     339.8463757
  energy:            215.1992273

- temperature:       610.0000000
  free_energy:      -190.2187201
  entropy:           670.1932765
  heat_capacity:     340.1415327
  energy:            218.5991786

- temperature:       620.0000000
  free_energy:      -196.9483899
  entropy:           675.7264553
  heat_capacity:     340.4230118
  energy:            222.0020124

- temperature:       630.0000000
  free_energy:      -203.7329688
  entropy:           681.1754996
  heat_capacity:     340.6916381
  energy:            225.4075960

- temperature:       640.0000000
  free_energy:      -210.5716276
  entropy:           686.5428633
  heat_capacity:     340.9481758
  energy:            228.8158049

- temperature:       650.0000000
  free_energy:      -217.4635616
  entropy:           691.8308972
  heat_capacity:     341.1933337
  energy:            232.2265216

- temperature:       660.0000000
  free_energy:      -224.4079887
  entropy:           697.0418553
  heat_capacity:     341.4277697
  energy:            235.6396358

- temperature:       670.0000000
  free_energy:      -231.4041490
  entropy:           702.1778990
  heat_capacity:     341.6520954
  energy:            239.0550433

- temperature:       680.0000000
  free_energy:      -238.4513039
  entropy:           707.2411026
  heat_capacity:     341.8668796
  energy:            242.4726459

- temperature:       690.0000000
  free_energy:      -245.5487349
  entropy:           712.2334576
  heat_capacity:     342.0726520
  energy:            245.8923509

- temperature:       700.0000000
  free_energy:      -252.6957432
  entropy:           717.1568768
  heat_capacity:     342.2699064
  energy:            249.3140706

- temperature:       710.0000000
  free_energy:      -259.8916488
  entropy:           722.0131985
  heat_capacity:     342.4591032
  energy:            252.7377221

- temperature:       720.0000000
  free_energy:      -267.1357894
  entropy:           726.8041898
  heat_capacity:     342.6406726
  energy:            256.1632272

- temperature:       730.0000000
  free_energy:      -274.4275205
  entropy:           731.5315507
  heat_capacity:     342.8150165
  energy:            259.5905115

- temperature:       740.0000000
  free_energy:      -281.7662138
  entropy:           736.1969169
  heat_capacity:     342.9825110
  energy:            263.0195047

- temperature:       750.0000000
  free_energy:      -289.1512574
  entropy:           740.8018633
  heat_capacity:     343.1435079
  energy:            266.4501401

- temperature:       760.0000000
  free_energy:      -296.5820547
  entropy:           745.3479066
  heat_capacity:     343.2983373
  energy:            269.8823543

- temperature:       770.0000000
  free_energy:      -304.0580241
  entropy:           749.8365083
  heat_capacity:     343.4473082
  energy:            273.3160873

- temperature:       780.0000000
  free_energy:      -311.5785981
  entropy:           754.2690770
  heat_capacity:     343.5907110
  energy:            276.7512819

- temperature:       790.0000000
  free_energy:      -319.1432234
  entropy:           758.6469712
  heat_capacity:     343.7288181
  energy:            280.1878839

- temperature:       800.0000000
  free_energy:      -326.7513597
  entropy:           762.9715014
  heat_capacity:     343.8618860
  energy:            283.6258415

- temperature:       810.0000000
  free_energy:      -334.4024798
  entropy:           767.2439325
  heat_capacity:     343.9901554
  energy:            287.0651056

- temperature:       820.0000000
  free_energy:      -342.0960688
  entropy:           771.4654855
  heat_capacity:     344.1138532
  energy:            290.5056293

- temperature:       830.0000000
  free_energy:      -349.8316238
  entropy:           775.6373397
  heat_capacity:     344.2331930
  energy:            293.9473681

- temperature:       840.0000000
  free_energy:      -357.6086537
  entropy:           779.7606346
  heat_capacity:     344.3483762
  energy:            297.3902793

- temperature:       850.0000000
  free_energy:      -365.4266783
  entropy:           783.8364715
  heat_capacity:     344.4595928
  energy:            300.8343224

- temperature:       860.0000000
  free_energy:      -373.2852285
  entropy:           787.8659152
  heat_capacity:     344.5670218
  energy:            304.2794586

- temperature:       870.0000000
  free_energy:      -381.1838454
  entropy:           791.8499956
  heat_capacity:     344.6708328
  energy:            307.7256508

- temperature:       880.0000000
  free_energy:      -389.1220805
  entropy:           795.7897093
  heat_capacity:     344.7711855
  energy:            311.1728637

- temperature:       890.0000000
  free_energy:      -397.0994949
  entropy:           799.6860207
  heat_capacity:     344.8682313
  energy:            314.6210635

- temperature:       900.0000000
  free_energy:      -405.1156594
  entropy:           803.5398635
  heat_capacity:     344.9621132
  energy:            318.0702178

- temperature:       910.0000000
  free_energy:      -413.1701537
  entropy:           807.3521421
  heat_capacity:     345.0529669
  energy:            321.5202957

- temperature:       920.0000000
  free_energy:      -421.2625666
  entropy:           811.1237326
  heat_capacity:     345.1409205
  energy:            324.9712675

- temperature:       930.0000000
  free_energy:      -429.3924955
  entropy:           814.8554842
  heat_capacity:     345.2260958
  energy:            328.4231048

- temperature:       940.0000000
  free_energy:      -437.5595462
  entropy:           818.5482199
  heat_capacity:     345.3086082
  energy:            331.8757805

- temperature:       950.0000000
  free_energy:      -445.7633325
  entropy:           822.2027379
  heat_capacity:     345.3885669
  energy:            335.3292685

- temperature:       960.0000000
  free_energy:      -454.0034762
  entropy:           825.8198123
  heat_capacity:     345.4660761
  energy:            338.7835437

- temperature:       970.0000000
  free_energy:      -462.2796065
  entropy:           829.4001944
  heat_capacity:     345.5412343
  energy:            342.2385821

- temperature:       980.0000000
  free_energy:      -470.5913602
  entropy:           832.9446133
  heat_capacity:     345.6141354
  energy:            345.6943608

- temperature:       990.0000000
  free_energy:      -478.9383812
  entropy:           836.4537766
  heat_capacity:     345.6848685
  energy:            349.1508576

- temperature:      1000.0000000
  free_energy:      -487.3203205
  entropy:           839.9283717
  heat_capacity:     345.7535185
  energy:            352.6080513
