phonopy:
  version: "2.37.1"
  frequency_unit_conversion_factor: 15.633302
  symmetry_tolerance: 1.00000e-05

space_group:
  type: "I-43d"
  number: 220
  Hall_symbol: "I -4bd 2c 3"

primitive_matrix:
- [  0.000000000000000,  0.000000000000000,  1.000000000000000 ]
- [  1.000000000000000,  0.000000000000000, -0.000000000000000 ]
- [  0.000000000000000,  1.000000000000000,  0.000000000000000 ]

supercell_matrix:
- [   2,   0,   0 ]
- [   0,   2,   0 ]
- [   0,   0,   2 ]

primitive_cell:
  lattice:
  - [    -1.763519700598157,     4.987987525833362,     0.000000000000000 ] # a
  - [    -1.763519966567051,    -2.493993940275340,     4.319723918494916 ] # b
  - [     5.290559344029013,    -0.000000000000000,     0.000000000000000 ] # c
  points:
  - symbol: Ga # 1
    coordinates: [  0.874999997852506,  0.124999998728545,  0.749999997579888 ]
    mass: 69.723000
  - symbol: Ga # 2
    coordinates: [  0.249999998427708,  0.624999999448079,  0.374999998372127 ]
    mass: 69.723000
  - symbol: Ga # 3
    coordinates: [  0.624999999301970,  0.374999999195370,  0.249999999297513 ]
    mass: 69.723000
  - symbol: Ga # 4
    coordinates: [  0.125000002027404,  0.749999999436981,  0.875000002227995 ]
    mass: 69.723000
  - symbol: Ga # 5
    coordinates: [  0.375000001746293,  0.250000002491147,  0.625000003596085 ]
    mass: 69.723000
  - symbol: Ga # 6
    coordinates: [  0.750000000644357,  0.875000000700401,  0.124999998932023 ]
    mass: 69.723000
  reciprocal_lattice: # without 2pi
  - [     0.000000000000000,     0.200481656143061,     0.115748146175825 ] # a*
  - [     0.000000000000000,     0.000000000000000,     0.231496275888951 ] # b*
  - [     0.189015931014669,     0.066827215654590,     0.115748147026456 ] # c*

unit_cell:
  lattice:
  - [     5.290559344029013,     0.000000000000000,     0.000000000000000 ] # a
  - [    -1.763519700598157,     4.987987525833362,     0.000000000000000 ] # b
  - [    -1.763519966567051,    -2.493993940275341,     4.319723918494916 ] # c
  points:
  - symbol: Ga # 1
    coordinates: [  0.749999997579888,  0.874999997852506,  0.124999998728545 ]
    mass: 69.723000
    reduced_to: 1
  - symbol: Ga # 2
    coordinates: [  0.374999998372127,  0.249999998427708,  0.624999999448079 ]
    mass: 69.723000
    reduced_to: 2
  - symbol: Ga # 3
    coordinates: [  0.249999999297513,  0.624999999301970,  0.374999999195370 ]
    mass: 69.723000
    reduced_to: 3
  - symbol: Ga # 4
    coordinates: [  0.875000002227995,  0.125000002027404,  0.749999999436981 ]
    mass: 69.723000
    reduced_to: 4
  - symbol: Ga # 5
    coordinates: [  0.625000003596085,  0.375000001746293,  0.250000002491147 ]
    mass: 69.723000
    reduced_to: 5
  - symbol: Ga # 6
    coordinates: [  0.124999998932023,  0.750000000644357,  0.875000000700401 ]
    mass: 69.723000
    reduced_to: 6

supercell:
  lattice:
  - [    10.581118688058027,     0.000000000000000,     0.000000000000000 ] # a
  - [    -3.527039401196313,     9.975975051666724,     0.000000000000000 ] # b
  - [    -3.527039933134102,    -4.987987880550682,     8.639447836989833 ] # c
  points:
  - symbol: Ga # 1
    coordinates: [  0.374999998789944,  0.437499998926253,  0.062499999364272 ]
    mass: 69.723000
    reduced_to: 1
  - symbol: Ga # 2
    coordinates: [  0.874999998789944,  0.437499998926253,  0.062499999364272 ]
    mass: 69.723000
    reduced_to: 1
  - symbol: Ga # 3
    coordinates: [  0.374999998789944,  0.937499998926253,  0.062499999364272 ]
    mass: 69.723000
    reduced_to: 1
  - symbol: Ga # 4
    coordinates: [  0.874999998789944,  0.937499998926253,  0.062499999364272 ]
    mass: 69.723000
    reduced_to: 1
  - symbol: Ga # 5
    coordinates: [  0.374999998789944,  0.437499998926253,  0.562499999364272 ]
    mass: 69.723000
    reduced_to: 1
  - symbol: Ga # 6
    coordinates: [  0.874999998789944,  0.437499998926253,  0.562499999364272 ]
    mass: 69.723000
    reduced_to: 1
  - symbol: Ga # 7
    coordinates: [  0.374999998789944,  0.937499998926253,  0.562499999364272 ]
    mass: 69.723000
    reduced_to: 1
  - symbol: Ga # 8
    coordinates: [  0.874999998789944,  0.937499998926253,  0.562499999364272 ]
    mass: 69.723000
    reduced_to: 1
  - symbol: Ga # 9
    coordinates: [  0.187499999186064,  0.124999999213854,  0.312499999724039 ]
    mass: 69.723000
    reduced_to: 9
  - symbol: Ga # 10
    coordinates: [  0.687499999186064,  0.124999999213854,  0.312499999724039 ]
    mass: 69.723000
    reduced_to: 9
  - symbol: Ga # 11
    coordinates: [  0.187499999186064,  0.624999999213854,  0.312499999724039 ]
    mass: 69.723000
    reduced_to: 9
  - symbol: Ga # 12
    coordinates: [  0.687499999186064,  0.624999999213854,  0.312499999724039 ]
    mass: 69.723000
    reduced_to: 9
  - symbol: Ga # 13
    coordinates: [  0.187499999186064,  0.124999999213854,  0.812499999724039 ]
    mass: 69.723000
    reduced_to: 9
  - symbol: Ga # 14
    coordinates: [  0.687499999186064,  0.124999999213854,  0.812499999724039 ]
    mass: 69.723000
    reduced_to: 9
  - symbol: Ga # 15
    coordinates: [  0.187499999186064,  0.624999999213854,  0.812499999724039 ]
    mass: 69.723000
    reduced_to: 9
  - symbol: Ga # 16
    coordinates: [  0.687499999186064,  0.624999999213854,  0.812499999724039 ]
    mass: 69.723000
    reduced_to: 9
  - symbol: Ga # 17
    coordinates: [  0.124999999648757,  0.312499999650985,  0.187499999597685 ]
    mass: 69.723000
    reduced_to: 17
  - symbol: Ga # 18
    coordinates: [  0.624999999648757,  0.312499999650985,  0.187499999597685 ]
    mass: 69.723000
    reduced_to: 17
  - symbol: Ga # 19
    coordinates: [  0.124999999648757,  0.812499999650985,  0.187499999597685 ]
    mass: 69.723000
    reduced_to: 17
  - symbol: Ga # 20
    coordinates: [  0.624999999648757,  0.812499999650985,  0.187499999597685 ]
    mass: 69.723000
    reduced_to: 17
  - symbol: Ga # 21
    coordinates: [  0.124999999648757,  0.312499999650985,  0.687499999597685 ]
    mass: 69.723000
    reduced_to: 17
  - symbol: Ga # 22
    coordinates: [  0.624999999648757,  0.312499999650985,  0.687499999597685 ]
    mass: 69.723000
    reduced_to: 17
  - symbol: Ga # 23
    coordinates: [  0.124999999648757,  0.812499999650985,  0.687499999597685 ]
    mass: 69.723000
    reduced_to: 17
  - symbol: Ga # 24
    coordinates: [  0.624999999648757,  0.812499999650985,  0.687499999597685 ]
    mass: 69.723000
    reduced_to: 17
  - symbol: Ga # 25
    coordinates: [  0.437500001113997,  0.062500001013702,  0.374999999718490 ]
    mass: 69.723000
    reduced_to: 25
  - symbol: Ga # 26
    coordinates: [  0.937500001113997,  0.062500001013702,  0.374999999718490 ]
    mass: 69.723000
    reduced_to: 25
  - symbol: Ga # 27
    coordinates: [  0.437500001113997,  0.562500001013702,  0.374999999718490 ]
    mass: 69.723000
    reduced_to: 25
  - symbol: Ga # 28
    coordinates: [  0.937500001113997,  0.562500001013702,  0.374999999718490 ]
    mass: 69.723000
    reduced_to: 25
  - symbol: Ga # 29
    coordinates: [  0.437500001113997,  0.062500001013702,  0.874999999718490 ]
    mass: 69.723000
    reduced_to: 25
  - symbol: Ga # 30
    coordinates: [  0.937500001113997,  0.062500001013702,  0.874999999718490 ]
    mass: 69.723000
    reduced_to: 25
  - symbol: Ga # 31
    coordinates: [  0.437500001113997,  0.562500001013702,  0.874999999718490 ]
    mass: 69.723000
    reduced_to: 25
  - symbol: Ga # 32
    coordinates: [  0.937500001113997,  0.562500001013702,  0.874999999718490 ]
    mass: 69.723000
    reduced_to: 25
  - symbol: Ga # 33
    coordinates: [  0.312500001798042,  0.187500000873146,  0.125000001245573 ]
    mass: 69.723000
    reduced_to: 33
  - symbol: Ga # 34
    coordinates: [  0.812500001798042,  0.187500000873146,  0.125000001245573 ]
    mass: 69.723000
    reduced_to: 33
  - symbol: Ga # 35
    coordinates: [  0.312500001798042,  0.687500000873146,  0.125000001245573 ]
    mass: 69.723000
    reduced_to: 33
  - symbol: Ga # 36
    coordinates: [  0.812500001798042,  0.687500000873146,  0.125000001245573 ]
    mass: 69.723000
    reduced_to: 33
  - symbol: Ga # 37
    coordinates: [  0.312500001798042,  0.187500000873146,  0.625000001245573 ]
    mass: 69.723000
    reduced_to: 33
  - symbol: Ga # 38
    coordinates: [  0.812500001798042,  0.187500000873146,  0.625000001245573 ]
    mass: 69.723000
    reduced_to: 33
  - symbol: Ga # 39
    coordinates: [  0.312500001798042,  0.687500000873146,  0.625000001245573 ]
    mass: 69.723000
    reduced_to: 33
  - symbol: Ga # 40
    coordinates: [  0.812500001798042,  0.687500000873146,  0.625000001245573 ]
    mass: 69.723000
    reduced_to: 33
  - symbol: Ga # 41
    coordinates: [  0.062499999466012,  0.375000000322178,  0.437500000350200 ]
    mass: 69.723000
    reduced_to: 41
  - symbol: Ga # 42
    coordinates: [  0.562499999466012,  0.375000000322178,  0.437500000350200 ]
    mass: 69.723000
    reduced_to: 41
  - symbol: Ga # 43
    coordinates: [  0.062499999466012,  0.875000000322178,  0.437500000350200 ]
    mass: 69.723000
    reduced_to: 41
  - symbol: Ga # 44
    coordinates: [  0.562499999466012,  0.875000000322178,  0.437500000350200 ]
    mass: 69.723000
    reduced_to: 41
  - symbol: Ga # 45
    coordinates: [  0.062499999466012,  0.375000000322178,  0.937500000350200 ]
    mass: 69.723000
    reduced_to: 41
  - symbol: Ga # 46
    coordinates: [  0.562499999466012,  0.375000000322178,  0.937500000350200 ]
    mass: 69.723000
    reduced_to: 41
  - symbol: Ga # 47
    coordinates: [  0.062499999466012,  0.875000000322178,  0.937500000350200 ]
    mass: 69.723000
    reduced_to: 41
  - symbol: Ga # 48
    coordinates: [  0.562499999466012,  0.875000000322178,  0.937500000350200 ]
    mass: 69.723000
    reduced_to: 41

displacements:
- atom:    1
  displacement:
    [   0.0100000000000000,  0.0000000000000000,  0.0000000000000000 ]
  forces:
  - [  -0.0180443283170462,  0.0003320765681565,  0.0007075022440404 ]
  - [  -0.0018663024529815,  0.0001988857984543, -0.0000376682728529 ]
  - [  -0.0001451871357858,  0.0004786057397723,  0.0002947268076241 ]
  - [  -0.0001535105984658, -0.0003723064437509, -0.0000228055287153 ]
  - [  -0.0000226572738029, -0.0003985178191215,  0.0007538297213614 ]
  - [  -0.0001367739168927,  0.0001757784048095, -0.0003258842043579 ]
  - [  -0.0002348513808101,  0.0003111860714853,  0.0005428094882518 ]
  - [  -0.0002464060089551, -0.0000224735122174, -0.0005710453260690 ]
  - [  -0.0000876868143678, -0.0001608477905393,  0.0001164609566331 ]
  - [  -0.0000296169891953,  0.0000497049186379,  0.0001049349084496 ]
  - [   0.0004965653643012,  0.0002505247248337, -0.0003476194106042 ]
  - [   0.0033876113593578,  0.0013114885659888,  0.0050883190706372 ]
  - [   0.0001044739037752,  0.0001533748582006,  0.0003548972308636 ]
  - [  -0.0005056625232100, -0.0001251101493835, -0.0000686522107571 ]
  - [  -0.0002620127052069, -0.0000084852799773,  0.0003590306732804 ]
  - [  -0.0002496372908354, -0.0002164612524211,  0.0003409576602280 ]
  - [   0.0009185150265694,  0.0009111242834479, -0.0005101067945361 ]
  - [   0.0009662841912359, -0.0021157988812774,  0.0007129540899768 ]
  - [  -0.0006858119741082,  0.0004585967399180,  0.0000945236533880 ]
  - [  -0.0004383483901620,  0.0004690000787377, -0.0001976259518415 ]
  - [  -0.0004392955452204, -0.0006545023643412,  0.0009456941625103 ]
  - [  -0.0006894762627780, -0.0001275059767067,  0.0004651676863432 ]
  - [   0.0000674836337566,  0.0001364228664897, -0.0000309504102916 ]
  - [   0.0000659124925733, -0.0000466236670036,  0.0001103961840272 ]
  - [  -0.0000530567485839,  0.0001248355401913, -0.0001284952741116 ]
  - [  -0.0000530550023541, -0.0001434384612367, -0.0001045274548233 ]
  - [   0.0002916606608778,  0.0002222204639111, -0.0031662932597101 ]
  - [  -0.0005207913927734,  0.0000862890592543, -0.0003982798662037 ]
  - [   0.0000793705694377, -0.0005586330080405, -0.0001957913627848 ]
  - [   0.0000974801369011,  0.0006954231066629,  0.0002478722890373 ]
  - [   0.0002947959583253,  0.0019806404598057, -0.0015107048675418 ]
  - [  -0.0005335141904652,  0.0000694049522281, -0.0000689700245857 ]
  - [   0.0001008333638310,  0.0001373048871756, -0.0002522552385926 ]
  - [  -0.0005082711577415,  0.0000130971893668,  0.0000351201742887 ]
  - [   0.0033152645919472, -0.0038268831558526, -0.0012267907150090 ]
  - [   0.0004674526862800,  0.0005872619803995,  0.0001471845898777 ]
  - [  -0.0002765491371974, -0.0001321665477008, -0.0005911666667089 ]
  - [  -0.0002544821472839,  0.0000184765085578, -0.0001964593539014 ]
  - [  -0.0000314010540023, -0.0000559284817427,  0.0001885703532025 ]
  - [  -0.0000855439575389, -0.0001174812205136, -0.0002055405639112 ]
  - [  -0.0000889440998435, -0.0001864114310592,  0.0001992898760363 ]
  - [  -0.0000356687232852,  0.0000598311889917,  0.0000184952514246 ]
  - [  -0.0000865061301738, -0.0000310250325128, -0.0001735433761496 ]
  - [  -0.0000337783712894, -0.0001758292783052, -0.0003648042620625 ]
  - [   0.0078458255156875, -0.0001540908124298,  0.0026292712427676 ]
  - [   0.0081420075148344,  0.0004509402206168, -0.0036948577035218 ]
  - [   0.0000771328341216, -0.0001786309294403, -0.0000579012557864 ]
  - [   0.0000804644078016,  0.0001266680192202, -0.0000092654954642 ]
- atom:    1
  displacement:
    [  -0.0100000000000000,  0.0000000000000000,  0.0000000000000000 ]
  forces:
  - [   0.0180918518453836, -0.0004503414966166, -0.0006390730850399 ]
  - [   0.0018672198057175, -0.0002019931562245,  0.0000327019952238 ]
  - [   0.0001415081787854, -0.0004787221550941, -0.0002967910841107 ]
  - [   0.0001532766036689,  0.0003756042569876,  0.0000218919012696 ]
  - [   0.0000188026460819,  0.0004040482454002, -0.0007535163313150 ]
  - [   0.0001349183730781, -0.0001717772101983,  0.0003230799920857 ]
  - [   0.0002352189039811, -0.0003145037917420, -0.0005411079619080 ]
  - [   0.0002514138468541,  0.0000182610237971,  0.0005654671695083 ]
  - [   0.0000879373401403,  0.0001603529090062, -0.0001121042296290 ]
  - [   0.0000291289761662, -0.0000531845726073, -0.0000980300828815 ]
  - [  -0.0004688105545938, -0.0002593169920146,  0.0003359669353813 ]
  - [  -0.0033277601469308, -0.0012882857117802, -0.0050026993267238 ]
  - [  -0.0000974789727479, -0.0001439489424229, -0.0003723232075572 ]
  - [   0.0005106448661536,  0.0001101046800613,  0.0000634684693068 ]
  - [   0.0002735266461968,  0.0000126804225147, -0.0003727250732481 ]
  - [   0.0002579595893621,  0.0002222605980933, -0.0003410580102354 ]
  - [  -0.0009662054944783, -0.0009671910665929,  0.0005442049587145 ]
  - [  -0.0009191202698275,  0.0020700381137431, -0.0006793992361054 ]
  - [   0.0006817458197474, -0.0004513328894973, -0.0000917476136237 ]
  - [   0.0004531899467111, -0.0004273038357496,  0.0002115620300174 ]
  - [   0.0004516616463661,  0.0006551367114298, -0.0009737807558849 ]
  - [   0.0006777321686968,  0.0001286852639169, -0.0004615408834070 ]
  - [  -0.0000673790927976, -0.0001383631606586,  0.0000294920755550 ]
  - [  -0.0000690522138029,  0.0000482802861370, -0.0001094309845939 ]
  - [   0.0000518132001162, -0.0001174962671939,  0.0001357957953587 ]
  - [   0.0000515925930813,  0.0001436218153685,  0.0001054829917848 ]
  - [  -0.0003073142142966, -0.0002454732893966,  0.0031963819637895 ]
  - [   0.0005359913920984, -0.0000804717710707,  0.0004090644652024 ]
  - [  -0.0001014757435769,  0.0005531113129109,  0.0001975102350116 ]
  - [  -0.0000839354470372, -0.0006960254395381, -0.0002465571451467 ]
  - [  -0.0003037950955331, -0.0019173584878445,  0.0014580907300115 ]
  - [   0.0005231180693954, -0.0000597508624196,  0.0000597932375968 ]
  - [  -0.0001018866896629, -0.0001220735721290,  0.0002750866115093 ]
  - [   0.0005072643980384, -0.0000195368193090, -0.0000382661819458 ]
  - [  -0.0034005844499916,  0.0039518452249467,  0.0012822037097067 ]
  - [  -0.0004977667704225, -0.0005936946254224, -0.0001344498014078 ]
  - [   0.0002587572671473,  0.0001286943443120,  0.0005729965632781 ]
  - [   0.0002535204403102, -0.0000208772253245,  0.0001997625222430 ]
  - [   0.0000276720384136,  0.0000589261762798, -0.0001909452257678 ]
  - [   0.0000896354904398,  0.0001160593237728,  0.0002118031261489 ]
  - [   0.0000849920324981,  0.0001879155170172, -0.0001955220941454 ]
  - [   0.0000345120206475, -0.0000664780382067, -0.0000202027149498 ]
  - [   0.0000875971745700,  0.0000312519259751,  0.0001719753490761 ]
  - [   0.0000363416038454,  0.0001809688983485,  0.0003701648383867 ]
  - [  -0.0081450529396534,  0.0001482728403062, -0.0027418425306678 ]
  - [  -0.0078478511422873, -0.0004691075300798,  0.0035823588259518 ]
  - [  -0.0000792867504060,  0.0001751091331244,  0.0000540523324162 ]
  - [  -0.0000757949892431, -0.0001266212202609,  0.0000027690548450 ]

force_constants:
  format: "full"
  shape: [ 48, 48 ]
  elements:
  - # (1, 1)
    - [     1.806809025200048,    -0.038931455828909,    -0.067431256888185 ]
    - [    -0.038931455828909,     1.779280321915681,     0.047681100427113 ]
    - [    -0.067431256888185,     0.047681100427113,     1.834337712888824 ]
  - # (1, 2)
    - [     0.186683852658872,    -0.020049114803410,     0.003527239779005 ]
    - [    -0.020049114442368,    -0.035187411593615,     0.004356220124976 ]
    - [     0.003527247216957,     0.004356214141918,     0.019484760004640 ]
  - # (1, 3)
    - [     0.014338836059993,    -0.047853926556177,    -0.029573169133619 ]
    - [    -0.047853928695326,     0.174389127754686,     0.006089995049839 ]
    - [    -0.029573169480213,     0.006089994646460,    -0.017746774601110 ]
  - # (1, 4)
    - [     0.015334742421923,     0.037404239590763,     0.002244294689502 ]
    - [     0.037404234044402,     0.039819863782138,    -0.000453228095399 ]
    - [     0.002244296000874,    -0.000453229256926,    -0.011768605854033 ]
  - # (1, 5)
    - [     0.002066606142314,     0.040121971241698,    -0.075355966704068 ]
    - [     0.040121963279721,     0.056108534164355,    -0.058656645630868 ]
    - [    -0.075355960153333,    -0.058656651255699,     0.112806036466327 ]
  - # (1, 6)
    - [     0.013589262800488,    -0.017375626085859,     0.032446282158088 ]
    - [    -0.017375626350214,     0.003266504583820,    -0.024076706737304 ]
    - [     0.032446284067408,    -0.024076707440061,     0.026530236549922 ]
  - # (1, 7)
    - [     0.023503531446786,    -0.031285642976288,    -0.054188324979928 ]
    - [    -0.031285645216002,     0.001381234516090,     0.038316933772249 ]
    - [    -0.054188319491080,     0.038316928027910,     0.045625813296312 ]
  - # (1, 8)
    - [     0.024885642047933,     0.002044705626968,     0.056825202991566 ]
    - [     0.002044703829706,     0.014466303734060,     0.079730925379189 ]
    - [     0.056825201345666,     0.079730920459580,     0.131629236686254 ]
  - # (1, 9)
    - [     0.008767119315852,     0.016049424875024,    -0.011427178628552 ]
    - [     0.012255989940862,     0.037470904088084,    -0.012739345410396 ]
    - [    -0.020548381398780,    -0.043441804749913,     0.013145875786531 ]
  - # (1, 10)
    - [     0.002947619598522,    -0.005161603205682,    -0.010141341668915 ]
    - [    -0.019272550107132,     0.048137417883909,    -0.000136632126454 ]
    - [     0.004522174493233,     0.008597127659341,    -0.000324642403523 ]
  - # (1, 11)
    - [    -0.048273687676783,    -0.025495632886947,     0.034162036575689 ]
    - [     0.017345732728859,     0.033267541038764,    -0.030773653665892 ]
    - [     0.058184661059149,    -0.018204846771149,    -0.005275892997793 ]
  - # (1, 12)
    - [    -0.335808201506592,    -0.130027985519867,    -0.504596265378976 ]
    - [    -0.085827527763012,    -0.045713681004122,    -0.180479414318972 ]
    - [    -0.399549663360601,    -0.179860929665905,    -0.499994318616351 ]
  - # (1, 13)
    - [    -0.010109558956199,    -0.014876129114737,    -0.036391289087572 ]
    - [     0.029324337844724,    -0.371412312090946,    -0.436652687907582 ]
    - [    -0.001958869889452,    -0.535897686504883,    -0.499994299919445 ]
  - # (1, 14)
    - [     0.050795247522652,     0.011755086147486,     0.006598057038789 ]
    - [    -0.002355861122567,     0.000289795733276,     0.007129257793455 ]
    - [     0.003251631114525,    -0.009606892144002,    -0.000324643146951 ]
  - # (1, 15)
    - [     0.026768671928225,     0.001035847813323,    -0.036558584494873 ]
    - [     0.043877209334964,    -0.041774812459946,     0.048788744762535 ]
    - [    -0.040401023010423,     0.021950386956512,    -0.005275893782347 ]
  - # (1, 16)
    - [     0.025386064699340,     0.021925110979898,    -0.034107868351817 ]
    - [     0.018131673169235,     0.020851959993049,    -0.033853800266610 ]
    - [    -0.008201711664274,    -0.015020095687770,     0.013145876655179 ]
  - # (1, 17)
    - [    -0.094250772765211,    -0.093911870998931,     0.052727331476858 ]
    - [    -0.164921299549137,    -0.029599941049219,     0.009392187353624 ]
    - [     0.146457071332796,     0.030083687554714,     0.049314642011767 ]
  - # (1, 18)
    - [    -0.094250763708166,     0.209296224125996,    -0.069597499613088 ]
    - [     0.092619130295959,     0.012492434764068,     0.033694236224392 ]
    - [    -0.054966392618884,     0.054385750968275,     0.007222257864207 ]
  - # (1, 19)
    - [     0.068373010022840,    -0.045494510097281,    -0.009310392191902 ]
    - [    -0.046517591122491,     0.035841817836479,     0.009502663101409 ]
    - [    -0.012062655397370,     0.005610370064933,    -0.011779581759505 ]
  - # (1, 20)
    - [     0.044560054403239,    -0.044834837775336,     0.020455849258732 ]
    - [    -0.115844270313179,    -0.168410749101514,    -0.148108961525731 ]
    - [     0.008720728161827,    -0.052842545680314,     0.049314625866159 ]
  - # (1, 21)
    - [     0.044560057511439,     0.065474517407361,    -0.095963711782134 ]
    - [     0.040132697789202,     0.081897832675512,    -0.003593211428835 ]
    - [    -0.028600173120428,     0.091673205638469,    -0.200993956016907 ]
  - # (1, 22)
    - [     0.068373010268082,     0.012812226236906,    -0.046316738160176 ]
    - [     0.014684216845436,    -0.006418368573246,    -0.014896264344896 ]
    - [    -0.044054592061840,    -0.018788557267058,     0.030480595804361 ]
  - # (1, 23)
    - [    -0.006749507966663,    -0.013747598564918,     0.003029156071340 ]
    - [    -0.011875604716336,     0.068704151397998,     0.047797929403510 ]
    - [    -0.001394577954193,     0.048633266129021,     0.030480602085012 ]
  - # (1, 24)
    - [    -0.006749508385504,     0.004730061262864,    -0.010981865047423 ]
    - [     0.009497125825723,    -0.001719443911553,     0.007138843263089 ]
    - [    -0.010391189070621,     0.007974185612085,     0.100904191553459 ]
  - # (1, 25)
    - [     0.005241732867465,    -0.012111676926261,     0.013217402614080 ]
    - [    -0.016269060286333,     0.046455326759293,    -0.009623827018642 ]
    - [    -0.007192810892193,    -0.002103481544752,    -0.000936662682318 ]
  - # (1, 26)
    - [     0.005241732879140,     0.014363686862075,     0.010493015058577 ]
    - [    -0.005390765882582,     0.005833258558026,     0.013829335072247 ]
    - [     0.017097719941834,     0.021349676444848,     0.039685403677604 ]
  - # (1, 27)
    - [    -0.029946151152526,    -0.023371901272397,     0.318150648148949 ]
    - [    -0.031091012105136,    -0.026885537896571,     0.145447220703012 ]
    - [     0.243079858503803,     0.060044447200066,    -0.824684376109782 ]
  - # (1, 28)
    - [     0.052839465917777,    -0.008341491840907,     0.040374497970143 ]
    - [    -0.002339012580696,    -0.000518054953260,     0.005592379098775 ]
    - [     0.008812669531616,     0.002755328959564,     0.007062495321913 ]
  - # (1, 29)
    - [    -0.009050598987974,     0.055583982945857,     0.019688361298364 ]
    - [     0.056200453245553,    -0.013654800655683,     0.012262965816109 ]
    - [     0.047909358217223,    -0.029851636075506,     0.002423365623693 ]
  - # (1, 30)
    - [    -0.009050602010334,    -0.069590950179205,    -0.024716349319534 ]
    - [    -0.044842611217833,    -0.009212293977361,     0.009698081679878 ]
    - [    -0.038292962057717,    -0.032416520347818,    -0.002019141830909 ]
  - # (1, 31)
    - [    -0.029946156231676,    -0.194967843808304,     0.148465543969579 ]
    - [    -0.263840607001317,    -0.536254218620689,     0.439531370701879 ]
    - [     0.179315984022508,     0.354128578232586,    -0.315315755413545 ]
  - # (1, 32)
    - [     0.052839464437116,    -0.006462488925827,     0.006431977902150 ]
    - [    -0.030794590712649,     0.008782019349921,     0.000222978736634 ]
    - [     0.027411190009042,    -0.002614073062527,    -0.002237582837352 ]
  - # (1, 33)
    - [    -0.010109558697434,    -0.012965754633732,     0.026375058915526 ]
    - [     0.038953842964635,    -0.888975396028553,     0.137837433453754 ]
    - [     0.005312541842403,     0.237082457789618,     0.017568866424949 ]
  - # (1, 34)
    - [     0.050795247461884,    -0.001638062915195,    -0.003666045508426 ]
    - [    -0.011591628717793,    -0.001243882854726,    -0.008014721733830 ]
    - [     0.006881179753075,     0.008721425637737,     0.001209030508634 ]
  - # (1, 35)
    - [    -0.335808219562052,     0.388933947862541,     0.125446026456698 ]
    - [     0.502007160113730,    -0.542456092157884,    -0.106314951945315 ]
    - [     0.139690571710476,    -0.106933420988736,    -0.003251884475001 ]
  - # (1, 36)
    - [    -0.048273681135039,    -0.059062263611879,    -0.014070485619740 ]
    - [    -0.016837376108327,    -0.016848350854199,     0.001839236896537 ]
    - [    -0.039160884908505,    -0.010729578068628,     0.044839994215005 ]
  - # (1, 37)
    - [     0.026768669825789,     0.013049709632640,     0.058199299739435 ]
    - [     0.031142736112445,     0.016230318879043,    -0.015299465678146 ]
    - [     0.019176366257817,     0.011538892643429,    -0.063281019029034 ]
  - # (1, 38)
    - [     0.025386064386500,    -0.001962947671650,     0.019803348656600 ]
    - [     0.018575724204387,    -0.006090621694392,     0.018298499438533 ]
    - [     0.036041637856605,    -0.000535210647261,     0.040088459123446 ]
  - # (1, 39)
    - [     0.002947619126078,     0.005719956517748,    -0.018951605431426 ]
    - [     0.011363461466100,     0.015454373541531,    -0.018732928984845 ]
    - [     0.000600592922925,    -0.027466688017952,     0.032358400604866 ]
  - # (1, 40)
    - [     0.008767115908759,     0.011667427823168,     0.020888192969662 ]
    - [     0.001871513977389,    -0.005100019456645,    -0.011838984482760 ]
    - [     0.019612798162408,     0.018863473334018,     0.055716800766585 ]
  - # (1, 41)
    - [     0.008695938742056,     0.018723689076299,    -0.019761701999219 ]
    - [     0.003126616230269,     0.012535205458523,    -0.025745464808036 ]
    - [    -0.017273288375743,    -0.010222729170314,     0.029529250263332 ]
  - # (1, 42)
    - [     0.003512902234455,    -0.006299502348725,    -0.001937361964029 ]
    - [     0.017832355652449,    -0.006543560239096,     0.076346229785162 ]
    - [    -0.036761922285931,     0.048501170165320,    -0.017251371197359 ]
  - # (1, 43)
    - [     0.008695938575900,     0.003126617618117,     0.017273289646036 ]
    - [     0.018723686435548,     0.012535205434490,     0.010222731294987 ]
    - [     0.019761705241639,     0.025745465147561,     0.029529255432756 ]
  - # (1, 44)
    - [     0.003512901549274,     0.017832358217316,     0.036761929221874 ]
    - [    -0.006299503655944,    -0.006543554745472,    -0.048501168522912 ]
    - [     0.001937360232289,    -0.076346226556760,    -0.017251381835577 ]
  - # (1, 45)
    - [    -0.799490984120435,     0.015137329504348,    -0.268544054689365 ]
    - [    -0.046016303775886,     0.055329566032448,     0.005409003403138 ]
    - [    -0.363802673105751,     0.018632740112997,    -0.137354759349832 ]
  - # (1, 46)
    - [    -0.799490988422428,    -0.046016334716787,     0.363802680587162 ]
    - [     0.015137351115543,     0.055329569128812,    -0.018632745140638 ]
    - [     0.268543980826457,    -0.005408988271462,    -0.137354725537816 ]
  - # (1, 47)
    - [    -0.007814101486150,     0.017691806675826,     0.005606153955585 ]
    - [    -0.012642775849361,     0.062206258589305,     0.004507180888196 ]
    - [    -0.000596180568471,     0.013538880980481,     0.004991742324774 ]
  - # (1, 48)
    - [    -0.007814105189572,    -0.012642774779013,     0.000596179492979 ]
    - [     0.017691806673688,     0.062206256325329,    -0.013538873850155 ]
    - [    -0.005606152070565,    -0.004507175759156,     0.004991741589979 ]
  - # (2, 1)
    - [     0.186683852658872,    -0.020049114442368,     0.003527247216957 ]
    - [    -0.020049114803410,    -0.035187411593615,     0.004356214141918 ]
    - [     0.003527239779005,     0.004356220124976,     0.019484760004640 ]
  - # (2, 2)
    - [     1.806809217095335,    -0.038931492214310,    -0.067431092709647 ]
    - [    -0.038931492214310,     1.779280213301080,     0.047681296169635 ]
    - [    -0.067431092709647,     0.047681296169635,     1.834337626534519 ]
  - # (2, 3)
    - [     0.015334743396214,     0.037404238112221,     0.002244296256406 ]
    - [     0.037404238030271,     0.039819862207715,    -0.000453228514866 ]
    - [     0.002244291845796,    -0.000453231649328,    -0.011768605282801 ]
  - # (2, 4)
    - [     0.014338830383017,    -0.047853930382138,    -0.029573176070014 ]
    - [    -0.047853928631210,     0.174389113123275,     0.006089998815874 ]
    - [    -0.029573175396043,     0.006089993133563,    -0.017746775233675 ]
  - # (2, 5)
    - [     0.013589262165513,    -0.017375624774972,     0.032446282889688 ]
    - [    -0.017375626663070,     0.003266503599259,    -0.024076708308501 ]