# Thermal properties / unit cell (natom)

unit:
  temperature:   K
  free_energy:   kJ/mol
  entropy:       J/K/mol
  heat_capacity: J/K/mol

natom: 6    
cutoff_frequency: 0.00000
num_modes: 219006
num_integrated_modes: 201951

zero_point_energy:       7.7465787

thermal_properties:
- temperature:         0.0000000
  free_energy:         7.7465787
  entropy:             0.0000000
  heat_capacity:       0.0000000
  energy:              7.7465787

- temperature:        10.0000000
  free_energy:         7.7150119
  entropy:             8.6822746
  heat_capacity:      14.7819532
  energy:              7.8018347

- temperature:        20.0000000
  free_energy:         7.5454231
  entropy:            25.8304646
  heat_capacity:      37.0656414
  energy:              8.0620324

- temperature:        30.0000000
  free_energy:         7.1925072
  entropy:            44.8893563
  heat_capacity:      58.0930995
  energy:              8.5391879

- temperature:        40.0000000
  free_energy:         6.6468708
  entropy:            64.1896539
  heat_capacity:      76.3270090
  energy:              9.2144569

- temperature:        50.0000000
  free_energy:         5.9109978
  entropy:            82.8204053
  heat_capacity:      90.5085821
  energy:             10.0520181

- temperature:        60.0000000
  free_energy:         4.9943394
  entropy:           100.2993380
  heat_capacity:     101.0048298
  energy:             11.0122997

- temperature:        70.0000000
  free_energy:         3.9093661
  entropy:           116.4773415
  heat_capacity:     108.6960711
  energy:             12.0627800

- temperature:        80.0000000
  free_energy:         2.6690470
  entropy:           131.3812376
  heat_capacity:     114.3774656
  energy:             13.1795460

- temperature:        90.0000000
  free_energy:         1.2856584
  entropy:           145.1106148
  heat_capacity:     118.6381936
  energy:             14.3456137

- temperature:       100.0000000
  free_energy:        -0.2296527
  entropy:           157.7861026
  heat_capacity:     121.8889926
  energy:             15.5489576

- temperature:       110.0000000
  free_energy:        -1.8669483
  entropy:           169.5265977
  heat_capacity:     124.4121000
  energy:             16.7809775

- temperature:       120.0000000
  free_energy:        -3.6174308
  entropy:           180.4405032
  heat_capacity:     126.4022871
  energy:             18.0354296

- temperature:       130.0000000
  free_energy:        -5.4733227
  entropy:           190.6232871
  heat_capacity:     127.9956061
  energy:             19.3077046

- temperature:       140.0000000
  free_energy:        -7.4277367
  entropy:           200.1577144
  heat_capacity:     129.2885479
  energy:             20.5943434

- temperature:       150.0000000
  free_energy:        -9.4745546
  entropy:           209.1150849
  heat_capacity:     130.3506533
  energy:             21.8927082

- temperature:       160.0000000
  free_energy:       -11.6083202
  entropy:           217.5567398
  heat_capacity:     131.2328411
  energy:             23.2007581

- temperature:       170.0000000
  free_energy:       -13.8241473
  entropy:           225.5355278
  heat_capacity:     131.9729637
  energy:             24.5168925

- temperature:       180.0000000
  free_energy:       -16.1176408
  entropy:           233.0971141
  heat_capacity:     132.5995641
  energy:             25.8398397

- temperature:       190.0000000
  free_energy:       -18.4848315
  entropy:           240.2811055
  heat_capacity:     133.1344536
  energy:             27.1685786

- temperature:       200.0000000
  free_energy:       -20.9221197
  entropy:           247.1219974
  heat_capacity:     133.5945057
  energy:             28.5022797

- temperature:       210.0000000
  free_energy:       -23.4262287
  entropy:           253.6499632
  heat_capacity:     133.9929245
  energy:             29.8402635

- temperature:       220.0000000
  free_energy:       -25.9941646
  entropy:           259.8915111
  heat_capacity:     134.3401522
  energy:             31.1819678

- temperature:       230.0000000
  free_energy:       -28.6231825
  entropy:           265.8700279
  heat_capacity:     134.6445281
  energy:             32.5269239

- temperature:       240.0000000
  free_energy:       -31.3107577
  entropy:           271.6062325
  heat_capacity:     134.9127730
  energy:             33.8747381

- temperature:       250.0000000
  free_energy:       -34.0545611
  entropy:           277.1185534
  heat_capacity:     135.1503491
  energy:             35.2250773

- temperature:       260.0000000
  free_energy:       -36.8524375
  entropy:           282.4234438
  heat_capacity:     135.3617309
  energy:             36.5776579

- temperature:       270.0000000
  free_energy:       -39.7023878
  entropy:           287.5356473
  heat_capacity:     135.5506103
  energy:             37.9322369

- temperature:       280.0000000
  free_energy:       -42.6025525
  entropy:           292.4684209
  heat_capacity:     135.7200547
  energy:             39.2886053

- temperature:       290.0000000
  free_energy:       -45.5511981
  entropy:           297.2337241
  heat_capacity:     135.8726286
  energy:             40.6465819

- temperature:       300.0000000
  free_energy:       -48.5467050
  entropy:           301.8423795
  heat_capacity:     136.0104892
  energy:             42.0060089

- temperature:       310.0000000
  free_energy:       -51.5875564
  entropy:           306.3042100
  heat_capacity:     136.1354610
  energy:             43.3667487

- temperature:       320.0000000
  free_energy:       -54.6723296
  entropy:           310.6281562
  heat_capacity:     136.2490956
  energy:             44.7286803

- temperature:       330.0000000
  free_energy:       -57.7996872
  entropy:           314.8223771
  heat_capacity:     136.3527188
  energy:             46.0916973

- temperature:       340.0000000
  free_energy:       -60.9683697
  entropy:           318.8943379
  heat_capacity:     136.4474687
  energy:             47.4557052

- temperature:       350.0000000
  free_energy:       -64.1771893
  entropy:           322.8508847
  heat_capacity:     136.5343267
  energy:             48.8206203

- temperature:       360.0000000
  free_energy:       -67.4250237
  entropy:           326.6983110
  heat_capacity:     136.6141429
  energy:             50.1863682

- temperature:       370.0000000
  free_energy:       -70.7108112
  entropy:           330.4424145
  heat_capacity:     136.6876560
  energy:             51.5528822

- temperature:       380.0000000
  free_energy:       -74.0335455
  entropy:           334.0885473
  heat_capacity:     136.7555107
  energy:             52.9201025

- temperature:       390.0000000
  free_energy:       -77.3922721
  entropy:           337.6416603
  heat_capacity:     136.8182717
  energy:             54.2879754

- temperature:       400.0000000
  free_energy:       -80.7860840
  entropy:           341.1063414
  heat_capacity:     136.8764349
  energy:             55.6564526

- temperature:       410.0000000
  free_energy:       -84.2141184
  entropy:           344.4868504
  heat_capacity:     136.9304376
  energy:             57.0254903

- temperature:       420.0000000
  free_energy:       -87.6755536
  entropy:           347.7871486
  heat_capacity:     136.9806665
  energy:             58.3950488

- temperature:       430.0000000
  free_energy:       -91.1696063
  entropy:           351.0109267
  heat_capacity:     137.0274643
  energy:             59.7650922

- temperature:       440.0000000
  free_energy:       -94.6955286
  entropy:           354.1616279
  heat_capacity:     137.0711360
  energy:             61.1355877

- temperature:       450.0000000
  free_energy:       -98.2526060
  entropy:           357.2424698
  heat_capacity:     137.1119532
  energy:             62.5065054

- temperature:       460.0000000
  free_energy:      -101.8401552
  entropy:           360.2564635
  heat_capacity:     137.1501590
  energy:             63.8778180

- temperature:       470.0000000
  free_energy:      -105.4575219
  entropy:           363.2064308
  heat_capacity:     137.1859711
  energy:             65.2495006

- temperature:       480.0000000
  free_energy:      -109.1040792
  entropy:           366.0950195
  heat_capacity:     137.2195849
  energy:             66.6215301

- temperature:       490.0000000
  free_energy:      -112.7792260
  entropy:           368.9247174
  heat_capacity:     137.2511765
  energy:             67.9938855

- temperature:       500.0000000
  free_energy:      -116.4823851
  entropy:           371.6978651
  heat_capacity:     137.2809045
  energy:             69.3665474

- temperature:       510.0000000
  free_energy:      -120.2130021
  entropy:           374.4166668
  heat_capacity:     137.3089126
  energy:             70.7394979

- temperature:       520.0000000
  free_energy:      -123.9705442
  entropy:           377.0832012
  heat_capacity:     137.3353306
  energy:             72.1127204

- temperature:       530.0000000
  free_energy:      -127.7544985
  entropy:           379.6994304
  heat_capacity:     137.3602766
  energy:             73.4861996

- temperature:       540.0000000
  free_energy:      -131.5643713
  entropy:           382.2672087
  heat_capacity:     137.3838576
  energy:             74.8599214

- temperature:       550.0000000
  free_energy:      -135.3996870
  entropy:           384.7882901
  heat_capacity:     137.4061714
  energy:             76.2338725

- temperature:       560.0000000
  free_energy:      -139.2599870
  entropy:           387.2643355
  heat_capacity:     137.4273071
  energy:             77.6080409

- temperature:       570.0000000
  free_energy:      -143.1448289
  entropy:           389.6969191
  heat_capacity:     137.4473460
  energy:             78.9824150

- temperature:       580.0000000
  free_energy:      -147.0537855
  entropy:           392.0875343
  heat_capacity:     137.4663627
  energy:             80.3569844

- temperature:       590.0000000
  free_energy:      -150.9864444
  entropy:           394.4375992
  heat_capacity:     137.4844254
  energy:             81.7317391

- temperature:       600.0000000
  free_energy:      -154.9424068
  entropy:           396.7484613
  heat_capacity:     137.5015968
  energy:             83.1066699

- temperature:       610.0000000
  free_energy:      -158.9212872
  entropy:           399.0214024
  heat_capacity:     137.5179345
  energy:             84.4817683

- temperature:       620.0000000
  free_energy:      -162.9227125
  entropy:           401.2576429
  heat_capacity:     137.5334916
  energy:             85.8570260

- temperature:       630.0000000
  free_energy:      -166.9463216
  entropy:           403.4583449
  heat_capacity:     137.5483170
  energy:             87.2324357

- temperature:       640.0000000
  free_energy:      -170.9917647
  entropy:           405.6246168
  heat_capacity:     137.5624558
  energy:             88.6079901

- temperature:       650.0000000
  free_energy:      -175.0587027
  entropy:           407.7575159
  heat_capacity:     137.5759498
  energy:             89.9836826

- temperature:       660.0000000
  free_energy:      -179.1468071
  entropy:           409.8580518
  heat_capacity:     137.5888374
  energy:             91.3595071

- temperature:       670.0000000
  free_energy:      -183.2557591
  entropy:           411.9271889
  heat_capacity:     137.6011545
  energy:             92.7354575

- temperature:       680.0000000
  free_energy:      -187.3852493
  entropy:           413.9658495
  heat_capacity:     137.6129342
  energy:             94.1115284

- temperature:       690.0000000
  free_energy:      -191.5349775
  entropy:           415.9749158
  heat_capacity:     137.6242073
  energy:             95.4877145

- temperature:       700.0000000
  free_energy:      -195.7046518
  entropy:           417.9552324
  heat_capacity:     137.6350025
  energy:             96.8640109

- temperature:       710.0000000
  free_energy:      -199.8939890
  entropy:           419.9076084
  heat_capacity:     137.6453462
  energy:             98.2404130

- temperature:       720.0000000
  free_energy:      -204.1027134
  entropy:           421.8328192
  heat_capacity:     137.6552634
  energy:             99.6169164

- temperature:       730.0000000
  free_energy:      -208.3305573
  entropy:           423.7316085
  heat_capacity:     137.6647772
  energy:            100.9935169

- temperature:       740.0000000
  free_energy:      -212.5772599
  entropy:           425.6046900
  heat_capacity:     137.6739091
  energy:            102.3702107

- temperature:       750.0000000
  free_energy:      -216.8425677
  entropy:           427.4527488
  heat_capacity:     137.6826792
  energy:            103.7469939

- temperature:       760.0000000
  free_energy:      -221.1262337
  entropy:           429.2764432
  heat_capacity:     137.6911065
  energy:            105.1238631

- temperature:       770.0000000
  free_energy:      -225.4280174
  entropy:           431.0764057
  heat_capacity:     137.6992086
  energy:            106.5008150

- temperature:       780.0000000
  free_energy:      -229.7476847
  entropy:           432.8532448
  heat_capacity:     137.7070018
  energy:            107.8778463

- temperature:       790.0000000
  free_energy:      -234.0850072
  entropy:           434.6075459
  heat_capacity:     137.7145019
  energy:            109.2549540

- temperature:       800.0000000
  free_energy:      -238.4397624
  entropy:           436.3398722
  heat_capacity:     137.7217232
  energy:            110.6321354

- temperature:       810.0000000
  free_energy:      -242.8117332
  entropy:           438.0507664
  heat_capacity:     137.7286794
  energy:            112.0093876

- temperature:       820.0000000
  free_energy:      -247.2007080
  entropy:           439.7407514
  heat_capacity:     137.7353833
  energy:            113.3867081

- temperature:       830.0000000
  free_energy:      -251.6064802
  entropy:           441.4103310
  heat_capacity:     137.7418470
  energy:            114.7640945

- temperature:       840.0000000
  free_energy:      -256.0288482
  entropy:           443.0599911
  heat_capacity:     137.7480817
  energy:            116.1415443

- temperature:       850.0000000
  free_energy:      -260.4676152
  entropy:           444.6902007
  heat_capacity:     137.7540982
  energy:            117.5190554

- temperature:       860.0000000
  free_energy:      -264.9225889
  entropy:           446.3014122
  heat_capacity:     137.7599066
  energy:            118.8966256

- temperature:       870.0000000
  free_energy:      -269.3935816
  entropy:           447.8940626
  heat_capacity:     137.7655163
  energy:            120.2742528

- temperature:       880.0000000
  free_energy:      -273.8804097
  entropy:           449.4685738
  heat_capacity:     137.7709362
  energy:            121.6519353

- temperature:       890.0000000
  free_energy:      -278.3828940
  entropy:           451.0253539
  heat_capacity:     137.7761749
  energy:            123.0296710

- temperature:       900.0000000
  free_energy:      -282.9008590
  entropy:           452.5647969
  heat_capacity:     137.7812403
  energy:            124.4074582

- temperature:       910.0000000
  free_energy:      -287.4341334
  entropy:           454.0872842
  heat_capacity:     137.7861400
  energy:            125.7852952

- temperature:       920.0000000
  free_energy:      -291.9825494
  entropy:           455.5931846
  heat_capacity:     137.7908811
  energy:            127.1631804

- temperature:       930.0000000
  free_energy:      -296.5459430
  entropy:           457.0828552
  heat_capacity:     137.7954704
  energy:            128.5411123

- temperature:       940.0000000
  free_energy:      -301.1241536
  entropy:           458.5566414
  heat_capacity:     137.7999142
  energy:            129.9190894

- temperature:       950.0000000
  free_energy:      -305.7170240
  entropy:           460.0148780
  heat_capacity:     137.8042188
  energy:            131.2971102

- temperature:       960.0000000
  free_energy:      -310.3244004
  entropy:           461.4578892
  heat_capacity:     137.8083898
  energy:            132.6751733

- temperature:       970.0000000
  free_energy:      -314.9461321
  entropy:           462.8859893
  heat_capacity:     137.8124327
  energy:            134.0532775

- temperature:       980.0000000
  free_energy:      -319.5820715
  entropy:           464.2994827
  heat_capacity:     137.8163526
  energy:            135.4314215

- temperature:       990.0000000
  free_energy:      -324.2320740
  entropy:           465.6986648
  heat_capacity:     137.8201547
  energy:            136.8096042

- temperature:      1000.0000000
  free_energy:      -328.8959980
  entropy:           467.0838223
  heat_capacity:     137.8238434
  energy:            138.1878243
