phonopy:
  version: "2.37.1"
  frequency_unit_conversion_factor: 15.633302
  symmetry_tolerance: 1.00000e-05

space_group:
  type: "P4/mmm"
  number: 123
  Hall_symbol: "-P 4 2"

primitive_matrix:
- [  1.000000000000000, -0.000000000000000,  0.000000000000000 ]
- [  0.000000000000000,  1.000000000000000, -0.000000000000000 ]
- [  0.000000000000000,  0.000000000000000,  1.000000000000000 ]

supercell_matrix:
- [   4,   0,   0 ]
- [   0,   4,   0 ]
- [   0,   0,   3 ]

primitive_cell:
  lattice:
  - [     3.119908508457024,     0.000000000000000,     0.000000000000000 ] # a
  - [    -0.000000046047205,     3.119908456275983,     0.000000000000000 ] # b
  - [    -0.000000057583539,    -0.000000023230442,     4.352583312331820 ] # c
  points:
  - symbol: Li # 1
    coordinates: [  0.999999998580729,  0.999999996659882,  0.999999999994738 ]
    mass: 6.940000
  - symbol: Sn # 2
    coordinates: [  0.500000001505092,  0.500000003388562,  0.500000000009365 ]
    mass: 118.710000
  reciprocal_lattice: # without 2pi
  - [     0.320522219574496,     0.000000004730636,     0.000000004240425 ] # a*
  - [     0.000000000000000,     0.320522224935289,     0.000000001710679 ] # b*
  - [     0.000000000000000,     0.000000000000000,     0.229748617830423 ] # c*

unit_cell:
  lattice:
  - [     3.119908508457024,     0.000000000000000,     0.000000000000000 ] # a
  - [    -0.000000046047205,     3.119908456275983,     0.000000000000000 ] # b
  - [    -0.000000057583539,    -0.000000023230442,     4.352583312331821 ] # c
  points:
  - symbol: Li # 1
    coordinates: [  0.999999998580729,  0.999999996659882,  0.999999999994738 ]
    mass: 6.940000
    reduced_to: 1
  - symbol: Sn # 2
    coordinates: [  0.500000001505092,  0.500000003388562,  0.500000000009365 ]
    mass: 118.710000
    reduced_to: 2

supercell:
  lattice:
  - [    12.479634033828097,     0.000000000000000,     0.000000000000000 ] # a
  - [    -0.000000184188819,    12.479633825103933,     0.000000000000000 ] # b
  - [    -0.000000172750618,    -0.000000069691326,    13.057749936995464 ] # c
  points:
  - symbol: Li # 1
    coordinates: [  0.249999999645182,  0.249999999164971,  0.333333333331579 ]
    mass: 6.940000
    reduced_to: 1
  - symbol: Li # 2
    coordinates: [  0.499999999645182,  0.249999999164971,  0.333333333331579 ]
    mass: 6.940000
    reduced_to: 1
  - symbol: Li # 3
    coordinates: [  0.749999999645182,  0.249999999164971,  0.333333333331579 ]
    mass: 6.940000
    reduced_to: 1
  - symbol: Li # 4
    coordinates: [  0.999999999645182,  0.249999999164971,  0.333333333331579 ]
    mass: 6.940000
    reduced_to: 1
  - symbol: Li # 5
    coordinates: [  0.249999999645182,  0.499999999164971,  0.333333333331579 ]
    mass: 6.940000
    reduced_to: 1
  - symbol: Li # 6
    coordinates: [  0.499999999645182,  0.499999999164971,  0.333333333331579 ]
    mass: 6.940000
    reduced_to: 1
  - symbol: Li # 7
    coordinates: [  0.749999999645182,  0.499999999164971,  0.333333333331579 ]
    mass: 6.940000
    reduced_to: 1
  - symbol: Li # 8
    coordinates: [  0.999999999645182,  0.499999999164971,  0.333333333331579 ]
    mass: 6.940000
    reduced_to: 1
  - symbol: Li # 9
    coordinates: [  0.249999999645182,  0.749999999164971,  0.333333333331579 ]
    mass: 6.940000
    reduced_to: 1
  - symbol: Li # 10
    coordinates: [  0.499999999645182,  0.749999999164971,  0.333333333331579 ]
    mass: 6.940000
    reduced_to: 1
  - symbol: Li # 11
    coordinates: [  0.749999999645182,  0.749999999164971,  0.333333333331579 ]
    mass: 6.940000
    reduced_to: 1
  - symbol: Li # 12
    coordinates: [  0.999999999645182,  0.749999999164971,  0.333333333331579 ]
    mass: 6.940000
    reduced_to: 1
  - symbol: Li # 13
    coordinates: [  0.249999999645182,  0.999999999164971,  0.333333333331579 ]
    mass: 6.940000
    reduced_to: 1
  - symbol: Li # 14
    coordinates: [  0.499999999645182,  0.999999999164971,  0.333333333331579 ]
    mass: 6.940000
    reduced_to: 1
  - symbol: Li # 15
    coordinates: [  0.749999999645182,  0.999999999164971,  0.333333333331579 ]
    mass: 6.940000
    reduced_to: 1
  - symbol: Li # 16
    coordinates: [  0.999999999645182,  0.999999999164971,  0.333333333331579 ]
    mass: 6.940000
    reduced_to: 1
  - symbol: Li # 17
    coordinates: [  0.249999999645182,  0.249999999164971,  0.666666666664912 ]
    mass: 6.940000
    reduced_to: 1
  - symbol: Li # 18
    coordinates: [  0.499999999645182,  0.249999999164971,  0.666666666664912 ]
    mass: 6.940000
    reduced_to: 1
  - symbol: Li # 19
    coordinates: [  0.749999999645182,  0.249999999164971,  0.666666666664912 ]
    mass: 6.940000
    reduced_to: 1
  - symbol: Li # 20
    coordinates: [  0.999999999645182,  0.249999999164971,  0.666666666664912 ]
    mass: 6.940000
    reduced_to: 1
  - symbol: Li # 21
    coordinates: [  0.249999999645182,  0.499999999164971,  0.666666666664912 ]
    mass: 6.940000
    reduced_to: 1
  - symbol: Li # 22
    coordinates: [  0.499999999645182,  0.499999999164971,  0.666666666664912 ]
    mass: 6.940000
    reduced_to: 1
  - symbol: Li # 23
    coordinates: [  0.749999999645182,  0.499999999164971,  0.666666666664912 ]
    mass: 6.940000
    reduced_to: 1
  - symbol: Li # 24
    coordinates: [  0.999999999645182,  0.499999999164971,  0.666666666664912 ]
    mass: 6.940000
    reduced_to: 1
  - symbol: Li # 25
    coordinates: [  0.249999999645182,  0.749999999164971,  0.666666666664912 ]
    mass: 6.940000
    reduced_to: 1
  - symbol: Li # 26
    coordinates: [  0.499999999645182,  0.749999999164971,  0.666666666664912 ]
    mass: 6.940000
    reduced_to: 1
  - symbol: Li # 27
    coordinates: [  0.749999999645182,  0.749999999164971,  0.666666666664912 ]
    mass: 6.940000
    reduced_to: 1
  - symbol: Li # 28
    coordinates: [  0.999999999645182,  0.749999999164971,  0.666666666664912 ]
    mass: 6.940000
    reduced_to: 1
  - symbol: Li # 29
    coordinates: [  0.249999999645182,  0.999999999164971,  0.666666666664912 ]
    mass: 6.940000
    reduced_to: 1
  - symbol: Li # 30
    coordinates: [  0.499999999645182,  0.999999999164971,  0.666666666664912 ]
    mass: 6.940000
    reduced_to: 1
  - symbol: Li # 31
    coordinates: [  0.749999999645182,  0.999999999164971,  0.666666666664912 ]
    mass: 6.940000
    reduced_to: 1
  - symbol: Li # 32
    coordinates: [  0.999999999645182,  0.999999999164971,  0.666666666664912 ]
    mass: 6.940000
    reduced_to: 1
  - symbol: Li # 33
    coordinates: [  0.249999999645182,  0.249999999164971,  0.999999999998246 ]
    mass: 6.940000
    reduced_to: 1
  - symbol: Li # 34
    coordinates: [  0.499999999645182,  0.249999999164971,  0.999999999998246 ]
    mass: 6.940000
    reduced_to: 1
  - symbol: Li # 35
    coordinates: [  0.749999999645182,  0.249999999164971,  0.999999999998246 ]
    mass: 6.940000
    reduced_to: 1
  - symbol: Li # 36
    coordinates: [  0.999999999645182,  0.249999999164971,  0.999999999998246 ]
    mass: 6.940000
    reduced_to: 1
  - symbol: Li # 37
    coordinates: [  0.249999999645182,  0.499999999164971,  0.999999999998246 ]
    mass: 6.940000
    reduced_to: 1
  - symbol: Li # 38
    coordinates: [  0.499999999645182,  0.499999999164971,  0.999999999998246 ]
    mass: 6.940000
    reduced_to: 1
  - symbol: Li # 39
    coordinates: [  0.749999999645182,  0.499999999164971,  0.999999999998246 ]
    mass: 6.940000
    reduced_to: 1
  - symbol: Li # 40
    coordinates: [  0.999999999645182,  0.499999999164971,  0.999999999998246 ]
    mass: 6.940000
    reduced_to: 1
  - symbol: Li # 41
    coordinates: [  0.249999999645182,  0.749999999164971,  0.999999999998246 ]
    mass: 6.940000
    reduced_to: 1
  - symbol: Li # 42
    coordinates: [  0.499999999645182,  0.749999999164971,  0.999999999998246 ]
    mass: 6.940000
    reduced_to: 1
  - symbol: Li # 43
    coordinates: [  0.749999999645182,  0.749999999164971,  0.999999999998246 ]
    mass: 6.940000
    reduced_to: 1
  - symbol: Li # 44
    coordinates: [  0.999999999645182,  0.749999999164971,  0.999999999998246 ]
    mass: 6.940000
    reduced_to: 1
  - symbol: Li # 45
    coordinates: [  0.249999999645182,  0.999999999164971,  0.999999999998246 ]
    mass: 6.940000
    reduced_to: 1
  - symbol: Li # 46
    coordinates: [  0.499999999645182,  0.999999999164971,  0.999999999998246 ]
    mass: 6.940000
    reduced_to: 1
  - symbol: Li # 47
    coordinates: [  0.749999999645182,  0.999999999164971,  0.999999999998246 ]
    mass: 6.940000
    reduced_to: 1
  - symbol: Li # 48
    coordinates: [  0.999999999645182,  0.999999999164971,  0.999999999998246 ]
    mass: 6.940000
    reduced_to: 1
  - symbol: Sn # 49
    coordinates: [  0.125000000376273,  0.125000000847141,  0.166666666669788 ]
    mass: 118.710000
    reduced_to: 49
  - symbol: Sn # 50
    coordinates: [  0.375000000376273,  0.125000000847141,  0.166666666669788 ]
    mass: 118.710000
    reduced_to: 49
  - symbol: Sn # 51
    coordinates: [  0.625000000376273,  0.125000000847141,  0.166666666669788 ]
    mass: 118.710000
    reduced_to: 49
  - symbol: Sn # 52
    coordinates: [  0.875000000376273,  0.125000000847141,  0.166666666669788 ]
    mass: 118.710000
    reduced_to: 49
  - symbol: Sn # 53
    coordinates: [  0.125000000376273,  0.375000000847141,  0.166666666669788 ]
    mass: 118.710000
    reduced_to: 49
  - symbol: Sn # 54
    coordinates: [  0.375000000376273,  0.375000000847141,  0.166666666669788 ]
    mass: 118.710000
    reduced_to: 49
  - symbol: Sn # 55
    coordinates: [  0.625000000376273,  0.375000000847141,  0.166666666669788 ]
    mass: 118.710000
    reduced_to: 49
  - symbol: Sn # 56
    coordinates: [  0.875000000376273,  0.375000000847141,  0.166666666669788 ]
    mass: 118.710000
    reduced_to: 49
  - symbol: Sn # 57
    coordinates: [  0.125000000376273,  0.625000000847141,  0.166666666669788 ]
    mass: 118.710000
    reduced_to: 49
  - symbol: Sn # 58
    coordinates: [  0.375000000376273,  0.625000000847141,  0.166666666669788 ]
    mass: 118.710000
    reduced_to: 49
  - symbol: Sn # 59
    coordinates: [  0.625000000376273,  0.625000000847141,  0.166666666669788 ]
    mass: 118.710000
    reduced_to: 49
  - symbol: Sn # 60
    coordinates: [  0.875000000376273,  0.625000000847141,  0.166666666669788 ]
    mass: 118.710000
    reduced_to: 49
  - symbol: Sn # 61
    coordinates: [  0.125000000376273,  0.875000000847141,  0.166666666669788 ]
    mass: 118.710000
    reduced_to: 49
  - symbol: Sn # 62
    coordinates: [  0.375000000376273,  0.875000000847141,  0.166666666669788 ]
    mass: 118.710000
    reduced_to: 49
  - symbol: Sn # 63
    coordinates: [  0.625000000376273,  0.875000000847141,  0.166666666669788 ]
    mass: 118.710000
    reduced_to: 49
  - symbol: Sn # 64
    coordinates: [  0.875000000376273,  0.875000000847141,  0.166666666669788 ]
    mass: 118.710000
    reduced_to: 49
  - symbol: Sn # 65
    coordinates: [  0.125000000376273,  0.125000000847141,  0.500000000003122 ]
    mass: 118.710000
    reduced_to: 49
  - symbol: Sn # 66
    coordinates: [  0.375000000376273,  0.125000000847141,  0.500000000003122 ]
    mass: 118.710000
    reduced_to: 49
  - symbol: Sn # 67
    coordinates: [  0.625000000376273,  0.125000000847141,  0.500000000003122 ]
    mass: 118.710000
    reduced_to: 49
  - symbol: Sn # 68
    coordinates: [  0.875000000376273,  0.125000000847141,  0.500000000003122 ]
    mass: 118.710000
    reduced_to: 49
  - symbol: Sn # 69
    coordinates: [  0.125000000376273,  0.375000000847141,  0.500000000003122 ]
    mass: 118.710000
    reduced_to: 49
  - symbol: Sn # 70
    coordinates: [  0.375000000376273,  0.375000000847141,  0.500000000003122 ]
    mass: 118.710000
    reduced_to: 49
  - symbol: Sn # 71
    coordinates: [  0.625000000376273,  0.375000000847141,  0.500000000003122 ]
    mass: 118.710000
    reduced_to: 49
  - symbol: Sn # 72
    coordinates: [  0.875000000376273,  0.375000000847141,  0.500000000003122 ]
    mass: 118.710000
    reduced_to: 49
  - symbol: Sn # 73
    coordinates: [  0.125000000376273,  0.625000000847141,  0.500000000003122 ]
    mass: 118.710000
    reduced_to: 49
  - symbol: Sn # 74
    coordinates: [  0.375000000376273,  0.625000000847141,  0.500000000003122 ]
    mass: 118.710000
    reduced_to: 49
  - symbol: Sn # 75
    coordinates: [  0.625000000376273,  0.625000000847141,  0.500000000003122 ]
    mass: 118.710000
    reduced_to: 49
  - symbol: Sn # 76
    coordinates: [  0.875000000376273,  0.625000000847141,  0.500000000003122 ]
    mass: 118.710000
    reduced_to: 49
  - symbol: Sn # 77
    coordinates: [  0.125000000376273,  0.875000000847141,  0.500000000003122 ]
    mass: 118.710000
    reduced_to: 49
  - symbol: Sn # 78
    coordinates: [  0.375000000376273,  0.875000000847141,  0.500000000003122 ]
    mass: 118.710000
    reduced_to: 49
  - symbol: Sn # 79
    coordinates: [  0.625000000376273,  0.875000000847141,  0.500000000003122 ]
    mass: 118.710000
    reduced_to: 49
  - symbol: Sn # 80
    coordinates: [  0.875000000376273,  0.875000000847141,  0.500000000003122 ]
    mass: 118.710000
    reduced_to: 49
  - symbol: Sn # 81
    coordinates: [  0.125000000376273,  0.125000000847141,  0.833333333336455 ]
    mass: 118.710000
    reduced_to: 49
  - symbol: Sn # 82
    coordinates: [  0.375000000376273,  0.125000000847141,  0.833333333336455 ]
    mass: 118.710000
    reduced_to: 49
  - symbol: Sn # 83
    coordinates: [  0.625000000376273,  0.125000000847141,  0.833333333336455 ]
    mass: 118.710000
    reduced_to: 49
  - symbol: Sn # 84
    coordinates: [  0.875000000376273,  0.125000000847141,  0.833333333336455 ]
    mass: 118.710000
    reduced_to: 49
  - symbol: Sn # 85
    coordinates: [  0.125000000376273,  0.375000000847141,  0.833333333336455 ]
    mass: 118.710000
    reduced_to: 49
  - symbol: Sn # 86
    coordinates: [  0.375000000376273,  0.375000000847141,  0.833333333336455 ]
    mass: 118.710000
    reduced_to: 49
  - symbol: Sn # 87
    coordinates: [  0.625000000376273,  0.375000000847141,  0.833333333336455 ]
    mass: 118.710000
    reduced_to: 49
  - symbol: Sn # 88
    coordinates: [  0.875000000376273,  0.375000000847141,  0.833333333336455 ]
    mass: 118.710000
    reduced_to: 49
  - symbol: Sn # 89
    coordinates: [  0.125000000376273,  0.625000000847141,  0.833333333336455 ]
    mass: 118.710000
    reduced_to: 49
  - symbol: Sn # 90
    coordinates: [  0.375000000376273,  0.625000000847141,  0.833333333336455 ]
    mass: 118.710000
    reduced_to: 49
  - symbol: Sn # 91
    coordinates: [  0.625000000376273,  0.625000000847141,  0.833333333336455 ]
    mass: 118.710000
    reduced_to: 49
  - symbol: Sn # 92
    coordinates: [  0.875000000376273,  0.625000000847141,  0.833333333336455 ]
    mass: 118.710000
    reduced_to: 49
  - symbol: Sn # 93
    coordinates: [  0.125000000376273,  0.875000000847141,  0.833333333336455 ]
    mass: 118.710000
    reduced_to: 49
  - symbol: Sn # 94
    coordinates: [  0.375000000376273,  0.875000000847141,  0.833333333336455 ]
    mass: 118.710000
    reduced_to: 49
  - symbol: Sn # 95
    coordinates: [  0.625000000376273,  0.875000000847141,  0.833333333336455 ]
    mass: 118.710000
    reduced_to: 49
  - symbol: Sn # 96
    coordinates: [  0.875000000376273,  0.875000000847141,  0.833333333336455 ]
    mass: 118.710000
    reduced_to: 49

displacements:
- atom:    1
  displacement:
    [   0.0069092225684446, -0.0000000000385839,  0.0072292906636610 ]
  forces:
  - [  -0.0087049072608352,  0.0000002047745511, -0.0130252307280898 ]
  - [   0.0011466229334474,  0.0000004974426702,  0.0004119090444874 ]
  - [  -0.0002236319705844,  0.0000001583830453,  0.0000429652573075 ]
  - [   0.0011222555767745, -0.0000004190951586,  0.0003980491310358 ]
  - [  -0.0000188424601220, -0.0000079087913036,  0.0004055968311150 ]
  - [  -0.0000104364007711, -0.0001078899949789,  0.0006254049949348 ]
  - [   0.0000553308054805,  0.0000007925555110,  0.0000273984333035 ]
  - [  -0.0000066961511038,  0.0001027807593346,  0.0006185590755194 ]
  - [  -0.0000089946552180,  0.0000012200325727,  0.0000430083891843 ]
  - [  -0.0000253645703197,  0.0000005923211575,  0.0000271966564469 ]
  - [   0.0000453898683190,  0.0000009983778000, -0.0000023897155188 ]
  - [  -0.0000265987273451,  0.0000001946464181,  0.0000282031833194 ]
  - [  -0.0000195327957044,  0.0000076410069596,  0.0004050228744745 ]
  - [  -0.0000097025185823,  0.0001082888629753,  0.0006244529504329 ]
  - [   0.0000553419813514, -0.0000002197048161,  0.0000285538844764 ]
  - [  -0.0000059440089899, -0.0001013521105051,  0.0006206771358848 ]
  - [  -0.0002757031470537,  0.0000002828019205,  0.0007379325106740 ]
  - [  -0.0002388227730989,  0.0000002783490345, -0.0005391502054408 ]
  - [  -0.0000092452391982,  0.0000005675537977, -0.0000281941902358 ]
  - [   0.0001642481656745, -0.0000002216547728, -0.0001528700813651 ]
  - [   0.0000086807413027, -0.0002023177221417, -0.0003463218163233 ]
  - [  -0.0003241458907723, -0.0003812238574028, -0.0005856939824298 ]
  - [   0.0000149849802256, -0.0000035120174289, -0.0000131729757413 ]
  - [   0.0001514158357168, -0.0000941995531321, -0.0001289934734814 ]
  - [   0.0000330124566972,  0.0000010188668966, -0.0000279058585875 ]
  - [  -0.0000177705660462,  0.0000009695068002, -0.0000181685027201 ]
  - [  -0.0000043101608753,  0.0000014631077647,  0.0000018879654817 ]
  - [  -0.0000093401467893,  0.0000010663643479, -0.0000106712104753 ]
  - [   0.0000082068145275,  0.0002022465923801, -0.0003460096195340 ]
  - [  -0.0003241216763854,  0.0003816472890321, -0.0005853387992829 ]
  - [   0.0000152783468366,  0.0000031902454793, -0.0000147971150000 ]
  - [   0.0001514953182777,  0.0000950219109654, -0.0001300629228354 ]
  - [  -0.0002764369128272,  0.0000002407177817,  0.0007475716993213 ]
  - [   0.0001631788909435,  0.0000003795430530, -0.0001540898811072 ]
  - [  -0.0000091018155217,  0.0000007894996088, -0.0000280074891634 ]
  - [  -0.0002327107213205,  0.0000003064051270, -0.0005309274420142 ]
  - [   0.0000063161842263,  0.0001969477161765, -0.0003427481860854 ]
  - [   0.0001506479457021,  0.0000954139977694, -0.0001295678084716 ]
  - [   0.0000151721760631,  0.0000049192458391, -0.0000148100662045 ]
  - [  -0.0003167001705151,  0.0003719637170434, -0.0005737887695432 ]
  - [   0.0000331967021339,  0.0000015152618289, -0.0000280035601463 ]
  - [  -0.0000098366290331,  0.0000010970979929, -0.0000095911382232 ]
  - [  -0.0000040587037802,  0.0000007757917047,  0.0000004367320798 ]
  - [  -0.0000180327624548,  0.0000004852190614, -0.0000176320900209 ]
  - [   0.0000054696574807, -0.0001972289173864, -0.0003428654745221 ]
  - [   0.0001508230343461, -0.0000951326801442, -0.0001296527334489 ]
  - [   0.0000152178108692, -0.0000044438347686, -0.0000143588695209 ]
  - [  -0.0003159091866110, -0.0003709141165018, -0.0005747424438596 ]
  - [   0.0029185116291046,  0.0035699531435966,  0.0025752112269402 ]
  - [  -0.0014986270107329,  0.0008349415147677,  0.0007428015815094 ]
  - [  -0.0002584713511169,  0.0000114916092571, -0.0000402405858040 ]
  - [   0.0007240933482535, -0.0001609134342289,  0.0000635683536530 ]
  - [   0.0029187158215791, -0.0035692714154720,  0.0025751059874892 ]
  - [  -0.0014986917376518, -0.0008349693380296,  0.0007425765506923 ]
  - [  -0.0002580808068160, -0.0000115530565381, -0.0000403315643780 ]
  - [   0.0007241945713758,  0.0001599434763193,  0.0000635981559753 ]
  - [   0.0000098017244454, -0.0010625189170241,  0.0000326950103045 ]
  - [   0.0001582503318787,  0.0000799573317636, -0.0000088514643721 ]
  - [   0.0000465969424113, -0.0000179428607225, -0.0000064279884100 ]
  - [  -0.0001526623673271,  0.0002162088640034, -0.0000139512121677 ]
  - [   0.0000101397745311,  0.0010606360156089,  0.0000326763838530 ]
  - [   0.0001580170355737, -0.0000815377279650, -0.0000085961073637 ]
  - [   0.0000490296370117,  0.0000158859184012, -0.0000064801424742 ]
  - [  -0.0001549320295453, -0.0002167471393477, -0.0000138729810715 ]
  - [  -0.0015217275358737, -0.0008288021199405,  0.0007305182516575 ]
  - [   0.0029947147704661, -0.0037011504173279,  0.0026587457396090 ]
  - [   0.0007353727705777,  0.0001592068001628,  0.0000657942146063 ]
  - [  -0.0002509409096092, -0.0000142082571983, -0.0000406894832850 ]
  - [  -0.0015227275434881,  0.0008290200494230,  0.0007307368796319 ]
  - [   0.0029950393363833,  0.0037008458748460,  0.0026586563326418 ]
  - [   0.0007385713979602, -0.0001588058657944,  0.0000659276265651 ]
  - [  -0.0002531829813961,  0.0000154208391905, -0.0000407714396715 ]
  - [   0.0001577092334628, -0.0000951066613197, -0.0000093970447779 ]
  - [   0.0000136983580887,  0.0010811135871336,  0.0000336255179718 ]
  - [  -0.0001604956778465, -0.0002290308475494, -0.0000138152390718 ]
  - [   0.0000525085488334,  0.0000075353309512, -0.0000067744404078 ]
  - [   0.0001590033207322,  0.0000941042380873, -0.0000096522271633 ]
  - [   0.0000119260512292, -0.0010816764552146,  0.0000338490935974 ]
  - [  -0.0001583257690072,  0.0002270565018989, -0.0000130198895931 ]
  - [   0.0000507719814777, -0.0000100826218841, -0.0000068731606007 ]
  - [  -0.0000108256936073, -0.0000202581286430, -0.0001642327406444 ]
  - [  -0.0000075846910477,  0.0000192002917174, -0.0001665260060690 ]
  - [   0.0000083036720753,  0.0000061872415245,  0.0000125592850964 ]
  - [   0.0000100629840745, -0.0000085886567831,  0.0000134558067657 ]
  - [  -0.0000097893062048,  0.0000207102857530, -0.0001644460135140 ]
  - [  -0.0000094543211162, -0.0000174837186933, -0.0001663861476118 ]
  - [   0.0000103645434137, -0.0000066575594246,  0.0000126007289509 ]
  - [   0.0000085522769950,  0.0000086142681539,  0.0000134953224915 ]
  - [  -0.0000118673779070, -0.0000110059045255,  0.0000132290078909 ]
  - [  -0.0000111227855086,  0.0000006677873898,  0.0000126683735289 ]
  - [   0.0000120704062283,  0.0000123586505651,  0.0000204672687687 ]
  - [   0.0000092695700005, -0.0000239079818130,  0.0000207391931326 ]
  - [  -0.0000108713284135,  0.0000092466543720,  0.0000134512811201 ]
  - [  -0.0000111358240247, -0.0000035798220779,  0.0000124856014736 ]
  - [   0.0000128597021103, -0.0000145249941852,  0.0000202861192520 ]
  - [   0.0000080727040768,  0.0000210884500120,  0.0000207142002182 ]
- atom:   49
  displacement:
    [   0.0069092225684446, -0.0000000000385839,  0.0072292906636610 ]
  forces:
  - [   0.0017280769534409,  0.0024118507280946,  0.0038454541936517 ]
  - [   0.0002853521145880,  0.0006001323927194,  0.0004791180253960 ]
  - [   0.0001913001760840, -0.0005602979217656, -0.0004625516594388 ]
  - [  -0.0002517510729376, -0.0004396038129926, -0.0004886193200946 ]
  - [   0.0001067598641384, -0.0000338600948453, -0.0000600484199822 ]
  - [  -0.0000569950789213, -0.0001214072108269, -0.0001111895544454 ]
  - [  -0.0000487528741360,  0.0001141857355833,  0.0000888254435267 ]
  - [   0.0000635301403236,  0.0001392327249050,  0.0000782524584793 ]
  - [   0.0001065710093826,  0.0000348621979356, -0.0000601996725891 ]
  - [  -0.0000562854111195,  0.0001222882419825, -0.0001115725026466 ]
  - [  -0.0000486113131046, -0.0001117996871471,  0.0000892158714123 ]
  - [   0.0000630540525890, -0.0001384178176522,  0.0000794259831309 ]
  - [   0.0017279962776229, -0.0024112360551953,  0.0038449726998806 ]
  - [   0.0002867206931114, -0.0005996352992952,  0.0004786810022779 ]
  - [   0.0001909174025059,  0.0005597962299362, -0.0004624352732208 ]
  - [  -0.0002513986546546,  0.0004403516650200, -0.0004872865974903 ]
  - [  -0.0000093448907137, -0.0000191504368559, -0.0001650759950280 ]
  - [   0.0000097285956144,  0.0000066361390054,  0.0000126292870846 ]
  - [   0.0000093271955848, -0.0000051671813708,  0.0000129614782054 ]
  - [  -0.0000095570867416,  0.0000194264575839, -0.0001660836860538 ]
  - [  -0.0000105792132672, -0.0000073891133070,  0.0000129656982608 ]
  - [   0.0000108452513814,  0.0000180397182703,  0.0000193917658180 ]
  - [   0.0000109244138002, -0.0000179270282388,  0.0000214852916542 ]
  - [  -0.0000103773290903,  0.0000082869082689,  0.0000132723944262 ]
  - [  -0.0000107748655864,  0.0000086342915893,  0.0000128279498313 ]
  - [   0.0000108880922198, -0.0000168634578586,  0.0000195285829250 ]
  - [   0.0000112373381853,  0.0000196145847440,  0.0000211445440073 ]
  - [  -0.0000097168376669, -0.0000067772343755,  0.0000132393033709 ]
  - [  -0.0000094100832939,  0.0000187953410204, -0.0001652287319303 ]
  - [   0.0000095544382930, -0.0000063475163188,  0.0000127535022330 ]
  - [   0.0000094464048743,  0.0000053103431128,  0.0000129620602820 ]
  - [  -0.0000086123382061, -0.0000196537002921, -0.0001662373542786 ]
  - [  -0.0002691780100577,  0.0003964343632106, -0.0004277648404241 ]
  - [   0.0001758532598615,  0.0005545204039663, -0.0004538577341009 ]
  - [   0.0003000618889928, -0.0006016494007781,  0.0004832542908844 ]
  - [   0.0016851201653481, -0.0023586973547935,  0.0037782397121191 ]
  - [   0.0000625399843557, -0.0001436732709408,  0.0000840274733491 ]
  - [  -0.0000493256375194, -0.0001140441745520,  0.0000913009280339 ]
  - [  -0.0000566039234400,  0.0001218393445015, -0.0001108855940402 ]
  - [   0.0001076426997315,  0.0000298367813230, -0.0000556658778805 ]
  - [   0.0000620726204943,  0.0001448672264814,  0.0000834735983517 ]
  - [  -0.0000487295910716,  0.0001155547797680,  0.0000913968251552 ]
  - [  -0.0000563366338611, -0.0001197326928377, -0.0001102432142943 ]
  - [   0.0001075678155757, -0.0000284174457192, -0.0000567331735510 ]
  - [  -0.0002696104347706, -0.0003959331661463, -0.0004280265420675 ]
  - [   0.0001765778288245, -0.0005541873397306, -0.0004537782515399 ]
  - [   0.0002999976277351,  0.0006019081920385,  0.0004832523700316 ]
  - [   0.0016857743030414,  0.0023592719808221,  0.0037770466879010 ]
  - [  -0.0212981626391411, -0.0000029242980872, -0.0188273452222347 ]
  - [   0.0074069211259484, -0.0000017131778804,  0.0000357517856173 ]
  - [  -0.0055907373316586, -0.0000016926592252,  0.0000707861036062 ]
  - [   0.0069331787526608, -0.0000021289838514,  0.0000911224633455 ]
  - [   0.0010132564930245, -0.0000075115822256,  0.0000642694649287 ]
  - [   0.0012778816744685,  0.0002022776752710, -0.0000544402864762 ]
  - [  -0.0010873358696699, -0.0000016852281988,  0.0000349644687958 ]
  - [   0.0012754464987665, -0.0001994026824832, -0.0000501200556755 ]
  - [  -0.0005605705082417, -0.0000034477561712,  0.0000706966966391 ]
  - [  -0.0000075511634350, -0.0000050180533435,  0.0000349372276105 ]
  - [   0.0005561272264458, -0.0000047511421144,  0.0000129695981741 ]
  - [  -0.0000047410430852, -0.0000047245994210,  0.0000346694141626 ]
  - [   0.0010138703510165,  0.0000110047803901,  0.0000641141086817 ]
  - [   0.0012757903896272, -0.0001965459669009, -0.0000539140310138 ]
  - [  -0.0010845276992768,  0.0000058687583078,  0.0000350326299667 ]
  - [   0.0012732003815472,  0.0002046187582891, -0.0000504497438669 ]
  - [  -0.0001806518848753, -0.0000016000121832,  0.0025023259222507 ]
  - [  -0.0000684242695570, -0.0000012888340279, -0.0000238121137954 ]
  - [   0.0000474429689348, -0.0000007371418178, -0.0000298693776131 ]
  - [   0.0001863415964181, -0.0000009182840586,  0.0002257581800222 ]
  - [  -0.0001508083369117, -0.0001243283040822,  0.0001040778588504 ]
  - [   0.0001392005942762,  0.0001618117094040,  0.0001092978054658 ]
  - [   0.0000631854854873,  0.0000047977082431, -0.0000159596675076 ]
  - [  -0.0001317626738455,  0.0001130946911871, -0.0001470129936934 ]
  - [   0.0000147903338075, -0.0000043991021812, -0.0000300034880638 ]
  - [   0.0000000866129994, -0.0000046361528803, -0.0000135896843858 ]
  - [  -0.0000096311941888, -0.0000048517249525, -0.0000061970204115 ]
  - [  -0.0000067896908149, -0.0000053886324167, -0.0000204611569643 ]
  - [  -0.0001495727192378,  0.0001297596463701,  0.0001043826341629 ]
  - [   0.0001374906860292, -0.0001567026629345,  0.0001104723778553 ]
  - [   0.0000651516020298, -0.0000004722678568, -0.0000166315585375 ]
  - [  -0.0001334585249424, -0.0001084198302124, -0.0001477058976889 ]
  - [  -0.0001751654781401, -0.0000010281801224,  0.0025398219004273 ]
  - [   0.0001926487311721, -0.0000007438356988,  0.0002319969935343 ]
  - [   0.0000500213354826, -0.0000018593855202, -0.0000315709185088 ]
  - [  -0.0000756482186262, -0.0000015180557966, -0.0000160887466336 ]
  - [  -0.0001479166385252,  0.0001353253610432,  0.0001045655371854 ]
  - [  -0.0001316396519542, -0.0001070848666131, -0.0001491569855716 ]
  - [   0.0000644155952614, -0.0000011669471860, -0.0000179145426955 ]
  - [   0.0001366347714793, -0.0001580100506544,  0.0001093329847208 ]
  - [   0.0000163530930877, -0.0000048903748393, -0.0000314701028401 ]
  - [  -0.0000075553543866, -0.0000054416886996, -0.0000210838043131 ]
  - [  -0.0000076345168054, -0.0000058449804783, -0.0000066041247919 ]
  - [  -0.0000026794732548, -0.0000056382268667, -0.0000140592892421 ]
  - [  -0.0001476109027863, -0.0001307720085606,  0.0001045959652402 ]
  - [  -0.0001324065960944,  0.0001119780790759, -0.0001499645295553 ]
  - [   0.0000651637092233,  0.0000062229228206, -0.0000176243338501 ]
  - [   0.0001348862424493,  0.0001626485027373,  0.0001095260231523 ]

force_constants:
  format: "full"
  shape: [ 96, 96 ]
  elements:
  - # (1, 1)
    - [     1.259925321225798,     0.000000000275195,    -0.000000003512569 ]
    - [     0.000000000275195,     1.259925321619725,    -0.000000001313969 ]
    - [    -0.000000003512569,    -0.000000001313969,     1.801710889524808 ]
  - # (1, 2)
    - [    -0.164163487492472,    -0.000000001081902,    -0.000000001295635 ]
    - [    -0.000000003741992,     0.002805637707609,     0.000000000527682 ]
    - [    -0.000000002358097,     0.000000000352592,    -0.056061307404789 ]
  - # (1, 3)
    - [     0.032395702514884,     0.000000000469339,     0.000000000393094 ]
    - [     0.000000000407858,     0.001330368052407,     0.000000000135119 ]