# Thermal properties / unit cell (natom)

unit:
  temperature:   K
  free_energy:   kJ/mol
  entropy:       J/K/mol
  heat_capacity: J/K/mol

natom: 2    
cutoff_frequency: 0.00000
num_modes: 141312
num_integrated_modes: 136792

zero_point_energy:       5.4689819

thermal_properties:
- temperature:         0.0000000
  free_energy:         5.4689819
  entropy:             0.0000000
  heat_capacity:       0.0000000
  energy:              5.4689819

- temperature:        10.0000000
  free_energy:         5.4673651
  entropy:             0.4630755
  heat_capacity:       0.9835020
  energy:              5.4719958

- temperature:        20.0000000
  free_energy:         5.4550890
  entropy:             2.2677551
  heat_capacity:       5.1891505
  energy:              5.5004441

- temperature:        30.0000000
  free_energy:         5.4176429
  entropy:             5.3600482
  heat_capacity:      10.3031347
  energy:              5.5784444

- temperature:        40.0000000
  free_energy:         5.3463872
  entropy:             8.9221732
  heat_capacity:      14.5132831
  energy:              5.7032741

- temperature:        50.0000000
  free_energy:         5.2390096
  entropy:            12.5503541
  heat_capacity:      18.0635850
  energy:              5.8665274

- temperature:        60.0000000
  free_energy:         5.0955418
  entropy:            16.1322548
  heat_capacity:      21.2842007
  energy:              6.0634771

- temperature:        70.0000000
  free_energy:         4.9166126
  entropy:            19.6400462
  heat_capacity:      24.2630806
  energy:              6.2914158

- temperature:        80.0000000
  free_energy:         4.7030317
  entropy:            23.0606035
  heat_capacity:      26.9843645
  energy:              6.5478800

- temperature:        90.0000000
  free_energy:         4.4557293
  entropy:            26.3825859
  heat_capacity:      29.4240793
  energy:              6.8301621

- temperature:       100.0000000
  free_energy:         4.1757401
  entropy:            29.5966585
  heat_capacity:      31.5777238
  energy:              7.1354059

- temperature:       110.0000000
  free_energy:         3.8641768
  entropy:            32.6966468
  heat_capacity:      33.4591505
  energy:              7.4608080

- temperature:       120.0000000
  free_energy:         3.5221972
  entropy:            35.6797166
  heat_capacity:      35.0929799
  energy:              7.8037632

- temperature:       130.0000000
  free_energy:         3.1509724
  entropy:            38.5458925
  heat_capacity:      36.5080556
  energy:              8.1619384

- temperature:       140.0000000
  free_energy:         2.7516619
  entropy:            41.2973566
  heat_capacity:      37.7333071
  energy:              8.5332918

- temperature:       150.0000000
  free_energy:         2.3253955
  entropy:            43.9377741
  heat_capacity:      38.7955766
  energy:              8.9160616

- temperature:       160.0000000
  free_energy:         1.8732613
  entropy:            46.4717413
  heat_capacity:      39.7187068
  energy:              9.3087399

- temperature:       170.0000000
  free_energy:         1.3962985
  entropy:            48.9043683
  heat_capacity:      40.5233404
  energy:              9.7100411

- temperature:       180.0000000
  free_energy:         0.8954940
  entropy:            51.2409818
  heat_capacity:      41.2270823
  energy:             10.1188707

- temperature:       190.0000000
  free_energy:         0.3717811
  entropy:            53.4869223
  heat_capacity:      41.8448172
  energy:             10.5342963

- temperature:       200.0000000
  free_energy:        -0.1739597
  entropy:            55.6474100
  heat_capacity:      42.3890736
  energy:             10.9555223

- temperature:       210.0000000
  free_energy:        -0.7408990
  entropy:            57.7274627
  heat_capacity:      42.8703785
  energy:             11.3818681

- temperature:       220.0000000
  free_energy:        -1.3282567
  entropy:            59.7318474
  heat_capacity:      43.2975777
  energy:             11.8127497

- temperature:       230.0000000
  free_energy:        -1.9352987
  entropy:            61.6650566
  heat_capacity:      43.6781140
  energy:             12.2476643

- temperature:       240.0000000
  free_energy:        -2.5613347
  entropy:            63.5313006
  heat_capacity:      44.0182630
  energy:             12.6861775

- temperature:       250.0000000
  free_energy:        -3.2057147
  entropy:            65.3345095
  heat_capacity:      44.3233307
  energy:             13.1279127

- temperature:       260.0000000
  free_energy:        -3.8678270
  entropy:            67.0783430
  heat_capacity:      44.5978165
  energy:             13.5725422

- temperature:       270.0000000
  free_energy:        -4.5470950
  entropy:            68.7662033
  heat_capacity:      44.8455486
  energy:             14.0197799

- temperature:       280.0000000
  free_energy:        -5.2429750
  entropy:            70.4012499
  heat_capacity:      45.0697950
  energy:             14.4693750

- temperature:       290.0000000
  free_energy:        -5.9549537
  entropy:            71.9864160
  heat_capacity:      45.2733553
  energy:             14.9211069

- temperature:       300.0000000
  free_energy:        -6.6825461
  entropy:            73.5244244
  heat_capacity:      45.4586357
  energy:             15.3747812

- temperature:       310.0000000
  free_energy:        -7.4252935
  entropy:            75.0178036
  heat_capacity:      45.6277118
  energy:             15.8302256

- temperature:       320.0000000
  free_energy:        -8.1827613
  entropy:            76.4689022
  heat_capacity:      45.7823798
  energy:             16.2872874

- temperature:       330.0000000
  free_energy:        -8.9545379
  entropy:            77.8799039
  heat_capacity:      45.9241993
  energy:             16.7458304

- temperature:       340.0000000
  free_energy:        -9.7402325
  entropy:            79.2528401
  heat_capacity:      46.0545288
  energy:             17.2057331

- temperature:       350.0000000
  free_energy:       -10.5394741
  entropy:            80.5896022
  heat_capacity:      46.1745554
  energy:             17.6668867

- temperature:       360.0000000
  free_energy:       -11.3519099
  entropy:            81.8919534
  heat_capacity:      46.2853196
  energy:             18.1291934

- temperature:       370.0000000
  free_energy:       -12.1772040
  entropy:            83.1615384
  heat_capacity:      46.3877357
  energy:             18.5925652

- temperature:       380.0000000
  free_energy:       -13.0150365
  entropy:            84.3998934
  heat_capacity:      46.4826101
  energy:             19.0569229

- temperature:       390.0000000
  free_energy:       -13.8651025
  entropy:            85.6084544
  heat_capacity:      46.5706552
  energy:             19.5221947

- temperature:       400.0000000
  free_energy:       -14.7271108
  entropy:            86.7885655
  heat_capacity:      46.6525027
  energy:             19.9883154

- temperature:       410.0000000
  free_energy:       -15.6007832
  entropy:            87.9414858
  heat_capacity:      46.7287137
  energy:             20.4552260

- temperature:       420.0000000
  free_energy:       -16.4858538
  entropy:            89.0683962
  heat_capacity:      46.7997881
  energy:             20.9228726

- temperature:       430.0000000
  free_energy:       -17.3820682
  entropy:            90.1704052
  heat_capacity:      46.8661723
  energy:             21.3912061

- temperature:       440.0000000
  free_energy:       -18.2891824
  entropy:            91.2485548
  heat_capacity:      46.9282655
  energy:             21.8601817

- temperature:       450.0000000
  free_energy:       -19.2069630
  entropy:            92.3038251
  heat_capacity:      46.9864262
  energy:             22.3297583

- temperature:       460.0000000
  free_energy:       -20.1351857
  entropy:            93.3371390
  heat_capacity:      47.0409763
  energy:             22.7998982

- temperature:       470.0000000
  free_energy:       -21.0736355
  entropy:            94.3493665
  heat_capacity:      47.0922058
  energy:             23.2705668

- temperature:       480.0000000
  free_energy:       -22.0221055
  entropy:            95.3413284
  heat_capacity:      47.1403765
  energy:             23.7417321

- temperature:       490.0000000
  free_energy:       -22.9803971
  entropy:            96.3138000
  heat_capacity:      47.1857251
  energy:             24.2133649

- temperature:       500.0000000
  free_energy:       -23.9483190
  entropy:            97.2675139
  heat_capacity:      47.2284660
  energy:             24.6854379

- temperature:       510.0000000
  free_energy:       -24.9256872
  entropy:            98.2031634
  heat_capacity:      47.2687938
  energy:             25.1579262

- temperature:       520.0000000
  free_energy:       -25.9123242
  entropy:            99.1214050
  heat_capacity:      47.3068855
  energy:             25.6308064

- temperature:       530.0000000
  free_energy:       -26.9080593
  entropy:           100.0228609
  heat_capacity:      47.3429021
  energy:             26.1040570

- temperature:       540.0000000
  free_energy:       -27.9127275
  entropy:           100.9081212
  heat_capacity:      47.3769908
  energy:             26.5776580

- temperature:       550.0000000
  free_energy:       -28.9261696
  entropy:           101.7777462
  heat_capacity:      47.4092857
  energy:             27.0515908

- temperature:       560.0000000
  free_energy:       -29.9482321
  entropy:           102.6322682
  heat_capacity:      47.4399097
  energy:             27.5258381

- temperature:       570.0000000
  free_energy:       -30.9787663
  entropy:           103.4721932
  heat_capacity:      47.4689754
  energy:             28.0003838

- temperature:       580.0000000
  free_energy:       -32.0176289
  entropy:           104.2980028
  heat_capacity:      47.4965861
  energy:             28.4752128

- temperature:       590.0000000
  free_energy:       -33.0646809
  entropy:           105.1101557
  heat_capacity:      47.5228368
  energy:             28.9503110

- temperature:       600.0000000
  free_energy:       -34.1197879
  entropy:           105.9090887
  heat_capacity:      47.5478149
  energy:             29.4256653

- temperature:       610.0000000
  free_energy:       -35.1828200
  entropy:           106.6952185
  heat_capacity:      47.5716009
  energy:             29.9012633

- temperature:       620.0000000
  free_energy:       -36.2536509
  entropy:           107.4689428
  heat_capacity:      47.5942690
  energy:             30.3770936

- temperature:       630.0000000
  free_energy:       -37.3321587
  entropy:           108.2306412
  heat_capacity:      47.6158879
  energy:             30.8531452

- temperature:       640.0000000
  free_energy:       -38.4182249
  entropy:           108.9806765
  heat_capacity:      47.6365210
  energy:             31.3294080

- temperature:       650.0000000
  free_energy:       -39.5117345
  entropy:           109.7193955
  heat_capacity:      47.6562271
  energy:             31.8058725

- temperature:       660.0000000
  free_energy:       -40.6125762
  entropy:           110.4471301
  heat_capacity:      47.6750606
  energy:             32.2825297

- temperature:       670.0000000
  free_energy:       -41.7206416
  entropy:           111.1641979
  heat_capacity:      47.6930720
  energy:             32.7593710

- temperature:       680.0000000
  free_energy:       -42.8358256
  entropy:           111.8709031
  heat_capacity:      47.7103084
  energy:             33.2363885

- temperature:       690.0000000
  free_energy:       -43.9580261
  entropy:           112.5675374
  heat_capacity:      47.7268133
  energy:             33.7135747

- temperature:       700.0000000
  free_energy:       -45.0871437
  entropy:           113.2543803
  heat_capacity:      47.7426274
  energy:             34.1909225

- temperature:       710.0000000
  free_energy:       -46.2230819
  entropy:           113.9317001
  heat_capacity:      47.7577886
  energy:             34.6684251

- temperature:       720.0000000
  free_energy:       -47.3657468
  entropy:           114.5997542
  heat_capacity:      47.7723322
  energy:             35.1460762

- temperature:       730.0000000
  free_energy:       -48.5150470
  entropy:           115.2587901
  heat_capacity:      47.7862911
  energy:             35.6238698

- temperature:       740.0000000
  free_energy:       -49.6708934
  entropy:           115.9090453
  heat_capacity:      47.7996962
  energy:             36.1018002

- temperature:       750.0000000
  free_energy:       -50.8331994
  entropy:           116.5507485
  heat_capacity:      47.8125763
  energy:             36.5798620

- temperature:       760.0000000
  free_energy:       -52.0018806
  entropy:           117.1841192
  heat_capacity:      47.8249583
  energy:             37.0580500

- temperature:       770.0000000
  free_energy:       -53.1768547
  entropy:           117.8093692
  heat_capacity:      47.8368675
  energy:             37.5363596

- temperature:       780.0000000
  free_energy:       -54.3580416
  entropy:           118.4267019
  heat_capacity:      47.8483276
  energy:             38.0147859

- temperature:       790.0000000
  free_energy:       -55.5453630
  entropy:           119.0363135
  heat_capacity:      47.8593609
  energy:             38.4933247

- temperature:       800.0000000
  free_energy:       -56.7387427
  entropy:           119.6383931
  heat_capacity:      47.8699881
  energy:             38.9719718

- temperature:       810.0000000
  free_energy:       -57.9381064
  entropy:           120.2331229
  heat_capacity:      47.8802290
  energy:             39.4507232

- temperature:       820.0000000
  free_energy:       -59.1433813
  entropy:           120.8206785
  heat_capacity:      47.8901019
  energy:             39.9295751

- temperature:       830.0000000
  free_energy:       -60.3544966
  entropy:           121.4012296
  heat_capacity:      47.8996243
  energy:             40.4085240

- temperature:       840.0000000
  free_energy:       -61.5713831
  entropy:           121.9749399
  heat_capacity:      47.9088125
  energy:             40.8875665

- temperature:       850.0000000
  free_energy:       -62.7939731
  entropy:           122.5419674
  heat_capacity:      47.9176818
  energy:             41.3666992

- temperature:       860.0000000
  free_energy:       -64.0222006
  entropy:           123.1024648
  heat_capacity:      47.9262469
  energy:             41.8459191

- temperature:       870.0000000
  free_energy:       -65.2560011
  entropy:           123.6565797
  heat_capacity:      47.9345215
  energy:             42.3252232

- temperature:       880.0000000
  free_energy:       -66.4953114
  entropy:           124.2044546
  heat_capacity:      47.9425185
  energy:             42.8046086

- temperature:       890.0000000
  free_energy:       -67.7400699
  entropy:           124.7462276
  heat_capacity:      47.9502502
  energy:             43.2840727

- temperature:       900.0000000
  free_energy:       -68.9902161
  entropy:           125.2820321
  heat_capacity:      47.9577282
  energy:             43.7636128

- temperature:       910.0000000
  free_energy:       -70.2456911
  entropy:           125.8119972
  heat_capacity:      47.9649633
  energy:             44.2432264

- temperature:       920.0000000
  free_energy:       -71.5064370
  entropy:           126.3362481
  heat_capacity:      47.9719660
  energy:             44.7229113

- temperature:       930.0000000
  free_energy:       -72.7723974
  entropy:           126.8549058
  heat_capacity:      47.9787462
  energy:             45.2026650

- temperature:       940.0000000
  free_energy:       -74.0435169
  entropy:           127.3680876
  heat_capacity:      47.9853130
  energy:             45.6824855

- temperature:       950.0000000
  free_energy:       -75.3197412
  entropy:           127.8759072
  heat_capacity:      47.9916754
  energy:             46.1623706

- temperature:       960.0000000
  free_energy:       -76.6010175
  entropy:           128.3784748
  heat_capacity:      47.9978418
  energy:             46.6423183

- temperature:       970.0000000
  free_energy:       -77.8872936
  entropy:           128.8758973
  heat_capacity:      48.0038200
  energy:             47.1223268

- temperature:       980.0000000
  free_energy:       -79.1785186
  entropy:           129.3682783
  heat_capacity:      48.0096177
  energy:             47.6023941

- temperature:       990.0000000
  free_energy:       -80.4746427
  entropy:           129.8557184
  heat_capacity:      48.0152421
  energy:             48.0825186

- temperature:      1000.0000000
  free_energy:       -81.7756169
  entropy:           130.3383153
  heat_capacity:      48.0206999
  energy:             48.5626984
