# Thermal properties / unit cell (natom)

unit:
  temperature:   K
  free_energy:   kJ/mol
  entropy:       J/K/mol
  heat_capacity: J/K/mol

natom: 4    
cutoff_frequency: 0.00000
num_modes: 107916
num_integrated_modes: 89860

zero_point_energy:       3.4744825

thermal_properties:
- temperature:         0.0000000
  free_energy:         3.4744825
  entropy:             0.0000000
  heat_capacity:       0.0000000
  energy:              3.4744825

- temperature:        10.0000000
  free_energy:         3.4597771
  entropy:             4.1878224
  heat_capacity:       7.6686029
  energy:              3.5016553

- temperature:        20.0000000
  free_energy:         3.3691202
  entropy:            14.9116945
  heat_capacity:      26.7074848
  energy:              3.6673541

- temperature:        30.0000000
  free_energy:         3.1486688
  entropy:            29.4633328
  heat_capacity:      45.3308678
  energy:              4.0325687

- temperature:        40.0000000
  free_energy:         2.7791175
  entropy:            44.3230732
  heat_capacity:      57.5868172
  energy:              4.5520404

- temperature:        50.0000000
  free_energy:         2.2660928
  entropy:            58.0525627
  heat_capacity:      65.1516186
  energy:              5.1687210

- temperature:        60.0000000
  free_energy:         1.6227543
  entropy:            70.3857285
  heat_capacity:      69.9364538
  energy:              5.8458980

- temperature:        70.0000000
  free_energy:         0.8627166
  entropy:            81.4193808
  heat_capacity:      73.0917636
  energy:              6.5620732

- temperature:        80.0000000
  free_energy:        -0.0018894
  entropy:            91.3295068
  heat_capacity:      75.2595952
  energy:              7.3044711

- temperature:        90.0000000
  free_energy:        -0.9607039
  entropy:           100.2878516
  heat_capacity:      76.8039480
  energy:              8.0652028

- temperature:       100.0000000
  free_energy:        -2.0049674
  entropy:           108.4416167
  heat_capacity:      77.9388855
  energy:              8.8391942

- temperature:       110.0000000
  free_energy:        -3.1272607
  entropy:           115.9119831
  heat_capacity:      78.7953701
  energy:              9.6230574

- temperature:       120.0000000
  free_energy:        -4.3212600
  entropy:           122.7976144
  heat_capacity:      79.4565602
  energy:             10.4144537

- temperature:       130.0000000
  free_energy:        -5.5815334
  entropy:           129.1788844
  heat_capacity:      79.9770605
  energy:             11.2117216

- temperature:       140.0000000
  free_energy:        -6.9033772
  entropy:           135.1216251
  heat_capacity:      80.3938104
  energy:             12.0136503

- temperature:       150.0000000
  free_energy:        -8.2826862
  entropy:           140.6801634
  heat_capacity:      80.7324665
  energy:             12.8193383

- temperature:       160.0000000
  free_energy:        -9.7158513
  entropy:           145.8996997
  heat_capacity:      81.0112695
  energy:             13.6281007

- temperature:       170.0000000
  free_energy:       -11.1996773
  entropy:           150.8181525
  heat_capacity:      81.2434598
  energy:             14.4394087

- temperature:       180.0000000
  free_energy:       -12.7313181
  entropy:           155.4675862
  heat_capacity:      81.4388275
  energy:             15.2528474

- temperature:       190.0000000
  free_energy:       -14.3082238
  entropy:           159.8753208
  heat_capacity:      81.6047326
  energy:             16.0680872

- temperature:       200.0000000
  free_energy:       -15.9280974
  entropy:           164.0648003
  heat_capacity:      81.7467918
  energy:             16.8848627

- temperature:       210.0000000
  free_energy:       -17.5888601
  entropy:           168.0562770
  heat_capacity:      81.8693490
  energy:             17.7029581

- temperature:       220.0000000
  free_energy:       -19.2886218
  entropy:           171.8673541
  heat_capacity:      81.9758057
  energy:             18.5221961

- temperature:       230.0000000
  free_energy:       -21.0256573
  entropy:           175.5134213
  heat_capacity:      82.0688549
  energy:             19.3424296

- temperature:       240.0000000
  free_energy:       -22.7983855
  entropy:           179.0080050
  heat_capacity:      82.1506511
  energy:             20.1635357

- temperature:       250.0000000
  free_energy:       -24.6053524
  entropy:           182.3630535
  heat_capacity:      82.2229336
  energy:             20.9854109

- temperature:       260.0000000
  free_energy:       -26.4452169
  entropy:           185.5891705
  heat_capacity:      82.2871192
  energy:             21.8079674

- temperature:       270.0000000
  free_energy:       -28.3167377
  entropy:           188.6958071
  heat_capacity:      82.3443709
  energy:             22.6311302

- temperature:       280.0000000
  free_energy:       -30.2187631
  entropy:           191.6914215
  heat_capacity:      82.3956507
  energy:             23.4548350

- temperature:       290.0000000
  free_energy:       -32.1502215
  entropy:           194.5836120
  heat_capacity:      82.4417596
  energy:             24.2790260

- temperature:       300.0000000
  free_energy:       -34.1101135
  entropy:           197.3792288
  heat_capacity:      82.4833690
  energy:             25.1036552

- temperature:       310.0000000
  free_energy:       -36.0975048
  entropy:           200.0844682
  heat_capacity:      82.5210447
  energy:             25.9286803

- temperature:       320.0000000
  free_energy:       -38.1115204
  entropy:           202.7049529
  heat_capacity:      82.5552668
  energy:             26.7540646

- temperature:       330.0000000
  free_energy:       -40.1513385
  entropy:           205.2458000
  heat_capacity:      82.5864442
  energy:             27.5797755

- temperature:       340.0000000
  free_energy:       -42.2161865
  entropy:           207.7116794
  heat_capacity:      82.6149271
  energy:             28.4057845

- temperature:       350.0000000
  free_energy:       -44.3053365
  entropy:           210.1068644
  heat_capacity:      82.6410169
  energy:             29.2320661

- temperature:       360.0000000
  free_energy:       -46.4181013
  entropy:           212.4352749
  heat_capacity:      82.6649740
  energy:             30.0585977

- temperature:       370.0000000
  free_energy:       -48.5538314
  entropy:           214.7005152
  heat_capacity:      82.6870245
  energy:             30.8853592

- temperature:       380.0000000
  free_energy:       -50.7119121
  entropy:           216.9059068
  heat_capacity:      82.7073652
  energy:             31.7123325

- temperature:       390.0000000
  free_energy:       -52.8917603
  entropy:           219.0545172
  heat_capacity:      82.7261682
  energy:             32.5395014

- temperature:       400.0000000
  free_energy:       -55.0928227
  entropy:           221.1491847
  heat_capacity:      82.7435845
  energy:             33.3668512

- temperature:       410.0000000
  free_energy:       -57.3145730
  entropy:           223.1925412
  heat_capacity:      82.7597471
  energy:             34.1943689

- temperature:       420.0000000
  free_energy:       -59.5565106
  entropy:           225.1870310
  heat_capacity:      82.7747734
  energy:             35.0220424

- temperature:       430.0000000
  free_energy:       -61.8181583
  entropy:           227.1349285
  heat_capacity:      82.7887674
  energy:             35.8498609

- temperature:       440.0000000
  free_energy:       -64.0990610
  entropy:           229.0383536
  heat_capacity:      82.8018214
  energy:             36.6778146

- temperature:       450.0000000
  free_energy:       -66.3987838
  entropy:           230.8992850
  heat_capacity:      82.8140177
  energy:             37.5058945

- temperature:       460.0000000
  free_energy:       -68.7169112
  entropy:           232.7195729
  heat_capacity:      82.8254297
  energy:             38.3340923

- temperature:       470.0000000
  free_energy:       -71.0530455
  entropy:           234.5009494
  heat_capacity:      82.8361233
  energy:             39.1624007

- temperature:       480.0000000
  free_energy:       -73.4068059
  entropy:           236.2450386
  heat_capacity:      82.8461575
  energy:             39.9908126

- temperature:       490.0000000
  free_energy:       -75.7778271
  entropy:           237.9533652
  heat_capacity:      82.8555853
  energy:             40.8193218

- temperature:       500.0000000
  free_energy:       -78.1657588
  entropy:           239.6273625
  heat_capacity:      82.8644547
  energy:             41.6479225

- temperature:       510.0000000
  free_energy:       -80.5702644
  entropy:           241.2683797
  heat_capacity:      82.8728088
  energy:             42.4766092

- temperature:       520.0000000
  free_energy:       -82.9910207
  entropy:           242.8776880
  heat_capacity:      82.8806867
  energy:             43.3053771

- temperature:       530.0000000
  free_energy:       -85.4277165
  entropy:           244.4564867
  heat_capacity:      82.8881240
  energy:             44.1342215

- temperature:       540.0000000
  free_energy:       -87.8800525
  entropy:           246.0059087
  heat_capacity:      82.8951529
  energy:             44.9631382

- temperature:       550.0000000
  free_energy:       -90.3477403
  entropy:           247.5270247
  heat_capacity:      82.9018028
  energy:             45.7921233

- temperature:       560.0000000
  free_energy:       -92.8305020
  entropy:           249.0208484
  heat_capacity:      82.9081003
  energy:             46.6211731

- temperature:       570.0000000
  free_energy:       -95.3280695
  entropy:           250.4883398
  heat_capacity:      82.9140700
  energy:             47.4502842

- temperature:       580.0000000
  free_energy:       -97.8401841
  entropy:           251.9304095
  heat_capacity:      82.9197342
  energy:             48.2794534

- temperature:       590.0000000
  free_energy:      -100.3665959
  entropy:           253.3479216
  heat_capacity:      82.9251134
  energy:             49.1086779

- temperature:       600.0000000
  free_energy:      -102.9070634
  entropy:           254.7416970
  heat_capacity:      82.9302264
  energy:             49.9379548

- temperature:       610.0000000
  free_energy:      -105.4613533
  entropy:           256.1125162
  heat_capacity:      82.9350904
  energy:             50.7672816

- temperature:       620.0000000
  free_energy:      -108.0292397
  entropy:           257.4611218
  heat_capacity:      82.9397214
  energy:             51.5966558

- temperature:       630.0000000
  free_energy:      -110.6105040
  entropy:           258.7882212
  heat_capacity:      82.9441340
  energy:             52.4260753

- temperature:       640.0000000
  free_energy:      -113.2049347
  entropy:           260.0944883
  heat_capacity:      82.9483417
  energy:             53.2555378

- temperature:       650.0000000
  free_energy:      -115.8123265
  entropy:           261.3805662
  heat_capacity:      82.9523570
  energy:             54.0850415

- temperature:       660.0000000
  free_energy:      -118.4324808
  entropy:           262.6470684
  heat_capacity:      82.9561914
  energy:             54.9145844

- temperature:       670.0000000
  free_energy:      -121.0652046
  entropy:           263.8945811
  heat_capacity:      82.9598557
  energy:             55.7441648

- temperature:       680.0000000
  free_energy:      -123.7103109
  entropy:           265.1236646
  heat_capacity:      82.9633598
  energy:             56.5737810

- temperature:       690.0000000
  free_energy:      -126.3676182
  entropy:           266.3348546
  heat_capacity:      82.9667128
  energy:             57.4034314

- temperature:       700.0000000
  free_energy:      -129.0369501
  entropy:           267.5286641
  heat_capacity:      82.9699234
  energy:             58.2331147

- temperature:       710.0000000
  free_energy:      -131.7181352
  entropy:           268.7055841
  heat_capacity:      82.9729994
  energy:             59.0628295

- temperature:       720.0000000
  free_energy:      -134.4110071
  entropy:           269.8660852
  heat_capacity:      82.9759484
  energy:             59.8925743

- temperature:       730.0000000
  free_energy:      -137.1154037
  entropy:           271.0106188
  heat_capacity:      82.9787771
  energy:             60.7223480

- temperature:       740.0000000
  free_energy:      -139.8311677
  entropy:           272.1396177
  heat_capacity:      82.9814921
  energy:             61.5521495

- temperature:       750.0000000
  free_energy:      -142.5581457
  entropy:           273.2534976
  heat_capacity:      82.9840993
  energy:             62.3819775

- temperature:       760.0000000
  free_energy:      -145.2961885
  entropy:           274.3526574
  heat_capacity:      82.9866044
  energy:             63.2118311

- temperature:       770.0000000
  free_energy:      -148.0451510
  entropy:           275.4374809
  heat_capacity:      82.9890126
  energy:             64.0417093

- temperature:       780.0000000
  free_energy:      -150.8048916
  entropy:           276.5083367
  heat_capacity:      82.9913289
  energy:             64.8716111

- temperature:       790.0000000
  free_energy:      -153.5752724
  entropy:           277.5655797
  heat_capacity:      82.9935579
  energy:             65.7015356

- temperature:       800.0000000
  free_energy:      -156.3561590
  entropy:           278.6095511
  heat_capacity:      82.9957039
  energy:             66.5314819

- temperature:       810.0000000
  free_energy:      -159.1474203
  entropy:           279.6405798
  heat_capacity:      82.9977711
  energy:             67.3614494

- temperature:       820.0000000
  free_energy:      -161.9489285
  entropy:           280.6589824
  heat_capacity:      82.9997631
  energy:             68.1914371

- temperature:       830.0000000
  free_energy:      -164.7605588
  entropy:           281.6650642
  heat_capacity:      83.0016836
  energy:             69.0214444

- temperature:       840.0000000
  free_energy:      -167.5821897
  entropy:           282.6591193
  heat_capacity:      83.0035360
  energy:             69.8514706

- temperature:       850.0000000
  free_energy:      -170.4137021
  entropy:           283.6414318
  heat_capacity:      83.0053235
  energy:             70.6815149

- temperature:       860.0000000
  free_energy:      -173.2549801
  entropy:           284.6122755
  heat_capacity:      83.0070491
  energy:             71.5115768

- temperature:       870.0000000
  free_energy:      -176.1059103
  entropy:           285.5719149
  heat_capacity:      83.0087155
  energy:             72.3416557

- temperature:       880.0000000
  free_energy:      -178.9663819
  entropy:           286.5206055
  heat_capacity:      83.0103255
  energy:             73.1717509

- temperature:       890.0000000
  free_energy:      -181.8362867
  entropy:           287.4585941
  heat_capacity:      83.0118816
  energy:             74.0018620

- temperature:       900.0000000
  free_energy:      -184.7155189
  entropy:           288.3861192
  heat_capacity:      83.0133861
  energy:             74.8319884

- temperature:       910.0000000
  free_energy:      -187.6039750
  entropy:           289.3034116
  heat_capacity:      83.0148414
  energy:             75.6621296

- temperature:       920.0000000
  free_energy:      -190.5015537
  entropy:           290.2106944
  heat_capacity:      83.0162495
  energy:             76.4922851

- temperature:       930.0000000
  free_energy:      -193.4081562
  entropy:           291.1081835
  heat_capacity:      83.0176124
  energy:             77.3224544

- temperature:       940.0000000
  free_energy:      -196.3236855
  entropy:           291.9960879
  heat_capacity:      83.0189321
  energy:             78.1526372

- temperature:       950.0000000
  free_energy:      -199.2480467
  entropy:           292.8746101
  heat_capacity:      83.0202104
  energy:             78.9828329

- temperature:       960.0000000
  free_energy:      -202.1811470
  entropy:           293.7439461
  heat_capacity:      83.0214490
  energy:             79.8130413

- temperature:       970.0000000
  free_energy:      -205.1228956
  entropy:           294.6042860
  heat_capacity:      83.0226495
  energy:             80.6432618

- temperature:       980.0000000
  free_energy:      -208.0732034
  entropy:           295.4558138
  heat_capacity:      83.0238135
  energy:             81.4734941

- temperature:       990.0000000
  free_energy:      -211.0319831
  entropy:           296.2987081
  heat_capacity:      83.0249424
  energy:             82.3037379

- temperature:      1000.0000000
  free_energy:      -213.9991494
  entropy:           297.1331422
  heat_capacity:      83.0260376
  energy:             83.1339929
