phonopy:
  version: "2.37.1"
  frequency_unit_conversion_factor: 15.633302
  symmetry_tolerance: 1.00000e-05

space_group:
  type: "P1"
  number: 1
  Hall_symbol: "P 1"

primitive_matrix:
- [ -1.000000000000000,  0.000000000000000,  0.000000000000000 ]
- [  0.000000000000000, -1.000000000000000,  1.000000000000000 ]
- [  0.000000000000000,  0.000000000000000,  1.000000000000000 ]

supercell_matrix:
- [   2,   0,   0 ]
- [   0,   2,   0 ]
- [   0,   0,   1 ]

primitive_cell:
  lattice:
  - [    -6.010928144791715,     0.000000000000000,     0.000000000000000 ] # a
  - [     2.440096248183591,    -6.263256211431009,     0.000000000000000 ] # b
  - [     0.192671497879995,     2.438275752843542,    13.419576129809045 ] # c
  points:
  - symbol: Sn # 1
    coordinates: [  0.364406492823671,  0.489615689067514,  0.956945265838995 ]
    mass: 118.710000
  - symbol: Sn # 2
    coordinates: [  0.477360355435980,  0.825469122054921,  0.179347061149930 ]
    mass: 118.710000
  - symbol: Sn # 3
    coordinates: [  0.252023373308826,  0.651864628348500,  0.734748780707526 ]
    mass: 118.710000
  - symbol: Sn # 4
    coordinates: [  0.808463575254344,  0.820368896415871,  0.846365041145667 ]
    mass: 118.710000
  - symbol: Sn # 5
    coordinates: [  0.032155107353246,  0.493359689719979,  0.290543349379887 ]
    mass: 118.710000
  - symbol: Sn # 6
    coordinates: [  0.807722461932302,  0.320376192610055,  0.846115177008028 ]
    mass: 118.710000
  - symbol: Sn # 7
    coordinates: [  0.141011337733648,  0.323750242772567,  0.512239587658283 ]
    mass: 118.710000
  - symbol: Sn # 8
    coordinates: [  0.365353014148362,  0.989289352183824,  0.956817812049472 ]
    mass: 118.710000
  - symbol: Sn # 9
    coordinates: [  0.920857206125921,  0.659668776626993,  0.067796548524944 ]
    mass: 118.710000
  - symbol: Sn # 10
    coordinates: [  0.586436721102330,  0.158978655655577,  0.401916160240971 ]
    mass: 118.710000
  - symbol: Sn # 11
    coordinates: [  0.921685698372441,  0.160066829086666,  0.068502536803416 ]
    mass: 118.710000
  - symbol: Sn # 12
    coordinates: [  0.696571190559109,  0.988621987598545,  0.623633055630401 ]
    mass: 118.710000
  - symbol: Sn # 13
    coordinates: [  0.696043200005887,  0.488598065819286,  0.624037510062037 ]
    mass: 118.710000
  - symbol: Sn # 14
    coordinates: [  0.477743231361095,  0.325660666651673,  0.179369005966828 ]
    mass: 118.710000
  - symbol: Sn # 15
    coordinates: [  0.141809602338245,  0.823988996439342,  0.512540022362480 ]
    mass: 118.710000
  - symbol: Sn # 16
    coordinates: [  0.032958754396483,  0.993537061206310,  0.289490279158198 ]
    mass: 118.710000
  - symbol: Sn # 17
    coordinates: [  0.251372606056492,  0.152008380110917,  0.735301215173494 ]
    mass: 118.710000
  - symbol: Sn # 18
    coordinates: [  0.587774300517579,  0.659291894133955,  0.401380608758304 ]
    mass: 118.710000
  reciprocal_lattice: # without 2pi
  - [    -0.166363658974441,    -0.064813465455356,     0.014164876357214 ] # a*
  - [    -0.000000000000000,    -0.159661359242323,     0.029009740482179 ] # b*
  - [    -0.000000000000000,    -0.000000000000000,     0.074518001934405 ] # c*

unit_cell:
  lattice:
  - [     6.010928144791714,     0.000000000000000,     0.000000000000000 ] # a
  - [    -2.440096248183590,     6.263256211431007,     0.000000000000000 ] # b
  - [     2.632767746063585,    -3.824980458587466,    13.419576129809041 ] # c
  points:
  - symbol: Sn # 1
    coordinates: [  0.635593507176330,  0.467329576771481,  0.956945265838995 ]
    mass: 118.710000
    reduced_to: 1
  - symbol: Sn # 2
    coordinates: [  0.522639644564020,  0.353877939095009,  0.179347061149930 ]
    mass: 118.710000
    reduced_to: 2
  - symbol: Sn # 3
    coordinates: [  0.747976626691174,  0.082884152359025,  0.734748780707526 ]
    mass: 118.710000
    reduced_to: 3
  - symbol: Sn # 4
    coordinates: [  0.191536424745656,  0.025996144729796,  0.846365041145667 ]
    mass: 118.710000
    reduced_to: 4
  - symbol: Sn # 5
    coordinates: [  0.967844892646754,  0.797183659659908,  0.290543349379887 ]
    mass: 118.710000
    reduced_to: 5
  - symbol: Sn # 6
    coordinates: [  0.192277538067698,  0.525738984397973,  0.846115177008029 ]
    mass: 118.710000
    reduced_to: 6
  - symbol: Sn # 7
    coordinates: [  0.858988662266352,  0.188489344885716,  0.512239587658284 ]
    mass: 118.710000
    reduced_to: 7
  - symbol: Sn # 8
    coordinates: [  0.634646985851638,  0.967528459865649,  0.956817812049472 ]
    mass: 118.710000
    reduced_to: 8
  - symbol: Sn # 9
    coordinates: [  0.079142793874079,  0.408127771897952,  0.067796548524944 ]
    mass: 118.710000
    reduced_to: 9
  - symbol: Sn # 10
    coordinates: [  0.413563278897671,  0.242937504585395,  0.401916160240971 ]
    mass: 118.710000
    reduced_to: 10
  - symbol: Sn # 11
    coordinates: [  0.078314301627559,  0.908435707716750,  0.068502536803416 ]
    mass: 118.710000
    reduced_to: 11
  - symbol: Sn # 12
    coordinates: [  0.303428809440891,  0.635011068031856,  0.623633055630401 ]
    mass: 118.710000
    reduced_to: 12
  - symbol: Sn # 13
    coordinates: [  0.303956799994113,  0.135439444242751,  0.624037510062037 ]
    mass: 118.710000
    reduced_to: 13
  - symbol: Sn # 14
    coordinates: [  0.522256768638905,  0.853708339315155,  0.179369005966828 ]
    mass: 118.710000
    reduced_to: 14
  - symbol: Sn # 15
    coordinates: [  0.858190397661755,  0.688551025923139,  0.512540022362480 ]
    mass: 118.710000
    reduced_to: 15
  - symbol: Sn # 16
    coordinates: [  0.967041245603517,  0.295953217951889,  0.289490279158198 ]
    mass: 118.710000
    reduced_to: 16
  - symbol: Sn # 17
    coordinates: [  0.748627393943508,  0.583292835062577,  0.735301215173494 ]
    mass: 118.710000
    reduced_to: 17
  - symbol: Sn # 18
    coordinates: [  0.412225699482421,  0.742088714624349,  0.401380608758304 ]
    mass: 118.710000
    reduced_to: 18

supercell:
  lattice:
  - [    12.021856289583427,     0.000000000000000,     0.000000000000000 ] # a
  - [    -4.880192496367180,    12.526512422862014,     0.000000000000000 ] # b
  - [     2.632767746063585,    -3.824980458587466,    13.419576129809041 ] # c
  points:
  - symbol: Sn # 1
    coordinates: [  0.317796753588165,  0.233664788385741,  0.956945265838995 ]
    mass: 118.710000
    reduced_to: 1
  - symbol: Sn # 2
    coordinates: [  0.817796753588165,  0.233664788385741,  0.956945265838995 ]
    mass: 118.710000
    reduced_to: 1
  - symbol: Sn # 3
    coordinates: [  0.317796753588165,  0.733664788385741,  0.956945265838995 ]
    mass: 118.710000
    reduced_to: 1
  - symbol: Sn # 4
    coordinates: [  0.817796753588165,  0.733664788385741,  0.956945265838995 ]
    mass: 118.710000
    reduced_to: 1
  - symbol: Sn # 5
    coordinates: [  0.261319822282010,  0.176938969547504,  0.179347061149930 ]
    mass: 118.710000
    reduced_to: 5
  - symbol: Sn # 6
    coordinates: [  0.761319822282010,  0.176938969547504,  0.179347061149930 ]
    mass: 118.710000
    reduced_to: 5
  - symbol: Sn # 7
    coordinates: [  0.261319822282010,  0.676938969547504,  0.179347061149930 ]
    mass: 118.710000
    reduced_to: 5
  - symbol: Sn # 8
    coordinates: [  0.761319822282010,  0.676938969547504,  0.179347061149930 ]
    mass: 118.710000
    reduced_to: 5
  - symbol: Sn # 9
    coordinates: [  0.373988313345587,  0.041442076179513,  0.734748780707526 ]
    mass: 118.710000
    reduced_to: 9
  - symbol: Sn # 10
    coordinates: [  0.873988313345587,  0.041442076179513,  0.734748780707526 ]
    mass: 118.710000
    reduced_to: 9
  - symbol: Sn # 11
    coordinates: [  0.373988313345587,  0.541442076179513,  0.734748780707526 ]
    mass: 118.710000
    reduced_to: 9
  - symbol: Sn # 12
    coordinates: [  0.873988313345587,  0.541442076179513,  0.734748780707526 ]
    mass: 118.710000
    reduced_to: 9
  - symbol: Sn # 13
    coordinates: [  0.095768212372828,  0.012998072364898,  0.846365041145667 ]
    mass: 118.710000
    reduced_to: 13
  - symbol: Sn # 14
    coordinates: [  0.595768212372828,  0.012998072364898,  0.846365041145667 ]
    mass: 118.710000
    reduced_to: 13
  - symbol: Sn # 15
    coordinates: [  0.095768212372828,  0.512998072364898,  0.846365041145667 ]
    mass: 118.710000
    reduced_to: 13
  - symbol: Sn # 16
    coordinates: [  0.595768212372828,  0.512998072364898,  0.846365041145667 ]
    mass: 118.710000
    reduced_to: 13
  - symbol: Sn # 17
    coordinates: [  0.483922446323377,  0.398591829829954,  0.290543349379887 ]
    mass: 118.710000
    reduced_to: 17
  - symbol: Sn # 18
    coordinates: [  0.983922446323377,  0.398591829829954,  0.290543349379887 ]
    mass: 118.710000
    reduced_to: 17
  - symbol: Sn # 19
    coordinates: [  0.483922446323377,  0.898591829829954,  0.290543349379887 ]
    mass: 118.710000
    reduced_to: 17
  - symbol: Sn # 20
    coordinates: [  0.983922446323377,  0.898591829829954,  0.290543349379887 ]
    mass: 118.710000
    reduced_to: 17
  - symbol: Sn # 21
    coordinates: [  0.096138769033849,  0.262869492198987,  0.846115177008029 ]
    mass: 118.710000
    reduced_to: 21
  - symbol: Sn # 22
    coordinates: [  0.596138769033849,  0.262869492198987,  0.846115177008029 ]
    mass: 118.710000
    reduced_to: 21
  - symbol: Sn # 23
    coordinates: [  0.096138769033849,  0.762869492198987,  0.846115177008029 ]
    mass: 118.710000
    reduced_to: 21
  - symbol: Sn # 24
    coordinates: [  0.596138769033849,  0.762869492198987,  0.846115177008029 ]
    mass: 118.710000
    reduced_to: 21
  - symbol: Sn # 25
    coordinates: [  0.429494331133176,  0.094244672442858,  0.512239587658284 ]
    mass: 118.710000
    reduced_to: 25
  - symbol: Sn # 26
    coordinates: [  0.929494331133176,  0.094244672442858,  0.512239587658284 ]
    mass: 118.710000
    reduced_to: 25
  - symbol: Sn # 27
    coordinates: [  0.429494331133176,  0.594244672442858,  0.512239587658284 ]
    mass: 118.710000
    reduced_to: 25
  - symbol: Sn # 28
    coordinates: [  0.929494331133176,  0.594244672442858,  0.512239587658284 ]
    mass: 118.710000
    reduced_to: 25
  - symbol: Sn # 29
    coordinates: [  0.317323492925819,  0.483764229932824,  0.956817812049472 ]
    mass: 118.710000
    reduced_to: 29
  - symbol: Sn # 30
    coordinates: [  0.817323492925819,  0.483764229932824,  0.956817812049472 ]
    mass: 118.710000
    reduced_to: 29
  - symbol: Sn # 31
    coordinates: [  0.317323492925819,  0.983764229932824,  0.956817812049472 ]
    mass: 118.710000
    reduced_to: 29
  - symbol: Sn # 32
    coordinates: [  0.817323492925819,  0.983764229932824,  0.956817812049472 ]
    mass: 118.710000
    reduced_to: 29
  - symbol: Sn # 33
    coordinates: [  0.039571396937039,  0.204063885948976,  0.067796548524944 ]
    mass: 118.710000
    reduced_to: 33
  - symbol: Sn # 34
    coordinates: [  0.539571396937039,  0.204063885948976,  0.067796548524944 ]
    mass: 118.710000
    reduced_to: 33
  - symbol: Sn # 35
    coordinates: [  0.039571396937039,  0.704063885948976,  0.067796548524944 ]
    mass: 118.710000
    reduced_to: 33
  - symbol: Sn # 36
    coordinates: [  0.539571396937039,  0.704063885948976,  0.067796548524944 ]
    mass: 118.710000
    reduced_to: 33
  - symbol: Sn # 37
    coordinates: [  0.206781639448835,  0.121468752292697,  0.401916160240971 ]
    mass: 118.710000
    reduced_to: 37
  - symbol: Sn # 38
    coordinates: [  0.706781639448835,  0.121468752292697,  0.401916160240971 ]
    mass: 118.710000
    reduced_to: 37
  - symbol: Sn # 39
    coordinates: [  0.206781639448835,  0.621468752292697,  0.401916160240971 ]
    mass: 118.710000
    reduced_to: 37
  - symbol: Sn # 40
    coordinates: [  0.706781639448835,  0.621468752292697,  0.401916160240971 ]
    mass: 118.710000
    reduced_to: 37
  - symbol: Sn # 41
    coordinates: [  0.039157150813780,  0.454217853858375,  0.068502536803416 ]
    mass: 118.710000
    reduced_to: 41
  - symbol: Sn # 42
    coordinates: [  0.539157150813780,  0.454217853858375,  0.068502536803416 ]
    mass: 118.710000
    reduced_to: 41
  - symbol: Sn # 43
    coordinates: [  0.039157150813780,  0.954217853858375,  0.068502536803416 ]
    mass: 118.710000
    reduced_to: 41
  - symbol: Sn # 44
    coordinates: [  0.539157150813780,  0.954217853858375,  0.068502536803416 ]
    mass: 118.710000
    reduced_to: 41
  - symbol: Sn # 45
    coordinates: [  0.151714404720446,  0.317505534015928,  0.623633055630401 ]
    mass: 118.710000
    reduced_to: 45
  - symbol: Sn # 46
    coordinates: [  0.651714404720446,  0.317505534015928,  0.623633055630401 ]
    mass: 118.710000
    reduced_to: 45
  - symbol: Sn # 47
    coordinates: [  0.151714404720446,  0.817505534015928,  0.623633055630401 ]
    mass: 118.710000
    reduced_to: 45
  - symbol: Sn # 48
    coordinates: [  0.651714404720446,  0.817505534015928,  0.623633055630401 ]
    mass: 118.710000
    reduced_to: 45
  - symbol: Sn # 49
    coordinates: [  0.151978399997057,  0.067719722121375,  0.624037510062037 ]
    mass: 118.710000
    reduced_to: 49
  - symbol: Sn # 50
    coordinates: [  0.651978399997057,  0.067719722121375,  0.624037510062037 ]
    mass: 118.710000
    reduced_to: 49
  - symbol: Sn # 51
    coordinates: [  0.151978399997057,  0.567719722121375,  0.624037510062037 ]
    mass: 118.710000
    reduced_to: 49
  - symbol: Sn # 52
    coordinates: [  0.651978399997057,  0.567719722121375,  0.624037510062037 ]
    mass: 118.710000
    reduced_to: 49
  - symbol: Sn # 53
    coordinates: [  0.261128384319452,  0.426854169657577,  0.179369005966828 ]
    mass: 118.710000
    reduced_to: 53
  - symbol: Sn # 54
    coordinates: [  0.761128384319452,  0.426854169657577,  0.179369005966828 ]
    mass: 118.710000
    reduced_to: 53
  - symbol: Sn # 55
    coordinates: [  0.261128384319452,  0.926854169657577,  0.179369005966828 ]
    mass: 118.710000
    reduced_to: 53
  - symbol: Sn # 56
    coordinates: [  0.761128384319452,  0.926854169657577,  0.179369005966828 ]
    mass: 118.710000
    reduced_to: 53
  - symbol: Sn # 57
    coordinates: [  0.429095198830878,  0.344275512961569,  0.512540022362480 ]
    mass: 118.710000
    reduced_to: 57
  - symbol: Sn # 58
    coordinates: [  0.929095198830878,  0.344275512961569,  0.512540022362480 ]
    mass: 118.710000
    reduced_to: 57
  - symbol: Sn # 59
    coordinates: [  0.429095198830878,  0.844275512961569,  0.512540022362480 ]
    mass: 118.710000
    reduced_to: 57
  - symbol: Sn # 60
    coordinates: [  0.929095198830878,  0.844275512961569,  0.512540022362480 ]
    mass: 118.710000
    reduced_to: 57
  - symbol: Sn # 61
    coordinates: [  0.483520622801758,  0.147976608975944,  0.289490279158198 ]
    mass: 118.710000
    reduced_to: 61
  - symbol: Sn # 62
    coordinates: [  0.983520622801758,  0.147976608975944,  0.289490279158198 ]
    mass: 118.710000
    reduced_to: 61
  - symbol: Sn # 63
    coordinates: [  0.483520622801758,  0.647976608975944,  0.289490279158198 ]
    mass: 118.710000
    reduced_to: 61
  - symbol: Sn # 64
    coordinates: [  0.983520622801758,  0.647976608975944,  0.289490279158198 ]
    mass: 118.710000
    reduced_to: 61
  - symbol: Sn # 65
    coordinates: [  0.374313696971754,  0.291646417531289,  0.735301215173494 ]
    mass: 118.710000
    reduced_to: 65
  - symbol: Sn # 66
    coordinates: [  0.874313696971754,  0.291646417531289,  0.735301215173494 ]
    mass: 118.710000
    reduced_to: 65
  - symbol: Sn # 67
    coordinates: [  0.374313696971754,  0.791646417531289,  0.735301215173494 ]
    mass: 118.710000
    reduced_to: 65
  - symbol: Sn # 68
    coordinates: [  0.874313696971754,  0.791646417531289,  0.735301215173494 ]
    mass: 118.710000
    reduced_to: 65
  - symbol: Sn # 69
    coordinates: [  0.206112849741211,  0.371044357312175,  0.401380608758304 ]
    mass: 118.710000
    reduced_to: 69
  - symbol: Sn # 70
    coordinates: [  0.706112849741211,  0.371044357312175,  0.401380608758304 ]
    mass: 118.710000
    reduced_to: 69
  - symbol: Sn # 71
    coordinates: [  0.206112849741211,  0.871044357312175,  0.401380608758304 ]
    mass: 118.710000
    reduced_to: 69
  - symbol: Sn # 72
    coordinates: [  0.706112849741211,  0.871044357312175,  0.401380608758304 ]
    mass: 118.710000
    reduced_to: 69

displacements:
- atom:    1
  displacement:
    [   0.0100000000000000,  0.0000000000000000,  0.0000000000000000 ]
  forces:
  - [  -0.0103895086795092,  0.0000886642374098,  0.0012346853036433 ]
  - [   0.0007458369946107,  0.0018671525176615,  0.0010297209955752 ]
  - [  -0.0001466494286433,  0.0016732506919652,  0.0010284783784300 ]
  - [  -0.0002248320379294,  0.0018475595861673,  0.0010142459068447 ]
  - [   0.0029076193459332,  0.0007306170300581, -0.0019811496604234 ]
  - [   0.0038654059171677,  0.0006751844193786, -0.0024029077030718 ]
  - [   0.0036436619702727,  0.0005268733948469, -0.0024464235175401 ]
  - [   0.0036551114171743,  0.0007473785080947, -0.0022776187397540 ]
  - [  -0.0021888518240303, -0.0113707603886724,  0.0022078424226493 ]
  - [  -0.0019202464027330, -0.0109707517549396,  0.0027531404048204 ]
  - [  -0.0021583912894130, -0.0112013779580593,  0.0026635527610779 ]
  - [  -0.0022223435807973, -0.0111253764480352,  0.0025226268917322 ]
  - [   0.0018055203836411, -0.0047438144683838,  0.0019070911221206 ]
  - [   0.0009550896938890, -0.0065428707748652,  0.0007153090555221 ]
  - [   0.0014171374496073, -0.0067697861231863,  0.0007874763105065 ]
  - [   0.0011823954991996, -0.0060819629579782,  0.0005879854434170 ]
  - [   0.0001415819860995,  0.0025972281582654,  0.0007311112713069 ]
  - [   0.0004165596328676,  0.0024411748163402,  0.0001839015167207 ]
  - [   0.0002612243406475,  0.0025829728692770,  0.0004546863201540 ]
  - [   0.0002869138843380,  0.0025607529096305,  0.0004662077408284 ]
  - [  -0.0022153593599796, -0.0057120742276311, -0.0002030944742728 ]
  - [  -0.0005179084837437, -0.0047158719971776, -0.0024263348896056 ]
  - [  -0.0032331398688257, -0.0052665849216282, -0.0007919287309051 ]
  - [  -0.0031071552075446, -0.0053513767197728, -0.0007034945301712 ]
  - [  -0.0040969718247652,  0.0005094157531857,  0.0004005717346445 ]
  - [  -0.0041678277775645,  0.0004411062982399,  0.0004564379632939 ]
  - [  -0.0041280821897089,  0.0004477102775127,  0.0004652359057218 ]
  - [  -0.0041381544433534,  0.0004421479534358,  0.0004997005453333 ]
  - [   0.0017827847041190, -0.0024590694811195,  0.0036345124244690 ]
  - [   0.0019102660007775, -0.0007460527704097,  0.0039160568267107 ]
  - [   0.0017847982235253, -0.0025205854326487,  0.0036368039436638 ]
  - [   0.0019159580115229, -0.0007471313001588,  0.0039151953533292 ]
  - [   0.0022374112159014,  0.0081656835973263, -0.0007764053880237 ]
  - [   0.0006475753616542,  0.0071807708591223,  0.0014035728527233 ]
  - [  -0.0002640219172463,  0.0075483145192266,  0.0008907886804081 ]
  - [  -0.0003888185601681,  0.0076343780383468,  0.0007999502704479 ]
  - [  -0.0009552573319525,  0.0016988583374768, -0.0062649347819388 ]
  - [  -0.0009923796169460,  0.0017094672657549, -0.0062299035489559 ]
  - [  -0.0009412246290594,  0.0016972196754068, -0.0062871309928596 ]
  - [  -0.0009781830012798,  0.0016852833796293, -0.0062928413972259 ]
  - [   0.0029859449714422,  0.0082779414951801, -0.0041417768225074 ]
  - [   0.0036198562011123,  0.0102477315813303, -0.0028235318604857 ]
  - [   0.0029713492840528,  0.0088440701365471, -0.0041752299293876 ]
  - [   0.0032138773240149,  0.0081770243123174, -0.0039878031238914 ]
  - [  -0.0007127714343369, -0.0006482748431154,  0.0031116178724915 ]
  - [  -0.0008128460031003, -0.0003569659893401,  0.0025542881339788 ]
  - [  -0.0008649684023112, -0.0005227504880168,  0.0029678132850677 ]
  - [  -0.0008209590450861, -0.0004861899651587,  0.0028766016475856 ]
  - [  -0.0013044772204012, -0.0015626408858225, -0.0000412515364587 ]
  - [  -0.0010020473273471, -0.0017149867489934, -0.0005340304924175 ]
  - [  -0.0011585776228458, -0.0015709204599261, -0.0002627323847264 ]
  - [  -0.0011329285334796, -0.0015924747567624, -0.0002505125012249 ]
  - [   0.0007435001898557,  0.0001300338190049, -0.0055074468255043 ]
  - [   0.0010152045870200,  0.0005262669292279, -0.0049829911440611 ]
  - [   0.0007743404712528,  0.0002942042192444, -0.0050753979012370 ]
  - [   0.0007122964598238,  0.0003673851024359, -0.0052139759063721 ]
  - [   0.0011330056004226,  0.0024329619482160,  0.0030775007326156 ]
  - [   0.0010950296418741,  0.0024455313105136,  0.0031089480035007 ]
  - [   0.0011462206020951,  0.0024320399388671,  0.0030522020533681 ]
  - [   0.0011092992499471,  0.0024193194694817,  0.0030461989808828 ]
  - [   0.0034587064292282,  0.0063916123472154,  0.0076749492436647 ]
  - [   0.0033638114109635,  0.0066855088807642,  0.0071181952953339 ]
  - [   0.0033076102845371,  0.0065223416313529,  0.0075349491089582 ]
  - [   0.0033532581292093,  0.0065569006837904,  0.0074395732954144 ]
  - [  -0.0047502098605037, -0.0102505926042795, -0.0022248092573136 ]
  - [  -0.0037773542571813, -0.0102953333407640, -0.0026639366988093 ]
  - [  -0.0040039764717221, -0.0104476697742939, -0.0027005365118384 ]
  - [  -0.0039939098060131, -0.0102242734283209, -0.0025274520739913 ]
  - [   0.0020721168257296,  0.0039859618991613, -0.0019722734577954 ]
  - [   0.0020012771710753,  0.0039172559045255, -0.0019176208879799 ]
  - [   0.0020403061062098,  0.0039249584078789, -0.0019084319937974 ]
  - [   0.0020304555073380,  0.0039203008636832, -0.0018738103099167 ]
- atom:    1
  displacement:
    [  -0.0100000000000000,  0.0000000000000000,  0.0000000000000000 ]
  forces:
  - [   0.0098890364170074,  0.0036670500412583,  0.0008051192853600 ]
  - [  -0.0012490947265178,  0.0018866669852287,  0.0010100249201059 ]
  - [  -0.0003559342294466,  0.0020818801131099,  0.0010100610088557 ]
  - [  -0.0002755740133580,  0.0019064693478867,  0.0010236063972116 ]
  - [   0.0041539939120412,  0.0005635697743855, -0.0027127938810736 ]
  - [   0.0031912359409034,  0.0006143692880869, -0.0022881859913468 ]
  - [   0.0034179149661213,  0.0007640949916095, -0.0022474690340459 ]
  - [   0.0034093558788300,  0.0005457815714180, -0.0024145753122866 ]
  - [  -0.0022057136520743, -0.0109060117974877,  0.0028405822813511 ]
  - [  -0.0024753632023931, -0.0113030904904008,  0.0023010419681668 ]
  - [  -0.0022333681117743, -0.0110714258626103,  0.0023919499944896 ]
  - [  -0.0021736663766205, -0.0111471004784107,  0.0025327601470053 ]
  - [   0.0005584135651588, -0.0082534821704030, -0.0004532504826784 ]
  - [   0.0012901892187074, -0.0063283652998507,  0.0008204953046516 ]
  - [   0.0009646371472627, -0.0061770025640726,  0.0006977443117648 ]
  - [   0.0012033854145557, -0.0068618576042354,  0.0008953142678365 ]
  - [   0.0003799232654274,  0.0025375355035067,  0.0001539448276162 ]
  - [   0.0001234167721123,  0.0027033947408199,  0.0007408382371068 ]
  - [   0.0002784237149172,  0.0025592551100999,  0.0004700376593973 ]
  - [   0.0002533369406592,  0.0025819714646786,  0.0004569063021336 ]
  - [  -0.0039675170555711, -0.0050465515814722, -0.0012611799174920 ]
  - [  -0.0054969778284431, -0.0060263243503869,  0.0009220300707966 ]
  - [  -0.0028950967825949, -0.0055089788511395, -0.0006404398009181 ]
  - [  -0.0030190818943083, -0.0054257372394204, -0.0007297457195818 ]
  - [  -0.0041617914102972,  0.0003768816241063,  0.0005633119726554 ]
  - [  -0.0040916251018643,  0.0004439942713361,  0.0005075039225630 ]
  - [  -0.0041305152699351,  0.0004362615291029,  0.0004968009889126 ]
  - [  -0.0041202763095498,  0.0004402115009725,  0.0004627162124962 ]
  - [   0.0013931442517787,  0.0003566693048924,  0.0040568565018475 ]
  - [   0.0012659823987633, -0.0013797157444060,  0.0037738864775747 ]
  - [   0.0013927633408457,  0.0003689071163535,  0.0040532629936934 ]
  - [   0.0012595041189343, -0.0013793588150293,  0.0037747388705611 ]
  - [  -0.0027897241525352,  0.0068231737241149,  0.0026014931499958 ]
  - [  -0.0010326169431210,  0.0078256651759148,  0.0003808058099821 ]
  - [  -0.0001755128469085,  0.0074765221215785,  0.0008639972656965 ]
  - [  -0.0000526855947101,  0.0073892795480788,  0.0009530550451018 ]
  - [  -0.0009938101284206,  0.0017204338219017, -0.0062373913824558 ]
  - [  -0.0009574755094945,  0.0017096224473789, -0.0062720323912799 ]
  - [  -0.0010063115041703,  0.0017221553716809, -0.0062140477821231 ]
  - [  -0.0009695594199002,  0.0017353137955070, -0.0062070190906525 ]
  - [   0.0031364054884762,  0.0085933450609446, -0.0039733694866300 ]
  - [   0.0023836144246161,  0.0067483372986317, -0.0052091809920967 ]
  - [   0.0030111921951175,  0.0080988528206944, -0.0038883821107447 ]
  - [   0.0027703335508704,  0.0087698940187693, -0.0040772478096187 ]
  - [  -0.0008167725754902, -0.0003727009461727,  0.0025835377164185 ]
  - [  -0.0007183597772382, -0.0006634463206865,  0.0031419324222952 ]
  - [  -0.0006669544964097, -0.0005017161020078,  0.0027292533777654 ]
  - [  -0.0007116021588445, -0.0005383966490626,  0.0028207488358021 ]
  - [  -0.0009791608899832, -0.0015946791972965, -0.0004324815236032 ]
  - [  -0.0012969447998330, -0.0014487608568743,  0.0000222725793719 ]
  - [  -0.0011415386106819, -0.0015936717391014, -0.0002478458918631 ]
  - [  -0.0011679476592690, -0.0015732066240162, -0.0002595095429569 ]
  - [   0.0007290609646589,  0.0005880568642169, -0.0049048494547606 ]
  - [   0.0004588666779455,  0.0001906972029246, -0.0054350411519408 ]
  - [   0.0006984887295403,  0.0004211802734062, -0.0053439736366272 ]
  - [   0.0007599734235555,  0.0003476201090962, -0.0052050175145268 ]
  - [   0.0010949767893180,  0.0024559462908655,  0.0031012801919132 ]
  - [   0.0011313076829538,  0.0024448442272842,  0.0030692238360643 ]
  - [   0.0010801380267367,  0.0024585130158812,  0.0031253560446203 ]
  - [   0.0011174855753779,  0.0024711554870009,  0.0031302992720157 ]
  - [   0.0033576600253582,  0.0066699301823974,  0.0071495855227113 ]
  - [   0.0034539778716862,  0.0063763014040887,  0.0077064433135092 ]
  - [   0.0035092947073281,  0.0065394099801779,  0.0072877537459135 ]
  - [   0.0034645092673600,  0.0065048895776272,  0.0073833838105202 ]
  - [  -0.0034879981540143, -0.0104088746011257, -0.0029752696864307 ]
  - [  -0.0044567016884685, -0.0103618530556560, -0.0025411716196686 ]
  - [  -0.0042339721694589, -0.0102105662226677, -0.0025002532638609 ]
  - [  -0.0042475280351937, -0.0104381358250976, -0.0026757996529341 ]
  - [   0.0020072753541172,  0.0038520041853189, -0.0018122013425454 ]
  - [   0.0020778251346201,  0.0039209700189531, -0.0018653648439795 ]
  - [   0.0020391172729433,  0.0039135874249041, -0.0018761082319543 ]
  - [   0.0020486149005592,  0.0039183460175991, -0.0019107586704195 ]
- atom:    1
  displacement:
    [  -0.0036301291650395,  0.0093178410721116,  0.0000000000000000 ]
  forces:
  - [   0.0017628683708608, -0.0096005462110043,  0.0018558746669441 ]
  - [  -0.0006228499114513,  0.0018813954666257,  0.0011732156854123 ]
  - [  -0.0004796190187335,  0.0024208358954638,  0.0010225137230009 ]
  - [  -0.0002867841685656,  0.0018816149095073,  0.0010266283061355 ]
  - [   0.0038315844722092,  0.0008890619501472, -0.0038721435703337 ]
  - [   0.0034405365586281,  0.0006832169601694, -0.0023660378064960 ]
  - [   0.0033809021115303,  0.0009244726970792, -0.0020542156416923 ]
  - [   0.0035803643986583,  0.0007519983337261, -0.0022791433148086 ]
  - [  -0.0024176992010325, -0.0110191376879811,  0.0031739408150315 ]
  - [  -0.0021433555521071, -0.0112933199852705,  0.0024875211529434 ]
  - [  -0.0022682305425406, -0.0108167156577110,  0.0021717452909797 ]
  - [  -0.0021805681753904, -0.0111644612625241,  0.0025348360650241 ]
  - [   0.0025828822981566, -0.0057625435292721,  0.0014349662233144 ]
  - [   0.0010947855189443, -0.0066363047808409,  0.0008218607399613 ]
  - [   0.0008318717591465, -0.0062648151069880,  0.0005965633317828 ]
  - [   0.0015621560160071, -0.0059174434281886,  0.0004716897383332 ]
  - [   0.0003440463915467,  0.0023119067773223,  0.0004723474849015 ]
  - [   0.0000925296917558,  0.0025834445841610,  0.0005561297293752 ]
  - [   0.0002850864548236,  0.0025116091128439,  0.0004628286405932 ]
  - [   0.0002534514933359,  0.0025732482317835,  0.0004763163742609 ]
  - [  -0.0036893133074045, -0.0054144999012351, -0.0009725388372317 ]
  - [  -0.0033587841317058, -0.0057706665247679, -0.0004961804952472 ]
  - [  -0.0028915842995048, -0.0049809403717518, -0.0005374655593187 ]
  - [  -0.0030113286338747, -0.0054555786773562, -0.0007325562182814 ]
  - [  -0.0040786331519485,  0.0002972176298499,  0.0005435519851744 ]
  - [  -0.0041181128472090,  0.0004528995777946,  0.0004933577147312 ]
  - [  -0.0041250959038734,  0.0004238781984895,  0.0004586779978126 ]
  - [  -0.0041248854249716,  0.0004248893819749,  0.0004604940768331 ]
  - [   0.0001754452096066,  0.0022453453857452,  0.0038929493166506 ]
  - [   0.0017627819906920, -0.0010512366425246,  0.0037307604216039 ]
  - [   0.0002034037606791,  0.0022115530446172,  0.0038837287575006 ]
  - [   0.0017653726972640, -0.0010491342982277,  0.0037310163024813 ]
  - [  -0.0005149064818397,  0.0071241767145693,  0.0010926962131634 ]
  - [  -0.0008073142962530,  0.0074890605174005,  0.0006384359439835 ]
  - [  -0.0001713244128041,  0.0074419747106731,  0.0008626398048364 ]
  - [  -0.0000479984737467,  0.0079110041260719,  0.0010529875289649 ]
  - [  -0.0009924042969942,  0.0017759000184014, -0.0063321804627776 ]
  - [  -0.0009688332211226,  0.0017075996147469, -0.0062409667298198 ]
  - [  -0.0009962518233806,  0.0017530631739646, -0.0062140701338649 ]
  - [  -0.0009953880216926,  0.0017128121107817, -0.0062518697232008 ]
  - [   0.0029277082066983,  0.0082966294139624, -0.0039668632671237 ]
  - [   0.0044160177931190,  0.0091986097395420, -0.0033128643408418 ]
  - [   0.0033369711600244,  0.0089700520038605, -0.0042831571772695 ]
  - [   0.0026388461701572,  0.0086842430755496, -0.0041767107322812 ]