phonopy:
  version: "2.37.1"
  frequency_unit_conversion_factor: 15.633302
  symmetry_tolerance: 1.00000e-05

space_group:
  type: "F-43m"
  number: 216
  Hall_symbol: "F -4 2 3"

primitive_matrix:
- [  0.000000000000000,  0.500000000000000,  0.500000000000000 ]
- [  0.500000000000000, -0.000000000000000,  0.500000000000000 ]
- [  0.500000000000000,  0.500000000000000,  0.000000000000000 ]

supercell_matrix:
- [   2,   0,   0 ]
- [   0,   2,   0 ]
- [   0,   0,   2 ]

primitive_cell:
  lattice:
  - [    -0.000000228308280,     3.202088915182227,     3.202089010057692 ] # a
  - [     3.202088852052171,    -0.000000106142407,     3.202089010057692 ] # b
  - [     3.202088964979862,     3.202089021324634,     0.000000000000000 ] # c
  points:
  - symbol: Li # 1
    coordinates: [  0.750000000367113,  0.749999999802822,  0.749999998077476 ]
    mass: 6.940000
  - symbol: Ga # 2
    coordinates: [  0.000000001327342,  0.999999999914902,  0.000000004507588 ]
    mass: 69.723000
  - symbol: Sn # 3
    coordinates: [  0.249999998583186,  0.249999996419312,  0.249999999043983 ]
    mass: 118.710000
  reciprocal_lattice: # without 2pi
  - [    -0.156148063486086,     0.156148060738465,     0.156148060957011 ] # a*
  - [     0.156148063486086,    -0.156148060738465,     0.156148067245241 ] # b*
  - [     0.156148063486086,     0.156148066364935,    -0.156148050605062 ] # c*

unit_cell:
  lattice:
  - [     6.404178045340314,     0.000000000000000,     0.000000000000000 ] # a
  - [    -0.000000115380589,     6.404178042649267,     0.000000000000000 ] # b
  - [    -0.000000341235971,    -0.000000212284814,     6.404178020115384 ] # c
  points:
  - symbol: Li # 1
    coordinates: [  0.249999998940149,  0.249999999222295,  0.750000000084968 ]
    mass: 6.940000
    reduced_to: 1
  - symbol: Li # 2
    coordinates: [  0.250000000254933,  0.749999998939090,  0.249999999199248 ]
    mass: 6.940000
    reduced_to: 1
  - symbol: Li # 3
    coordinates: [  0.750000000940553,  0.749999999915033,  0.749999999332175 ]
    mass: 6.940000
    reduced_to: 1
  - symbol: Li # 4
    coordinates: [  0.749999999353463,  0.249999999998511,  0.249999999852089 ]
    mass: 6.940000
    reduced_to: 1
  - symbol: Ga # 5
    coordinates: [  0.000000002211245,  0.000000002917465,  0.000000000621122 ]
    mass: 69.723000
    reduced_to: 5
  - symbol: Ga # 6
    coordinates: [  0.500000000522395,  0.499999999824992,  0.000000002441610 ]
    mass: 69.723000
    reduced_to: 5
  - symbol: Ga # 7
    coordinates: [  0.500000001908132,  0.000000002283085,  0.499999999761666 ]
    mass: 69.723000
    reduced_to: 5
  - symbol: Ga # 8
    coordinates: [  0.000000001271515,  0.500000000970956,  0.499999998627028 ]
    mass: 69.723000
    reduced_to: 5
  - symbol: Sn # 9
    coordinates: [  0.249999997731648,  0.249999998813584,  0.249999997501249 ]
    mass: 118.710000
    reduced_to: 9
  - symbol: Sn # 10
    coordinates: [  0.249999996414591,  0.750000002247108,  0.750000001555191 ]
    mass: 118.710000
    reduced_to: 9
  - symbol: Sn # 11
    coordinates: [  0.749999999813439,  0.749999998039458,  0.250000000277213 ]
    mass: 118.710000
    reduced_to: 9
  - symbol: Sn # 12
    coordinates: [  0.750000000666496,  0.249999996785365,  0.750000000742163 ]
    mass: 118.710000
    reduced_to: 9

supercell:
  lattice:
  - [    12.808356090680627,     0.000000000000000,     0.000000000000000 ] # a
  - [    -0.000000230761179,    12.808356085298534,     0.000000000000000 ] # b
  - [    -0.000000682471943,    -0.000000424569627,    12.808356040230768 ] # c
  points:
  - symbol: Li # 1
    coordinates: [  0.124999999470074,  0.124999999611147,  0.375000000042484 ]
    mass: 6.940000
    reduced_to: 1
  - symbol: Li # 2
    coordinates: [  0.624999999470074,  0.124999999611147,  0.375000000042484 ]
    mass: 6.940000
    reduced_to: 1
  - symbol: Li # 3
    coordinates: [  0.124999999470074,  0.624999999611147,  0.375000000042484 ]
    mass: 6.940000
    reduced_to: 1
  - symbol: Li # 4
    coordinates: [  0.624999999470074,  0.624999999611147,  0.375000000042484 ]
    mass: 6.940000
    reduced_to: 1
  - symbol: Li # 5
    coordinates: [  0.124999999470074,  0.124999999611147,  0.875000000042484 ]
    mass: 6.940000
    reduced_to: 1
  - symbol: Li # 6
    coordinates: [  0.624999999470074,  0.124999999611147,  0.875000000042484 ]
    mass: 6.940000
    reduced_to: 1
  - symbol: Li # 7
    coordinates: [  0.124999999470074,  0.624999999611147,  0.875000000042484 ]
    mass: 6.940000
    reduced_to: 1
  - symbol: Li # 8
    coordinates: [  0.624999999470074,  0.624999999611147,  0.875000000042484 ]
    mass: 6.940000
    reduced_to: 1
  - symbol: Li # 9
    coordinates: [  0.125000000127466,  0.374999999469545,  0.124999999599624 ]
    mass: 6.940000
    reduced_to: 1
  - symbol: Li # 10
    coordinates: [  0.625000000127466,  0.374999999469545,  0.124999999599624 ]
    mass: 6.940000
    reduced_to: 1
  - symbol: Li # 11
    coordinates: [  0.125000000127466,  0.874999999469545,  0.124999999599624 ]
    mass: 6.940000
    reduced_to: 1
  - symbol: Li # 12
    coordinates: [  0.625000000127466,  0.874999999469545,  0.124999999599624 ]
    mass: 6.940000
    reduced_to: 1
  - symbol: Li # 13
    coordinates: [  0.125000000127466,  0.374999999469545,  0.624999999599624 ]
    mass: 6.940000
    reduced_to: 1
  - symbol: Li # 14
    coordinates: [  0.625000000127466,  0.374999999469545,  0.624999999599624 ]
    mass: 6.940000
    reduced_to: 1
  - symbol: Li # 15
    coordinates: [  0.125000000127466,  0.874999999469545,  0.624999999599624 ]
    mass: 6.940000
    reduced_to: 1
  - symbol: Li # 16
    coordinates: [  0.625000000127466,  0.874999999469545,  0.624999999599624 ]
    mass: 6.940000
    reduced_to: 1
  - symbol: Li # 17
    coordinates: [  0.375000000470277,  0.374999999957517,  0.374999999666087 ]
    mass: 6.940000
    reduced_to: 1
  - symbol: Li # 18
    coordinates: [  0.875000000470276,  0.374999999957517,  0.374999999666087 ]
    mass: 6.940000
    reduced_to: 1
  - symbol: Li # 19
    coordinates: [  0.375000000470277,  0.874999999957517,  0.374999999666087 ]
    mass: 6.940000
    reduced_to: 1
  - symbol: Li # 20
    coordinates: [  0.875000000470276,  0.874999999957517,  0.374999999666087 ]
    mass: 6.940000
    reduced_to: 1
  - symbol: Li # 21
    coordinates: [  0.375000000470277,  0.374999999957517,  0.874999999666087 ]
    mass: 6.940000
    reduced_to: 1
  - symbol: Li # 22
    coordinates: [  0.875000000470276,  0.374999999957517,  0.874999999666087 ]
    mass: 6.940000
    reduced_to: 1
  - symbol: Li # 23
    coordinates: [  0.375000000470277,  0.874999999957517,  0.874999999666087 ]
    mass: 6.940000
    reduced_to: 1
  - symbol: Li # 24
    coordinates: [  0.875000000470276,  0.874999999957517,  0.874999999666087 ]
    mass: 6.940000
    reduced_to: 1
  - symbol: Li # 25
    coordinates: [  0.374999999676731,  0.124999999999256,  0.124999999926045 ]
    mass: 6.940000
    reduced_to: 1
  - symbol: Li # 26
    coordinates: [  0.874999999676731,  0.124999999999256,  0.124999999926045 ]
    mass: 6.940000
    reduced_to: 1
  - symbol: Li # 27
    coordinates: [  0.374999999676731,  0.624999999999256,  0.124999999926045 ]
    mass: 6.940000
    reduced_to: 1
  - symbol: Li # 28
    coordinates: [  0.874999999676731,  0.624999999999256,  0.124999999926045 ]
    mass: 6.940000
    reduced_to: 1
  - symbol: Li # 29
    coordinates: [  0.374999999676731,  0.124999999999256,  0.624999999926045 ]
    mass: 6.940000
    reduced_to: 1
  - symbol: Li # 30
    coordinates: [  0.874999999676731,  0.124999999999256,  0.624999999926045 ]
    mass: 6.940000
    reduced_to: 1
  - symbol: Li # 31
    coordinates: [  0.374999999676731,  0.624999999999256,  0.624999999926045 ]
    mass: 6.940000
    reduced_to: 1
  - symbol: Li # 32
    coordinates: [  0.874999999676731,  0.624999999999256,  0.624999999926045 ]
    mass: 6.940000
    reduced_to: 1
  - symbol: Ga # 33
    coordinates: [  0.000000001105622,  0.000000001458733,  0.000000000310561 ]
    mass: 69.723000
    reduced_to: 33
  - symbol: Ga # 34
    coordinates: [  0.500000001105622,  0.000000001458733,  0.000000000310561 ]
    mass: 69.723000
    reduced_to: 33
  - symbol: Ga # 35
    coordinates: [  0.000000001105622,  0.500000001458733,  0.000000000310561 ]
    mass: 69.723000
    reduced_to: 33
  - symbol: Ga # 36
    coordinates: [  0.500000001105622,  0.500000001458733,  0.000000000310561 ]
    mass: 69.723000
    reduced_to: 33
  - symbol: Ga # 37
    coordinates: [  0.000000001105622,  0.000000001458733,  0.500000000310561 ]
    mass: 69.723000
    reduced_to: 33
  - symbol: Ga # 38
    coordinates: [  0.500000001105622,  0.000000001458733,  0.500000000310561 ]
    mass: 69.723000
    reduced_to: 33
  - symbol: Ga # 39
    coordinates: [  0.000000001105622,  0.500000001458733,  0.500000000310561 ]
    mass: 69.723000
    reduced_to: 33
  - symbol: Ga # 40
    coordinates: [  0.500000001105622,  0.500000001458733,  0.500000000310561 ]
    mass: 69.723000
    reduced_to: 33
  - symbol: Ga # 41
    coordinates: [  0.250000000261197,  0.249999999912496,  0.000000001220805 ]
    mass: 69.723000
    reduced_to: 33
  - symbol: Ga # 42
    coordinates: [  0.750000000261198,  0.249999999912496,  0.000000001220805 ]
    mass: 69.723000
    reduced_to: 33
  - symbol: Ga # 43
    coordinates: [  0.250000000261197,  0.749999999912496,  0.000000001220805 ]
    mass: 69.723000
    reduced_to: 33
  - symbol: Ga # 44
    coordinates: [  0.750000000261198,  0.749999999912496,  0.000000001220805 ]
    mass: 69.723000
    reduced_to: 33
  - symbol: Ga # 45
    coordinates: [  0.250000000261197,  0.249999999912496,  0.500000001220805 ]
    mass: 69.723000
    reduced_to: 33
  - symbol: Ga # 46
    coordinates: [  0.750000000261198,  0.249999999912496,  0.500000001220805 ]
    mass: 69.723000
    reduced_to: 33
  - symbol: Ga # 47
    coordinates: [  0.250000000261197,  0.749999999912496,  0.500000001220805 ]
    mass: 69.723000
    reduced_to: 33
  - symbol: Ga # 48
    coordinates: [  0.750000000261198,  0.749999999912496,  0.500000001220805 ]
    mass: 69.723000
    reduced_to: 33
  - symbol: Ga # 49
    coordinates: [  0.250000000954066,  0.000000001141543,  0.249999999880833 ]
    mass: 69.723000
    reduced_to: 33
  - symbol: Ga # 50
    coordinates: [  0.750000000954066,  0.000000001141543,  0.249999999880833 ]
    mass: 69.723000
    reduced_to: 33
  - symbol: Ga # 51
    coordinates: [  0.250000000954066,  0.500000001141543,  0.249999999880833 ]
    mass: 69.723000
    reduced_to: 33
  - symbol: Ga # 52
    coordinates: [  0.750000000954066,  0.500000001141543,  0.249999999880833 ]
    mass: 69.723000
    reduced_to: 33
  - symbol: Ga # 53
    coordinates: [  0.250000000954066,  0.000000001141543,  0.749999999880833 ]
    mass: 69.723000
    reduced_to: 33
  - symbol: Ga # 54
    coordinates: [  0.750000000954066,  0.000000001141543,  0.749999999880833 ]
    mass: 69.723000
    reduced_to: 33
  - symbol: Ga # 55
    coordinates: [  0.250000000954066,  0.500000001141543,  0.749999999880833 ]
    mass: 69.723000
    reduced_to: 33
  - symbol: Ga # 56
    coordinates: [  0.750000000954066,  0.500000001141543,  0.749999999880833 ]
    mass: 69.723000
    reduced_to: 33
  - symbol: Ga # 57
    coordinates: [  0.000000000635757,  0.250000000485478,  0.249999999313514 ]
    mass: 69.723000
    reduced_to: 33
  - symbol: Ga # 58
    coordinates: [  0.500000000635757,  0.250000000485478,  0.249999999313514 ]
    mass: 69.723000
    reduced_to: 33
  - symbol: Ga # 59
    coordinates: [  0.000000000635757,  0.750000000485478,  0.249999999313514 ]
    mass: 69.723000
    reduced_to: 33
  - symbol: Ga # 60
    coordinates: [  0.500000000635757,  0.750000000485478,  0.249999999313514 ]
    mass: 69.723000
    reduced_to: 33
  - symbol: Ga # 61
    coordinates: [  0.000000000635757,  0.250000000485478,  0.749999999313514 ]
    mass: 69.723000
    reduced_to: 33
  - symbol: Ga # 62
    coordinates: [  0.500000000635757,  0.250000000485478,  0.749999999313514 ]
    mass: 69.723000
    reduced_to: 33
  - symbol: Ga # 63
    coordinates: [  0.000000000635757,  0.750000000485478,  0.749999999313514 ]
    mass: 69.723000
    reduced_to: 33
  - symbol: Ga # 64
    coordinates: [  0.500000000635757,  0.750000000485478,  0.749999999313514 ]
    mass: 69.723000
    reduced_to: 33
  - symbol: Sn # 65
    coordinates: [  0.124999998865824,  0.124999999406792,  0.124999998750625 ]
    mass: 118.710000
    reduced_to: 65
  - symbol: Sn # 66
    coordinates: [  0.624999998865824,  0.124999999406792,  0.124999998750625 ]
    mass: 118.710000
    reduced_to: 65
  - symbol: Sn # 67
    coordinates: [  0.124999998865824,  0.624999999406792,  0.124999998750625 ]
    mass: 118.710000
    reduced_to: 65
  - symbol: Sn # 68
    coordinates: [  0.624999998865824,  0.624999999406792,  0.124999998750625 ]
    mass: 118.710000
    reduced_to: 65
  - symbol: Sn # 69
    coordinates: [  0.124999998865824,  0.124999999406792,  0.624999998750625 ]
    mass: 118.710000
    reduced_to: 65
  - symbol: Sn # 70
    coordinates: [  0.624999998865824,  0.124999999406792,  0.624999998750625 ]
    mass: 118.710000
    reduced_to: 65
  - symbol: Sn # 71
    coordinates: [  0.124999998865824,  0.624999999406792,  0.624999998750625 ]
    mass: 118.710000
    reduced_to: 65
  - symbol: Sn # 72
    coordinates: [  0.624999998865824,  0.624999999406792,  0.624999998750625 ]
    mass: 118.710000
    reduced_to: 65
  - symbol: Sn # 73
    coordinates: [  0.124999998207295,  0.375000001123554,  0.375000000777595 ]
    mass: 118.710000
    reduced_to: 65
  - symbol: Sn # 74
    coordinates: [  0.624999998207295,  0.375000001123554,  0.375000000777595 ]
    mass: 118.710000
    reduced_to: 65
  - symbol: Sn # 75
    coordinates: [  0.124999998207295,  0.875000001123554,  0.375000000777595 ]
    mass: 118.710000
    reduced_to: 65
  - symbol: Sn # 76
    coordinates: [  0.624999998207295,  0.875000001123554,  0.375000000777595 ]
    mass: 118.710000
    reduced_to: 65
  - symbol: Sn # 77
    coordinates: [  0.124999998207295,  0.375000001123554,  0.875000000777596 ]
    mass: 118.710000
    reduced_to: 65
  - symbol: Sn # 78
    coordinates: [  0.624999998207295,  0.375000001123554,  0.875000000777596 ]
    mass: 118.710000
    reduced_to: 65
  - symbol: Sn # 79
    coordinates: [  0.124999998207295,  0.875000001123554,  0.875000000777596 ]
    mass: 118.710000
    reduced_to: 65
  - symbol: Sn # 80
    coordinates: [  0.624999998207295,  0.875000001123554,  0.875000000777596 ]
    mass: 118.710000
    reduced_to: 65
  - symbol: Sn # 81
    coordinates: [  0.374999999906720,  0.374999999019729,  0.125000000138606 ]
    mass: 118.710000
    reduced_to: 65
  - symbol: Sn # 82
    coordinates: [  0.874999999906720,  0.374999999019729,  0.125000000138606 ]
    mass: 118.710000
    reduced_to: 65
  - symbol: Sn # 83
    coordinates: [  0.374999999906720,  0.874999999019729,  0.125000000138606 ]
    mass: 118.710000
    reduced_to: 65
  - symbol: Sn # 84
    coordinates: [  0.874999999906720,  0.874999999019729,  0.125000000138606 ]
    mass: 118.710000
    reduced_to: 65
  - symbol: Sn # 85
    coordinates: [  0.374999999906720,  0.374999999019729,  0.625000000138606 ]
    mass: 118.710000
    reduced_to: 65
  - symbol: Sn # 86
    coordinates: [  0.874999999906720,  0.374999999019729,  0.625000000138606 ]
    mass: 118.710000
    reduced_to: 65
  - symbol: Sn # 87
    coordinates: [  0.374999999906720,  0.874999999019729,  0.625000000138606 ]
    mass: 118.710000
    reduced_to: 65
  - symbol: Sn # 88
    coordinates: [  0.874999999906720,  0.874999999019729,  0.625000000138606 ]
    mass: 118.710000
    reduced_to: 65
  - symbol: Sn # 89
    coordinates: [  0.375000000333248,  0.124999998392682,  0.375000000371082 ]
    mass: 118.710000
    reduced_to: 65
  - symbol: Sn # 90
    coordinates: [  0.875000000333248,  0.124999998392682,  0.375000000371082 ]
    mass: 118.710000
    reduced_to: 65
  - symbol: Sn # 91
    coordinates: [  0.375000000333248,  0.624999998392682,  0.375000000371082 ]
    mass: 118.710000
    reduced_to: 65
  - symbol: Sn # 92
    coordinates: [  0.875000000333248,  0.624999998392682,  0.375000000371082 ]
    mass: 118.710000
    reduced_to: 65
  - symbol: Sn # 93
    coordinates: [  0.375000000333248,  0.124999998392682,  0.875000000371082 ]
    mass: 118.710000
    reduced_to: 65
  - symbol: Sn # 94
    coordinates: [  0.875000000333248,  0.124999998392682,  0.875000000371082 ]
    mass: 118.710000
    reduced_to: 65
  - symbol: Sn # 95
    coordinates: [  0.375000000333248,  0.624999998392682,  0.875000000371082 ]
    mass: 118.710000
    reduced_to: 65
  - symbol: Sn # 96
    coordinates: [  0.875000000333248,  0.624999998392682,  0.875000000371082 ]
    mass: 118.710000
    reduced_to: 65

displacements:
- atom:    1
  displacement:
    [   0.0100000000000000,  0.0000000000000000,  0.0000000000000000 ]
  forces:
  - [  -0.0164274610579014, -0.0000000817826731, -0.0000002824235708 ]
  - [   0.0009748563170433,  0.0000002880115062,  0.0000005317888281 ]
  - [   0.0001389915123582,  0.0000001215375960,  0.0000002910237527 ]
  - [   0.0000042608007789,  0.0000005529727787,  0.0000000478321454 ]
  - [   0.0001394450664520, -0.0000005951151252,  0.0000004871399142 ]
  - [   0.0000038444995880, -0.0000005250331014, -0.0000001597800292 ]
  - [   0.0000326391309500,  0.0000000030267984, -0.0000000140717020 ]
  - [   0.0000007720664144, -0.0000003205204848,  0.0000001906155376 ]
  - [   0.0001323757460341, -0.0001434788573533,  0.0001433004799765 ]
  - [   0.0000377455726266,  0.0000112214838737, -0.0000115572256618 ]
  - [   0.0001371116377413, -0.0001373207051074, -0.0001372289843857 ]
  - [   0.0000368971377611,  0.0000103880738607,  0.0000109824468382 ]
  - [   0.0001367650693282,  0.0001369095989503,  0.0001375742431264 ]
  - [   0.0000363280996680, -0.0000110441224024, -0.0000102907215478 ]
  - [   0.0001313961111009,  0.0001434441073798, -0.0001436094753444 ]
  - [   0.0000372445210814, -0.0000113602727652,  0.0000121628545457 ]
  - [   0.0005669301026501,  0.0008468152955174, -0.0001418994361302 ]
  - [   0.0005539043340832, -0.0008303634822369, -0.0001388567034155 ]
  - [   0.0005665404605679, -0.0008478192612529,  0.0001419153704774 ]
  - [   0.0005559481796809,  0.0008304985822178,  0.0001384429633617 ]
  - [  -0.0000096304866020,  0.0000089760869741,  0.0000112814741442 ]
  - [  -0.0000091847978183, -0.0000085337087512,  0.0000110869295895 ]
  - [  -0.0000096561643659, -0.0000088947708718, -0.0000112681300379 ]
  - [  -0.0000089682289399,  0.0000081620237324, -0.0000104894861579 ]
  - [   0.0005663029151037,  0.0001416724262526, -0.0008478220552206 ]
  - [   0.0005545037565753,  0.0001386309741065,  0.0008304053917527 ]
  - [  -0.0000100151419247, -0.0000111034241854, -0.0000089257955551 ]
  - [  -0.0000093824373835, -0.0000105546787381,  0.0000087767839432 ]
  - [   0.0005662897019647, -0.0001416036684532,  0.0008479142561555 ]
  - [   0.0005557612748817, -0.0001387092634104, -0.0008307574316859 ]
  - [  -0.0000100115139503,  0.0000113386486191,  0.0000085122883320 ]
  - [  -0.0000085363781182,  0.0000102380290627, -0.0000084172934294 ]
  - [   0.0000892188400030, -0.0003499705344439,  0.0000454372748209 ]
  - [  -0.0000502075999975,  0.0001476127654314,  0.0000275391175819 ]
  - [  -0.0001229196786880,  0.0000217650085688, -0.0000228491589951 ]
  - [   0.0000203642994165, -0.0000105351209641,  0.0000084507310021 ]
  - [   0.0024980176240206,  0.0039913263171911, -0.0039941780269146 ]
  - [  -0.0008587650954723,  0.0002904888242483, -0.0002927388995886 ]
  - [   0.0000883452594280, -0.0000446327030659,  0.0003488380461931 ]
  - [  -0.0000481121242046, -0.0000264253467321, -0.0001492332667112 ]
  - [   0.0000915843993425, -0.0003461744636297, -0.0000500323294546 ]
  - [  -0.0000470113009214,  0.0001470092684031, -0.0000257602914644 ]
  - [  -0.0001224242150784,  0.0000222790986300,  0.0000224133891606 ]
  - [   0.0000211074948311, -0.0000086501240730, -0.0000085085630417 ]
  - [   0.0025112796574831,  0.0040527470409870,  0.0040502399206161 ]
  - [  -0.0008543618023396,  0.0002861358225346,  0.0002831611782312 ]
  - [   0.0000928472727537, -0.0000498313456774, -0.0003472343087196 ]
  - [  -0.0000499933958054, -0.0000280588865280,  0.0001448392868042 ]
  - [   0.0025109034031630, -0.0040528383105993, -0.0040525719523430 ]
  - [  -0.0008537396788597, -0.0002866817230824, -0.0002874415367842 ]
  - [   0.0000915005803108,  0.0000478420006402,  0.0003452487289906 ]
  - [  -0.0000483598560095,  0.0000253337966569, -0.0001471713185310 ]
  - [   0.0000919420272112,  0.0003456483536866,  0.0000496748834848 ]
  - [  -0.0000524744391441, -0.0001485198736191,  0.0000282153487206 ]
  - [  -0.0001223050057888, -0.0000217985361814, -0.0000221692025661 ]
  - [   0.0000232756137848,  0.0000102072954178,  0.0000098794698715 ]
  - [   0.0024990038946271, -0.0039924308657646,  0.0039913728833199 ]
  - [  -0.0008578150882386, -0.0002908203750849,  0.0002915076911449 ]
  - [   0.0000893062388059,  0.0000464431941509, -0.0003491360694170 ]
  - [  -0.0000478085130453,  0.0000283960253000,  0.0001479405909777 ]
  - [   0.0000888640206540,  0.0003490913659334, -0.0000475067645311 ]
  - [  -0.0000480767339468, -0.0001474879682064, -0.0000280123203993 ]
  - [  -0.0001225918531418, -0.0000228732824326,  0.0000230893492699 ]
  - [   0.0000221654772758,  0.0000092238187790, -0.0000101029872894 ]
  - [   0.0005455532809719,  0.0002277303428855,  0.0000176690518856 ]
  - [  -0.0003476878628135,  0.0000832417645142,  0.0000029406510293 ]
  - [  -0.0000168176993611, -0.0000149095430970, -0.0000007601920515 ]
  - [   0.0000104373320937, -0.0000145090743899, -0.0000004798639566 ]
  - [   0.0005446333670989, -0.0002265736693516, -0.0000151814892888 ]
  - [  -0.0003486312925816, -0.0000833177182358, -0.0000002263113856 ]
  - [  -0.0000164772263815,  0.0000161398202181,  0.0000021336600184 ]
  - [   0.0000086398795247,  0.0000167805701494,  0.0000007590278983 ]
  - [   0.0005466621369123, -0.0000172443687916, -0.0002266848459840 ]
  - [  -0.0003481972962618, -0.0000032363459468, -0.0000829212367535 ]
  - [   0.0005452136392705,  0.0000178449772648,  0.0002273796126246 ]
  - [  -0.0003489321097732,  0.0000017690472305,  0.0000833384692669 ]
  - [  -0.0000163899239851,  0.0000007487833500,  0.0000163726945175 ]
  - [   0.0000073136761785,  0.0000005858018994,  0.0000163284130394 ]
  - [  -0.0000171214342117, -0.0000003986060619, -0.0000164294615388 ]
  - [   0.0000132238492370,  0.0000013816170394, -0.0000176981557161 ]
  - [   0.0000366943859262, -0.0001788176596165,  0.0001797489821911 ]
  - [  -0.0013273422373459,  0.0014670221135020, -0.0014675590209663 ]
  - [  -0.0013285416644067,  0.0014665208291262,  0.0014663697220385 ]
  - [   0.0000361336278729, -0.0001789820380509, -0.0001792907714844 ]
  - [  -0.0013293486554176, -0.0014677969738841, -0.0014649974182248 ]
  - [   0.0000387183245039,  0.0001788642257452,  0.0001802882179618 ]
  - [   0.0000366873318853,  0.0001799727324396, -0.0001791203394532 ]
  - [  -0.0013242838904262, -0.0014660924207419,  0.0014682458713651 ]
  - [   0.0040357951074839,  0.0000007133930922,  0.0000008242204785 ]
  - [   0.0038543860428035, -0.0000000740001269,  0.0000011334195733 ]
  - [   0.0000060430761550,  0.0000010756775737,  0.0000015813857317 ]
  - [   0.0000030408789371,  0.0000005532056093,  0.0000009527429938 ]
  - [   0.0000054466513575,  0.0000000782310963,  0.0000000395812094 ]
  - [   0.0000043461641326,  0.0000008763745427,  0.0000002991873771 ]
  - [   0.0000018927241854, -0.0000005392357707,  0.0000004198809620 ]
  - [   0.0000020456500351, -0.0000000819563866, -0.0000010218936950 ]
- atom:   33
  displacement:
    [   0.0100000000000000,  0.0000000000000000,  0.0000000000000000 ]
  forces:
  - [   0.0000928041408770, -0.0003496904391795, -0.0002941195853055 ]
  - [  -0.0000479659065604,  0.0000228923745453,  0.0000274479534710 ]
  - [  -0.0001213457435369,  0.0001472667790949, -0.0001468939299230 ]
  - [   0.0000209882855415, -0.0000084605999291,  0.0000089289824245 ]
  - [   0.0025055236183107,  0.0040532816201448, -0.0040534487925470 ]
  - [  -0.0008537927642465, -0.0000463468095404,  0.0000455153640360 ]
  - [   0.0000935150310397,  0.0002943547442555,  0.0003493140684441 ]
  - [  -0.0000473009422421, -0.0000272821052931, -0.0000223542010644 ]
  - [   0.0000929761445150, -0.0002941908314824, -0.0003496204444673 ]
  - [  -0.0000478001311421,  0.0000269731317530,  0.0000226831252803 ]
  - [   0.0025047799572349, -0.0040541663765907,  0.0040537687018514 ]
  - [  -0.0008530411869287,  0.0000455121917184, -0.0000453546526842 ]
  - [  -0.0001218073302880, -0.0001475650642533,  0.0001472964358982 ]
  - [   0.0000204863026738,  0.0000081003781816, -0.0000088561791927 ]
  - [   0.0000923741608858,  0.0003492789692245,  0.0002942422870547 ]
  - [  -0.0000485172495246, -0.0000224001923925, -0.0000263839174295 ]
  - [   0.0000212044942600, -0.0000097034499049, -0.0000088660890469 ]
  - [  -0.0001231152418768,  0.0001477394253016,  0.0001480125356466 ]
  - [  -0.0000488769546791,  0.0000229990109801, -0.0000276451901300 ]
  - [   0.0000910113376449, -0.0003456260892563,  0.0002836717758328 ]
  - [  -0.0000485376222059, -0.0000278353691101,  0.0000227847122005 ]
  - [   0.0000897423597053,  0.0002838894724846, -0.0003455447731540 ]
  - [  -0.0008599867578596, -0.0000497984001413, -0.0000495561398566 ]
  - [   0.0025050742551684,  0.0039909365586936,  0.0039915558882058 ]
  - [  -0.0008603230817243,  0.0000496484244650,  0.0000494625419378 ]
  - [   0.0025042076595128, -0.0039913635700941, -0.0039911549538374 ]
  - [  -0.0000491522441735,  0.0000279111918644, -0.0000230986624956 ]
  - [   0.0000894167169463, -0.0002834829501808,  0.0003456184640527 ]
  - [  -0.0000487905999762, -0.0000228240460274,  0.0000281380489469 ]
  - [   0.0000906425993890,  0.0003453994868323, -0.0002839621156454 ]
  - [   0.0000211150254472,  0.0000086636355263,  0.0000088578090072 ]
  - [  -0.0001218758261530, -0.0001484726089984, -0.0001478595659137 ]
  - [  -0.0653247684240341, -0.0000007189810276, -0.0000008289691777 ]
  - [   0.0006131324917078,  0.0000001545995474, -0.0000003577179939 ]
  - [  -0.0001742430031300, -0.0000010784715414, -0.0000003186024458 ]
  - [   0.0003333352506161, -0.0000013560056686, -0.0000006184883432 ]
  - [  -0.0001748129725456, -0.0000013932585716, -0.0000012200325727 ]
  - [   0.0003351531922817, -0.0000006165355444, -0.0000011920928955 ]
  - [  -0.0001414380967617,  0.0000012796372175, -0.0000002682209015 ]
  - [  -0.0000227056443691,  0.0000015050172806, -0.0000014975667000 ]
  - [   0.0019198264926672,  0.0023857839405537,  0.0000574180739932 ]
  - [   0.0019149482250214, -0.0023627933114767,  0.0000645752006676 ]
  - [   0.0019204057753086, -0.0023869667202234, -0.0000576933962293 ]
  - [   0.0019135400652885,  0.0023621246218681, -0.0000634118914604 ]
  - [   0.0000010635703802,  0.0000983737409115,  0.0000890959054232 ]
  - [  -0.0000004917383194, -0.0000977665185928,  0.0000878507271409 ]
  - [   0.0000004172325134, -0.0000983253121376, -0.0000929310917854 ]
  - [  -0.0000003576278687,  0.0000964701175690, -0.0000937357544899 ]
  - [   0.0019216276705265,  0.0000569093390368,  0.0023857466876507 ]
  - [   0.0019131619483232,  0.0000623546948191, -0.0023637525737286 ]
  - [  -0.0000002048909664,  0.0000895578050404,  0.0000976566225290 ]
  - [   0.0000008363276720,  0.0000890036681085, -0.0000972542911768 ]
  - [   0.0019203145056963, -0.0000571542550460, -0.0023862812668085 ]
  - [   0.0019094645977020, -0.0000638812780380,  0.0023632869124413 ]
  - [  -0.0000004805624485, -0.0000900607556105, -0.0000969842076302 ]
  - [   0.0000034868717194, -0.0000894889235497,  0.0000982508063316 ]
  - [  -0.0016438226448372, -0.0000578816980124, -0.0000600237399340 ]
  - [   0.0003165845118929, -0.0000903792679310, -0.0000908039510250 ]
  - [  -0.0016249633627012, -0.0000617131590843,  0.0000619702041149 ]
  - [   0.0003152219578624, -0.0000909399241209,  0.0000915117561817 ]
  - [  -0.0016255592927337,  0.0000621415674686, -0.0000634472817183 ]
  - [   0.0003152862191200,  0.0000914800912142, -0.0000915303826332 ]
  - [  -0.0016445070505142,  0.0000580996274948,  0.0000589266419411 ]
  - [   0.0003160908818245,  0.0000907704234123,  0.0000896453857422 ]
  - [   0.0125710517168045,  0.0091998875141144,  0.0091983629390597 ]
  - [  -0.0007923049852252,  0.0001621601841180,  0.0001621989067644 ]
  - [   0.0007272545481101, -0.0001313686370850, -0.0007412394043058 ]
  - [  -0.0004420792683959, -0.0004590144380927,  0.0002695650327951 ]
  - [   0.0007260636193678, -0.0007406058721244, -0.0001309849321842 ]
  - [  -0.0004427237436175,  0.0002692470443435, -0.0004589306190610 ]
  - [  -0.0002810007717926,  0.0004537208005786,  0.0004556775093079 ]
  - [  -0.0000061755999923,  0.0000130357220769,  0.0000132424756885 ]
  - [  -0.0002800775691867, -0.0004542721435428, -0.0004536481574178 ]
  - [  -0.0000038584694266, -0.0000133318826556, -0.0000123782083392 ]
  - [   0.0007264844607562,  0.0007412867853418,  0.0001339586451650 ]
  - [  -0.0004427479580045, -0.0002697869203985,  0.0004610000178218 ]
  - [   0.0007274579838850,  0.0001331912353635,  0.0007409604149871 ]
  - [  -0.0004451619461179,  0.0004607746377587, -0.0002692835405469 ]
  - [   0.0125706680119038, -0.0091986283659935, -0.0091984830796719 ]
  - [  -0.0007904488593340, -0.0001603611744940, -0.0001625611912459 ]
  - [  -0.0004424049693625, -0.0004594027996063, -0.0002692760899663 ]
  - [   0.0007280239951797, -0.0001325849443674,  0.0007415892905556 ]
  - [  -0.0007896171300672,  0.0001618236419745, -0.0001615558867343 ]
  - [   0.0124201839789748,  0.0089675877243280, -0.0089678093791008 ]
  - [  -0.0000046326740630,  0.0000112112611532, -0.0000112289562821 ]