# Thermal properties / unit cell (natom)

unit:
  temperature:   K
  free_energy:   kJ/mol
  entropy:       J/K/mol
  heat_capacity: J/K/mol

natom: 3    
cutoff_frequency: 0.00000
num_modes: 177147
num_integrated_modes: 177146

zero_point_energy:       9.1522793

thermal_properties:
- temperature:         0.0000000
  free_energy:         9.1522793
  entropy:             0.0000000
  heat_capacity:       0.0000000
  energy:              9.1522793

- temperature:        10.0000000
  free_energy:         9.1518651
  entropy:             0.1393563
  heat_capacity:       0.4341204
  energy:              9.1532587

- temperature:        20.0000000
  free_energy:         9.1460250
  entropy:             1.2794774
  heat_capacity:       3.8009337
  energy:              9.1716146

- temperature:        30.0000000
  free_energy:         9.1214884
  entropy:             3.8311096
  heat_capacity:       9.3644020
  energy:              9.2364217

- temperature:        40.0000000
  free_energy:         9.0660907
  entropy:             7.3809207
  heat_capacity:      15.6732421
  energy:              9.3613275

- temperature:        50.0000000
  free_energy:         8.9717642
  entropy:            11.5658217
  heat_capacity:      22.0426039
  energy:              9.5500553

- temperature:        60.0000000
  free_energy:         8.8335330
  entropy:            16.1256617
  heat_capacity:      28.0863129
  energy:              9.8010727

- temperature:        70.0000000
  free_energy:         8.6486168
  entropy:            20.8776103
  heat_capacity:      33.6140036
  energy:             10.1100495

- temperature:        80.0000000
  free_energy:         8.4157670
  entropy:            25.6950117
  heat_capacity:      38.5484842
  energy:             10.4713679

- temperature:        90.0000000
  free_energy:         8.1347900
  entropy:            30.4913233
  heat_capacity:      42.8812988
  energy:             10.8790091

- temperature:       100.0000000
  free_energy:         7.8062053
  entropy:            35.2089075
  heat_capacity:      46.6454347
  energy:             11.3270960

- temperature:       110.0000000
  free_energy:         7.4309986
  entropy:            39.8109512
  heat_capacity:      49.8954466
  energy:             11.8102033

- temperature:       120.0000000
  free_energy:         7.0104459
  entropy:            44.2754453
  heat_capacity:      52.6937306
  energy:             12.3234993

- temperature:       130.0000000
  free_energy:         6.5459880
  entropy:            48.5907002
  heat_capacity:      55.1021762
  energy:             12.8627790

- temperature:       140.0000000
  free_energy:         6.0391453
  entropy:            52.7520632
  heat_capacity:      57.1778050
  energy:             13.4244342

- temperature:       150.0000000
  free_energy:         5.4914599
  entropy:            56.7595628
  heat_capacity:      58.9709683
  energy:             14.0053943

- temperature:       160.0000000
  free_energy:         4.9044570
  entropy:            60.6162514
  heat_capacity:      60.5250112
  energy:             14.6030572

- temperature:       170.0000000
  free_energy:         4.2796213
  entropy:            64.3270551
  heat_capacity:      61.8766837
  energy:             15.2152206

- temperature:       180.0000000
  free_energy:         3.6183822
  entropy:            67.8979869
  heat_capacity:      63.0568712
  energy:             15.8400198

- temperature:       190.0000000
  free_energy:         2.9221059
  entropy:            71.3356165
  heat_capacity:      64.0914122
  energy:             16.4758730

- temperature:       200.0000000
  free_energy:         2.1920916
  entropy:            74.6467165
  heat_capacity:      65.0018841
  energy:             17.1214349

- temperature:       210.0000000
  free_energy:         1.4295708
  entropy:            77.8380320
  heat_capacity:      65.8063087
  energy:             17.7755576

- temperature:       220.0000000
  free_energy:         0.6357083
  entropy:            80.9161354
  heat_capacity:      66.5197594
  energy:             18.4372581

- temperature:       230.0000000
  free_energy:        -0.1883956
  entropy:            83.8873366
  heat_capacity:      67.1548717
  energy:             19.1056918

- temperature:       240.0000000
  free_energy:        -1.0417021
  entropy:            86.7576338
  heat_capacity:      67.7222685
  energy:             19.7801300

- temperature:       250.0000000
  free_energy:        -1.9232308
  entropy:            89.5326893
  heat_capacity:      68.2309092
  energy:             20.4599415

- temperature:       260.0000000
  free_energy:        -2.8320562
  entropy:            92.2178228
  heat_capacity:      68.6883764
  energy:             21.1445777

- temperature:       270.0000000
  free_energy:        -3.7673042
  entropy:            94.8180156
  heat_capacity:      69.1011107
  energy:             21.8335600

- temperature:       280.0000000
  free_energy:        -4.7281489
  entropy:            97.3379219
  heat_capacity:      69.4746027
  energy:             22.5264692

- temperature:       290.0000000
  free_energy:        -5.7138095
  entropy:            99.7818845
  heat_capacity:      69.8135500
  energy:             23.2229370

- temperature:       300.0000000
  free_energy:        -6.7235470
  entropy:           102.1539519
  heat_capacity:      70.1219864
  energy:             23.9226386

- temperature:       310.0000000
  free_energy:        -7.7566615
  entropy:           104.4578973
  heat_capacity:      70.4033883
  energy:             24.6252867

- temperature:       320.0000000
  free_energy:        -8.8124896
  entropy:           106.6972372
  heat_capacity:      70.6607618
  energy:             25.3306263

- temperature:       330.0000000
  free_energy:        -9.8904018
  entropy:           108.8752497
  heat_capacity:      70.8967152
  energy:             26.0384306

- temperature:       340.0000000
  free_energy:       -10.9898004
  entropy:           110.9949918
  heat_capacity:      71.1135193
  energy:             26.7484968

- temperature:       350.0000000
  free_energy:       -12.1101170
  entropy:           113.0593163
  heat_capacity:      71.3131571
  energy:             27.4606437

- temperature:       360.0000000
  free_energy:       -13.2508109
  entropy:           115.0708873
  heat_capacity:      71.4973661
  energy:             28.1747086

- temperature:       370.0000000
  free_energy:       -14.4113672
  entropy:           117.0321944
  heat_capacity:      71.6676726
  energy:             28.8905447

- temperature:       380.0000000
  free_energy:       -15.5912950
  entropy:           118.9455662
  heat_capacity:      71.8254217
  energy:             29.6080202

- temperature:       390.0000000
  free_energy:       -16.7901260
  entropy:           120.8131828
  heat_capacity:      71.9718021
  energy:             30.3270153

- temperature:       400.0000000
  free_energy:       -18.0074130
  entropy:           122.6370870
  heat_capacity:      72.1078668
  energy:             31.0474218

- temperature:       410.0000000
  free_energy:       -19.2427284
  entropy:           124.4191947
  heat_capacity:      72.2345514
  energy:             31.7691414

- temperature:       420.0000000
  free_energy:       -20.4956635
  entropy:           126.1613046
  heat_capacity:      72.3526889
  energy:             32.4920844

- temperature:       430.0000000
  free_energy:       -21.7658268
  entropy:           127.8651070
  heat_capacity:      72.4630229
  energy:             33.2161692

- temperature:       440.0000000
  free_energy:       -23.0528433
  entropy:           129.5321917
  heat_capacity:      72.5662189
  energy:             33.9413211

- temperature:       450.0000000
  free_energy:       -24.3563533
  entropy:           131.1640556
  heat_capacity:      72.6628735
  energy:             34.6674717

- temperature:       460.0000000
  free_energy:       -25.6760117
  entropy:           132.7621092
  heat_capacity:      72.7535230
  energy:             35.3945585

- temperature:       470.0000000
  free_energy:       -27.0114872
  entropy:           134.3276830
  heat_capacity:      72.8386502
  energy:             36.1225238

- temperature:       480.0000000
  free_energy:       -28.3624613
  entropy:           135.8620331
  heat_capacity:      72.9186910
  energy:             36.8513146

- temperature:       490.0000000
  free_energy:       -29.7286278
  entropy:           137.3663464
  heat_capacity:      72.9940392
  energy:             37.5808820

- temperature:       500.0000000
  free_energy:       -31.1096919
  entropy:           138.8417455
  heat_capacity:      73.0650518
  energy:             38.3111809

- temperature:       510.0000000
  free_energy:       -32.5053698
  entropy:           140.2892931
  heat_capacity:      73.1320526
  energy:             39.0421696

- temperature:       520.0000000
  free_energy:       -33.9153882
  entropy:           141.7099958
  heat_capacity:      73.1953360
  energy:             39.7738096

- temperature:       530.0000000
  free_energy:       -35.3394835
  entropy:           143.1048082
  heat_capacity:      73.2551701
  energy:             40.5060649

- temperature:       540.0000000
  free_energy:       -36.7774011
  entropy:           144.4746360
  heat_capacity:      73.3117994
  energy:             41.2389023

- temperature:       550.0000000
  free_energy:       -38.2288958
  entropy:           145.8203394
  heat_capacity:      73.3654472
  energy:             41.9722909

- temperature:       560.0000000
  free_energy:       -39.6937302
  entropy:           147.1427361
  heat_capacity:      73.4163180
  energy:             42.7062020

- temperature:       570.0000000
  free_energy:       -41.1716754
  entropy:           148.4426036
  heat_capacity:      73.4645990
  energy:             43.4406086

- temperature:       580.0000000
  free_energy:       -42.6625097
  entropy:           149.7206820
  heat_capacity:      73.5104619
  energy:             44.1754859

- temperature:       590.0000000
  free_energy:       -44.1660188
  entropy:           150.9776765
  heat_capacity:      73.5540648
  energy:             44.9108104

- temperature:       600.0000000
  free_energy:       -45.6819952
  entropy:           152.2142589
  heat_capacity:      73.5955529
  energy:             45.6465601

- temperature:       610.0000000
  free_energy:       -47.2102380
  entropy:           153.4310702
  heat_capacity:      73.6350601
  energy:             46.3827148

- temperature:       620.0000000
  free_energy:       -48.7505527
  entropy:           154.6287224
  heat_capacity:      73.6727098
  energy:             47.1192552

- temperature:       630.0000000
  free_energy:       -50.3027506
  entropy:           155.8077996
  heat_capacity:      73.7086161
  energy:             47.8561632

- temperature:       640.0000000
  free_energy:       -51.8666487
  entropy:           156.9688604
  heat_capacity:      73.7428845
  energy:             48.5934220

- temperature:       650.0000000
  free_energy:       -53.4420695
  entropy:           158.1124389
  heat_capacity:      73.7756127
  energy:             49.3310158

- temperature:       660.0000000
  free_energy:       -55.0288409
  entropy:           159.2390459
  heat_capacity:      73.8068912
  energy:             50.0689294

- temperature:       670.0000000
  free_energy:       -56.6267955
  entropy:           160.3491709
  heat_capacity:      73.8368040
  energy:             50.8071490

- temperature:       680.0000000
  free_energy:       -58.2357709
  entropy:           161.4432826
  heat_capacity:      73.8654292
  energy:             51.5456612

- temperature:       690.0000000
  free_energy:       -59.8556093
  entropy:           162.5218302
  heat_capacity:      73.8928392
  energy:             52.2844536

- temperature:       700.0000000
  free_energy:       -61.4861571
  entropy:           163.5852447
  heat_capacity:      73.9191016
  energy:             53.0235142

- temperature:       710.0000000
  free_energy:       -63.1272651
  entropy:           164.6339395
  heat_capacity:      73.9442793
  energy:             53.7628320

- temperature:       720.0000000
  free_energy:       -64.7787881
  entropy:           165.6683118
  heat_capacity:      73.9684312
  energy:             54.5023964

- temperature:       730.0000000
  free_energy:       -66.4405849
  entropy:           166.6887428
  heat_capacity:      73.9916118
  energy:             55.2421974

- temperature:       740.0000000
  free_energy:       -68.1125177
  entropy:           167.6955990
  heat_capacity:      74.0138725
  energy:             55.9822255

- temperature:       750.0000000
  free_energy:       -69.7944528
  entropy:           168.6892329
  heat_capacity:      74.0352611
  energy:             56.7224719

- temperature:       760.0000000
  free_energy:       -71.4862594
  entropy:           169.6699835
  heat_capacity:      74.0558223
  energy:             57.4629280

- temperature:       770.0000000
  free_energy:       -73.1878106
  entropy:           170.6381770
  heat_capacity:      74.0755983
  energy:             58.2035857

- temperature:       780.0000000
  free_energy:       -74.8989822
  entropy:           171.5941278
  heat_capacity:      74.0946284
  energy:             58.9444375

- temperature:       790.0000000
  free_energy:       -76.6196533
  entropy:           172.5381383
  heat_capacity:      74.1129494
  energy:             59.6854759

- temperature:       800.0000000
  free_energy:       -78.3497061
  entropy:           173.4705004
  heat_capacity:      74.1305961
  energy:             60.4266942

- temperature:       810.0000000
  free_energy:       -80.0890254
  entropy:           174.3914953
  heat_capacity:      74.1476011
  energy:             61.1680857

- temperature:       820.0000000
  free_energy:       -81.8374990
  entropy:           175.3013942
  heat_capacity:      74.1639949
  energy:             61.9096442

- temperature:       830.0000000
  free_energy:       -83.5950172
  entropy:           176.2004589
  heat_capacity:      74.1798066
  energy:             62.6513637

- temperature:       840.0000000
  free_energy:       -85.3614729
  entropy:           177.0889422
  heat_capacity:      74.1950631
  energy:             63.3932385

- temperature:       850.0000000
  free_energy:       -87.1367616
  entropy:           177.9670880
  heat_capacity:      74.2097903
  energy:             64.1352632

- temperature:       860.0000000
  free_energy:       -88.9207810
  entropy:           178.8351321
  heat_capacity:      74.2240121
  energy:             64.8774326

- temperature:       870.0000000
  free_energy:       -90.7134313
  entropy:           179.6933025
  heat_capacity:      74.2377514
  energy:             65.6197418

- temperature:       880.0000000
  free_energy:       -92.5146149
  entropy:           180.5418193
  heat_capacity:      74.2510297
  energy:             66.3621861

- temperature:       890.0000000
  free_energy:       -94.3242363
  entropy:           181.3808957
  heat_capacity:      74.2638674
  energy:             67.1047609

- temperature:       900.0000000
  free_energy:       -96.1422020
  entropy:           182.2107379
  heat_capacity:      74.2762837
  energy:             67.8474620

- temperature:       910.0000000
  free_energy:       -97.9684209
  entropy:           183.0315452
  heat_capacity:      74.2882968
  energy:             68.5902853

- temperature:       920.0000000
  free_energy:       -99.8028035
  entropy:           183.8435110
  heat_capacity:      74.2999240
  energy:             69.3332267

- temperature:       930.0000000
  free_energy:      -101.6452623
  entropy:           184.6468223
  heat_capacity:      74.3111815
  energy:             70.0762825

- temperature:       940.0000000
  free_energy:      -103.4957117
  entropy:           185.4416604
  heat_capacity:      74.3220848
  energy:             70.8194491

- temperature:       950.0000000
  free_energy:      -105.3540678
  entropy:           186.2282009
  heat_capacity:      74.3326486
  energy:             71.5627231

- temperature:       960.0000000
  free_energy:      -107.2202486
  entropy:           187.0066142
  heat_capacity:      74.3428868
  energy:             72.3061010

- temperature:       970.0000000
  free_energy:      -109.0941736
  entropy:           187.7770653
  heat_capacity:      74.3528126
  energy:             73.0495798

- temperature:       980.0000000
  free_energy:      -110.9757639
  entropy:           188.5397145
  heat_capacity:      74.3624387
  energy:             73.7931563

- temperature:       990.0000000
  free_energy:      -112.8649424
  entropy:           189.2947171
  heat_capacity:      74.3717768
  energy:             74.5368276

- temperature:      1000.0000000
  free_energy:      -114.7616333
  entropy:           190.0422241
  heat_capacity:      74.3808384
  energy:             75.2805909
