# Thermal properties / unit cell (natom)

unit:
  temperature:   K
  free_energy:   kJ/mol
  entropy:       J/K/mol
  heat_capacity: J/K/mol

natom: 12   
cutoff_frequency: 0.00000
num_modes: 628452
num_integrated_modes: 628449

zero_point_energy:      34.2470532

thermal_properties:
- temperature:         0.0000000
  free_energy:        34.2470532
  entropy:             0.0000000
  heat_capacity:       0.0000000
  energy:             34.2470532

- temperature:        10.0000000
  free_energy:        34.2437384
  entropy:             1.4127335
  heat_capacity:       4.6918234
  energy:             34.2578657

- temperature:        20.0000000
  free_energy:        34.1858094
  entropy:            12.2188646
  heat_capacity:      33.2777662
  energy:             34.4301867

- temperature:        30.0000000
  free_energy:        33.9674394
  entropy:            32.4466874
  heat_capacity:      67.9579454
  energy:             34.9408400

- temperature:        40.0000000
  free_energy:        33.5265202
  entropy:            55.9266445
  heat_capacity:      95.3788372
  energy:             35.7635860

- temperature:        50.0000000
  free_energy:        32.8483872
  entropy:            79.6303822
  heat_capacity:     117.2265059
  energy:             36.8299063

- temperature:        60.0000000
  free_energy:        31.9360624
  entropy:           102.7082561
  heat_capacity:     136.1490490
  energy:             38.0985578

- temperature:        70.0000000
  free_energy:        30.7968483
  entropy:           125.0018995
  heat_capacity:     153.2726789
  energy:             39.5469813

- temperature:        80.0000000
  free_energy:        29.4386656
  entropy:           146.5033533
  heat_capacity:     168.8659364
  energy:             41.1589339

- temperature:        90.0000000
  free_energy:        27.8693955
  entropy:           167.2203883
  heat_capacity:     182.9387873
  energy:             42.9192304

- temperature:       100.0000000
  free_energy:        26.0968565
  entropy:           187.1578853
  heat_capacity:     195.4943424
  energy:             44.8126450

- temperature:       110.0000000
  free_energy:        24.1288160
  entropy:           206.3221235
  heat_capacity:     206.5912472
  energy:             46.8242496

- temperature:       120.0000000
  free_energy:        21.9729524
  entropy:           224.7250849
  heat_capacity:     216.3368101
  energy:             48.9399626

- temperature:       130.0000000
  free_energy:        19.6367896
  entropy:           242.3856729
  heat_capacity:     224.8649796
  energy:             51.1469270

- temperature:       140.0000000
  free_energy:        17.1276306
  entropy:           259.3289018
  heat_capacity:     232.3173840
  energy:             53.4336769

- temperature:       150.0000000
  free_energy:        14.4525047
  entropy:           275.5842819
  heat_capacity:     238.8310678
  energy:             55.7901469

- temperature:       160.0000000
  free_energy:        11.6181303
  entropy:           291.1841258
  heat_capacity:     244.5319247
  energy:             58.2075904

- temperature:       170.0000000
  free_energy:         8.6308951
  entropy:           306.1620937
  heat_capacity:     249.5319759
  energy:             60.6784510

- temperature:       180.0000000
  free_energy:         5.4968483
  entropy:           320.5520712
  heat_capacity:     253.9289336
  energy:             63.1962211

- temperature:       190.0000000
  free_energy:         2.2217025
  entropy:           334.3873624
  heat_capacity:     257.8069803
  energy:             65.7553014

- temperature:       200.0000000
  free_energy:        -1.1891574
  entropy:           347.7001480
  heat_capacity:     261.2381059
  energy:             68.3508722

- temperature:       210.0000000
  free_energy:        -4.7306614
  entropy:           360.5211451
  heat_capacity:     264.2836211
  energy:             70.9787791

- temperature:       220.0000000
  free_energy:        -8.3980381
  entropy:           372.8794179
  heat_capacity:     266.9956457
  energy:             73.6354338

- temperature:       230.0000000
  free_energy:       -12.1867986
  entropy:           384.8022929
  heat_capacity:     269.4184753
  energy:             76.3177288

- temperature:       240.0000000
  free_energy:       -16.0927181
  entropy:           396.3153485
  heat_capacity:     271.5897874
  energy:             79.0229655

- temperature:       250.0000000
  free_energy:       -20.1118192
  entropy:           407.4424516
  heat_capacity:     273.5416813
  energy:             81.7487937

- temperature:       260.0000000
  free_energy:       -24.2403549
  entropy:           418.2058248
  heat_capacity:     275.3015627
  energy:             84.4931596

- temperature:       270.0000000
  free_energy:       -28.4747923
  entropy:           428.6261325
  heat_capacity:     276.8928880
  energy:             87.2542634

- temperature:       280.0000000
  free_energy:       -32.8117981
  entropy:           438.7225750
  heat_capacity:     278.3357884
  energy:             90.0305229

- temperature:       290.0000000
  free_energy:       -37.2482239
  entropy:           448.5129874
  heat_capacity:     279.6475911
  energy:             92.8205425

- temperature:       300.0000000
  free_energy:       -41.7810931
  entropy:           458.0139364
  heat_capacity:     280.8432536
  energy:             95.6230878

- temperature:       310.0000000
  free_energy:       -46.4075892
  entropy:           467.2408159
  heat_capacity:     281.9357269
  energy:             98.4370638

- temperature:       320.0000000
  free_energy:       -51.1250437
  entropy:           476.2079366
  heat_capacity:     282.9362583
  energy:            101.2614960

- temperature:       330.0000000
  free_energy:       -55.9309265
  entropy:           484.9286114
  heat_capacity:     283.8546443
  energy:            104.0955152

- temperature:       340.0000000
  free_energy:       -60.8228358
  entropy:           493.4152340
  heat_capacity:     284.6994427
  energy:            106.9383437

- temperature:       350.0000000
  free_energy:       -65.7984896
  entropy:           501.6793528
  heat_capacity:     285.4781511
  energy:            109.7892839

- temperature:       360.0000000
  free_energy:       -70.8557172
  entropy:           509.7317380
  heat_capacity:     286.1973564
  energy:            112.6477085

- temperature:       370.0000000
  free_energy:       -75.9924522
  entropy:           517.5824440
  heat_capacity:     286.8628613
  energy:            115.5130521

- temperature:       380.0000000
  free_energy:       -81.2067252
  entropy:           525.2408660
  heat_capacity:     287.4797914
  energy:            118.3848039

- temperature:       390.0000000
  free_energy:       -86.4966579
  entropy:           532.7157926
  heat_capacity:     288.0526858
  energy:            121.2625012

- temperature:       400.0000000
  free_energy:       -91.8604569
  entropy:           540.0154529
  heat_capacity:     288.5855744
  energy:            124.1457243

- temperature:       410.0000000
  free_energy:       -97.2964085
  entropy:           547.1475606
  heat_capacity:     289.0820435
  energy:            127.0340913

- temperature:       420.0000000
  free_energy:      -102.8028738
  entropy:           554.1193529
  heat_capacity:     289.5452926
  energy:            129.9272545

- temperature:       430.0000000
  free_energy:      -108.3782839
  entropy:           560.9376277
  heat_capacity:     289.9781821
  energy:            132.8248960

- temperature:       440.0000000
  free_energy:      -114.0211359
  entropy:           567.6087759
  heat_capacity:     290.3832753
  energy:            135.7267255

- temperature:       450.0000000
  free_energy:      -119.7299891
  entropy:           574.1388125
  heat_capacity:     290.7628740
  energy:            138.6324766

- temperature:       460.0000000
  free_energy:      -125.5034607
  entropy:           580.5334036
  heat_capacity:     291.1190493
  energy:            141.5419049

- temperature:       470.0000000
  free_energy:      -131.3402235
  entropy:           586.7978919
  heat_capacity:     291.4536688
  energy:            144.4547857

- temperature:       480.0000000
  free_energy:      -137.2390017
  entropy:           592.9373204
  heat_capacity:     291.7684195
  energy:            147.3709121

- temperature:       490.0000000
  free_energy:      -143.1985689
  entropy:           598.9564529
  heat_capacity:     292.0648283
  energy:            150.2900930

- temperature:       500.0000000
  free_energy:      -149.2177449
  entropy:           604.8597940
  heat_capacity:     292.3442796
  energy:            153.2121521

- temperature:       510.0000000
  free_energy:      -155.2953931
  entropy:           610.6516066
  heat_capacity:     292.6080311
  energy:            156.1369263

- temperature:       520.0000000
  free_energy:      -161.4304187
  entropy:           616.3359287
  heat_capacity:     292.8572268
  energy:            159.0642642

- temperature:       530.0000000
  free_energy:      -167.6217661
  entropy:           621.9165885
  heat_capacity:     293.0929094
  energy:            161.9940258

- temperature:       540.0000000
  free_energy:      -173.8684171
  entropy:           627.3972178
  heat_capacity:     293.3160308
  energy:            164.9260806

- temperature:       550.0000000
  free_energy:      -180.1693886
  entropy:           632.7812654
  heat_capacity:     293.5274610
  energy:            167.8603074

- temperature:       560.0000000
  free_energy:      -186.5237314
  entropy:           638.0720087
  heat_capacity:     293.7279967
  energy:            170.7965935

- temperature:       570.0000000
  free_energy:      -192.9305281
  entropy:           643.2725642
  heat_capacity:     293.9183682
  energy:            173.7348335

- temperature:       580.0000000
  free_energy:      -199.3888919
  entropy:           648.3858985
  heat_capacity:     294.0992464
  energy:            176.6749292

- temperature:       590.0000000
  free_energy:      -205.8979648
  entropy:           653.4148367
  heat_capacity:     294.2712478
  energy:            179.6167888

- temperature:       600.0000000
  free_energy:      -212.4569163
  entropy:           658.3620713
  heat_capacity:     294.4349401
  energy:            182.5603265

- temperature:       610.0000000
  free_energy:      -219.0649425
  entropy:           663.2301707
  heat_capacity:     294.5908468
  energy:            185.5054617

- temperature:       620.0000000
  free_energy:      -225.7212642
  entropy:           668.0215858
  heat_capacity:     294.7394507
  energy:            188.4521191

- temperature:       630.0000000
  free_energy:      -232.4251264
  entropy:           672.7386575
  heat_capacity:     294.8811984
  energy:            191.4002278

- temperature:       640.0000000
  free_energy:      -239.1757970
  entropy:           677.3836227
  heat_capacity:     295.0165027
  energy:            194.3497216

- temperature:       650.0000000
  free_energy:      -245.9725656
  entropy:           681.9586205
  heat_capacity:     295.1457463
  energy:            197.3005377

- temperature:       660.0000000
  free_energy:      -252.8147430
  entropy:           686.4656976
  heat_capacity:     295.2692837
  energy:            200.2526175

- temperature:       670.0000000
  free_energy:      -259.7016597
  entropy:           690.9068137
  heat_capacity:     295.3874444
  energy:            203.2059054

- temperature:       680.0000000
  free_energy:      -266.6326656
  entropy:           695.2838457
  heat_capacity:     295.5005343
  energy:            206.1603494

- temperature:       690.0000000
  free_energy:      -273.6071290
  entropy:           699.5985930
  heat_capacity:     295.6088380
  energy:            209.1159002

- temperature:       700.0000000
  free_energy:      -280.6244357
  entropy:           703.8527811
  heat_capacity:     295.7126205
  energy:            212.0725111

- temperature:       710.0000000
  free_energy:      -287.6839883
  entropy:           708.0480657
  heat_capacity:     295.8121290
  energy:            215.0301383

- temperature:       720.0000000
  free_energy:      -294.7852059
  entropy:           712.1860363
  heat_capacity:     295.9075938
  energy:            217.9887402

- temperature:       730.0000000
  free_energy:      -301.9275231
  entropy:           716.2682199
  heat_capacity:     295.9992302
  energy:            220.9482775

- temperature:       740.0000000
  free_energy:      -309.1103893
  entropy:           720.2960838
  heat_capacity:     296.0872392
  energy:            223.9087128

- temperature:       750.0000000
  free_energy:      -316.3332684
  entropy:           724.2710389
  heat_capacity:     296.1718091
  energy:            226.8700108

- temperature:       760.0000000
  free_energy:      -323.5956382
  entropy:           728.1944425
  heat_capacity:     296.2531161
  energy:            229.8321381

- temperature:       770.0000000
  free_energy:      -330.8969898
  entropy:           732.0676007
  heat_capacity:     296.3313251
  energy:            232.7950628

- temperature:       780.0000000
  free_energy:      -338.2368269
  entropy:           735.8917714
  heat_capacity:     296.4065911
  energy:            235.7587548

- temperature:       790.0000000
  free_energy:      -345.6146659
  entropy:           739.6681661
  heat_capacity:     296.4790592
  energy:            238.7231853

- temperature:       800.0000000
  free_energy:      -353.0300349
  entropy:           743.3979525
  heat_capacity:     296.5488660
  energy:            241.6883271

- temperature:       810.0000000
  free_energy:      -360.4824734
  entropy:           747.0822562
  heat_capacity:     296.6161397
  energy:            244.6541542

- temperature:       820.0000000
  free_energy:      -367.9715320
  entropy:           750.7221632
  heat_capacity:     296.6810010
  energy:            247.6206418

- temperature:       830.0000000
  free_energy:      -375.4967722
  entropy:           754.3187213
  heat_capacity:     296.7435635
  energy:            250.5877665

- temperature:       840.0000000
  free_energy:      -383.0577653
  entropy:           757.8729418
  heat_capacity:     296.8039342
  energy:            253.5555058

- temperature:       850.0000000
  free_energy:      -390.6540931
  entropy:           761.3858016
  heat_capacity:     296.8622139
  energy:            256.5238382

- temperature:       860.0000000
  free_energy:      -398.2853467
  entropy:           764.8582443
  heat_capacity:     296.9184979
  energy:            259.4927434

- temperature:       870.0000000
  free_energy:      -405.9511263
  entropy:           768.2911818
  heat_capacity:     296.9728760
  energy:            262.4622018

- temperature:       880.0000000
  free_energy:      -413.6510416
  entropy:           771.6854959
  heat_capacity:     297.0254329
  energy:            265.4321949

- temperature:       890.0000000
  free_energy:      -421.3847104
  entropy:           775.0420394
  heat_capacity:     297.0762489
  energy:            268.4027047

- temperature:       900.0000000
  free_energy:      -429.1517592
  entropy:           778.3616372
  heat_capacity:     297.1253997
  energy:            271.3737143

- temperature:       910.0000000
  free_energy:      -436.9518226
  entropy:           781.6450879
  heat_capacity:     297.1729573
  energy:            274.3452074

- temperature:       920.0000000
  free_energy:      -444.7845430
  entropy:           784.8931646
  heat_capacity:     297.2189894
  energy:            277.3171683

- temperature:       930.0000000
  free_energy:      -452.6495705
  entropy:           788.1066159
  heat_capacity:     297.2635605
  energy:            280.2895823

- temperature:       940.0000000
  free_energy:      -460.5465624
  entropy:           791.2861673
  heat_capacity:     297.3067315
  energy:            283.2624349

- temperature:       950.0000000
  free_energy:      -468.4751832
  entropy:           794.4325217
  heat_capacity:     297.3485605
  energy:            286.2357124

- temperature:       960.0000000
  free_energy:      -476.4351044
  entropy:           797.5463606
  heat_capacity:     297.3891022
  energy:            289.2094018

- temperature:       970.0000000
  free_energy:      -484.4260042
  entropy:           800.6283449
  heat_capacity:     297.4284089
  energy:            292.1834904

- temperature:       980.0000000
  free_energy:      -492.4475673
  entropy:           803.6791156
  heat_capacity:     297.4665300
  energy:            295.1579660

- temperature:       990.0000000
  free_energy:      -500.4994846
  entropy:           806.6992947
  heat_capacity:     297.5035127
  energy:            298.1328172

- temperature:      1000.0000000
  free_energy:      -508.5814532
  entropy:           809.6894858
  heat_capacity:     297.5394018
  energy:            301.1080326
