phonopy:
  version: "2.37.1"
  frequency_unit_conversion_factor: 15.633302
  symmetry_tolerance: 1.00000e-05

space_group:
  type: "P1"
  number: 1
  Hall_symbol: "P 1"

primitive_matrix:
- [  1.000000000000000, -0.000000000000000,  0.000000000000000 ]
- [  0.000000000000000,  1.000000000000000,  0.000000000000000 ]
- [  0.000000000000000,  0.000000000000000,  1.000000000000000 ]

supercell_matrix:
- [   3,   0,   0 ]
- [   0,   2,   0 ]
- [   0,   0,   2 ]

primitive_cell:
  lattice:
  - [     4.433371291224221,     0.000000000000000,     0.000000000000000 ] # a
  - [     2.215383544718330,     4.998009054749359,     0.000000000000000 ] # b
  - [     2.214923769450789,     1.117886300495556,     8.251371751373144 ] # c
  points:
  - symbol: Li # 1
    coordinates: [  0.721162647354600,  0.349532318480117,  0.569404436775883 ]
    mass: 6.940000
  - symbol: Li # 2
    coordinates: [  0.390535524346385,  0.695388738268442,  0.885061700463201 ]
    mass: 6.940000
  - symbol: Li # 3
    coordinates: [  0.059290461798716,  0.041731470995956,  0.202256386420948 ]
    mass: 6.940000
  - symbol: Ga # 4
    coordinates: [  0.083587773185394,  0.317971629691621,  0.876271604501684 ]
    mass: 69.723000
  - symbol: Ga # 5
    coordinates: [  0.293768917622605,  0.444027531733665,  0.329759938143235 ]
    mass: 69.723000
  - symbol: Ga # 6
    coordinates: [  0.486732881347345,  0.947467172023718,  0.441091955626839 ]
    mass: 69.723000
  - symbol: Ga # 7
    coordinates: [  0.696773050053337,  0.073171419490142,  0.894635064094568 ]
    mass: 69.723000
  - symbol: Sn # 8
    coordinates: [  0.783823981532629,  0.642138113771853,  0.151774917726312 ]
    mass: 118.710000
  - symbol: Sn # 9
    coordinates: [  0.997162379442714,  0.749089819447129,  0.618852205098521 ]
    mass: 118.710000
  reciprocal_lattice: # without 2pi
  - [     0.225561978528503,    -0.099981070476715,    -0.047002502180051 ] # a*
  - [     0.000000000000000,     0.200079669533562,    -0.027106562195798 ] # b*
  - [     0.000000000000000,     0.000000000000000,     0.121191970272529 ] # c*

unit_cell:
  lattice:
  - [     4.433371291224222,     0.000000000000000,     0.000000000000000 ] # a
  - [     2.215383544718331,     4.998009054749359,     0.000000000000000 ] # b
  - [     2.214923769450789,     1.117886300495556,     8.251371751373146 ] # c
  points:
  - symbol: Li # 1
    coordinates: [  0.721162647354600,  0.349532318480117,  0.569404436775883 ]
    mass: 6.940000
    reduced_to: 1
  - symbol: Li # 2
    coordinates: [  0.390535524346385,  0.695388738268442,  0.885061700463201 ]
    mass: 6.940000
    reduced_to: 2
  - symbol: Li # 3
    coordinates: [  0.059290461798716,  0.041731470995956,  0.202256386420948 ]
    mass: 6.940000
    reduced_to: 3
  - symbol: Ga # 4
    coordinates: [  0.083587773185394,  0.317971629691621,  0.876271604501684 ]
    mass: 69.723000
    reduced_to: 4
  - symbol: Ga # 5
    coordinates: [  0.293768917622605,  0.444027531733665,  0.329759938143235 ]
    mass: 69.723000
    reduced_to: 5
  - symbol: Ga # 6
    coordinates: [  0.486732881347345,  0.947467172023718,  0.441091955626839 ]
    mass: 69.723000
    reduced_to: 6
  - symbol: Ga # 7
    coordinates: [  0.696773050053337,  0.073171419490142,  0.894635064094568 ]
    mass: 69.723000
    reduced_to: 7
  - symbol: Sn # 8
    coordinates: [  0.783823981532629,  0.642138113771853,  0.151774917726312 ]
    mass: 118.710000
    reduced_to: 8
  - symbol: Sn # 9
    coordinates: [  0.997162379442714,  0.749089819447129,  0.618852205098521 ]
    mass: 118.710000
    reduced_to: 9

supercell:
  lattice:
  - [    13.300113873672665,     0.000000000000000,     0.000000000000000 ] # a
  - [     4.430767089436661,     9.996018109498719,     0.000000000000000 ] # b
  - [     4.429847538901578,     2.235772600991112,    16.502743502746291 ] # c
  points:
  - symbol: Li # 1
    coordinates: [  0.240387549118200,  0.174766159240058,  0.284702218387942 ]
    mass: 6.940000
    reduced_to: 1
  - symbol: Li # 2
    coordinates: [  0.573720882451533,  0.174766159240058,  0.284702218387942 ]
    mass: 6.940000
    reduced_to: 1
  - symbol: Li # 3
    coordinates: [  0.907054215784867,  0.174766159240058,  0.284702218387942 ]
    mass: 6.940000
    reduced_to: 1
  - symbol: Li # 4
    coordinates: [  0.240387549118200,  0.674766159240058,  0.284702218387942 ]
    mass: 6.940000
    reduced_to: 1
  - symbol: Li # 5
    coordinates: [  0.573720882451533,  0.674766159240058,  0.284702218387942 ]
    mass: 6.940000
    reduced_to: 1
  - symbol: Li # 6
    coordinates: [  0.907054215784867,  0.674766159240058,  0.284702218387942 ]
    mass: 6.940000
    reduced_to: 1
  - symbol: Li # 7
    coordinates: [  0.240387549118200,  0.174766159240058,  0.784702218387942 ]
    mass: 6.940000
    reduced_to: 1
  - symbol: Li # 8
    coordinates: [  0.573720882451533,  0.174766159240058,  0.784702218387942 ]
    mass: 6.940000
    reduced_to: 1
  - symbol: Li # 9
    coordinates: [  0.907054215784867,  0.174766159240058,  0.784702218387942 ]
    mass: 6.940000
    reduced_to: 1
  - symbol: Li # 10
    coordinates: [  0.240387549118200,  0.674766159240058,  0.784702218387942 ]
    mass: 6.940000
    reduced_to: 1
  - symbol: Li # 11
    coordinates: [  0.573720882451533,  0.674766159240058,  0.784702218387942 ]
    mass: 6.940000
    reduced_to: 1
  - symbol: Li # 12
    coordinates: [  0.907054215784867,  0.674766159240058,  0.784702218387942 ]
    mass: 6.940000
    reduced_to: 1
  - symbol: Li # 13
    coordinates: [  0.130178508115462,  0.347694369134221,  0.442530850231601 ]
    mass: 6.940000
    reduced_to: 13
  - symbol: Li # 14
    coordinates: [  0.463511841448795,  0.347694369134221,  0.442530850231601 ]
    mass: 6.940000
    reduced_to: 13
  - symbol: Li # 15
    coordinates: [  0.796845174782128,  0.347694369134221,  0.442530850231601 ]
    mass: 6.940000
    reduced_to: 13
  - symbol: Li # 16
    coordinates: [  0.130178508115462,  0.847694369134221,  0.442530850231601 ]
    mass: 6.940000
    reduced_to: 13
  - symbol: Li # 17
    coordinates: [  0.463511841448795,  0.847694369134221,  0.442530850231601 ]
    mass: 6.940000
    reduced_to: 13
  - symbol: Li # 18
    coordinates: [  0.796845174782128,  0.847694369134221,  0.442530850231601 ]
    mass: 6.940000
    reduced_to: 13
  - symbol: Li # 19
    coordinates: [  0.130178508115462,  0.347694369134221,  0.942530850231601 ]
    mass: 6.940000
    reduced_to: 13
  - symbol: Li # 20
    coordinates: [  0.463511841448795,  0.347694369134221,  0.942530850231601 ]
    mass: 6.940000
    reduced_to: 13
  - symbol: Li # 21
    coordinates: [  0.796845174782128,  0.347694369134221,  0.942530850231601 ]
    mass: 6.940000
    reduced_to: 13
  - symbol: Li # 22
    coordinates: [  0.130178508115462,  0.847694369134221,  0.942530850231601 ]
    mass: 6.940000
    reduced_to: 13
  - symbol: Li # 23
    coordinates: [  0.463511841448795,  0.847694369134221,  0.942530850231601 ]
    mass: 6.940000
    reduced_to: 13
  - symbol: Li # 24
    coordinates: [  0.796845174782128,  0.847694369134221,  0.942530850231601 ]
    mass: 6.940000
    reduced_to: 13
  - symbol: Li # 25
    coordinates: [  0.019763487266239,  0.020865735497978,  0.101128193210474 ]
    mass: 6.940000
    reduced_to: 25
  - symbol: Li # 26
    coordinates: [  0.353096820599572,  0.020865735497978,  0.101128193210474 ]
    mass: 6.940000
    reduced_to: 25
  - symbol: Li # 27
    coordinates: [  0.686430153932905,  0.020865735497978,  0.101128193210474 ]
    mass: 6.940000
    reduced_to: 25
  - symbol: Li # 28
    coordinates: [  0.019763487266239,  0.520865735497978,  0.101128193210474 ]
    mass: 6.940000
    reduced_to: 25
  - symbol: Li # 29
    coordinates: [  0.353096820599572,  0.520865735497978,  0.101128193210474 ]
    mass: 6.940000
    reduced_to: 25
  - symbol: Li # 30
    coordinates: [  0.686430153932905,  0.520865735497978,  0.101128193210474 ]
    mass: 6.940000
    reduced_to: 25
  - symbol: Li # 31
    coordinates: [  0.019763487266239,  0.020865735497978,  0.601128193210474 ]
    mass: 6.940000
    reduced_to: 25
  - symbol: Li # 32
    coordinates: [  0.353096820599572,  0.020865735497978,  0.601128193210474 ]
    mass: 6.940000
    reduced_to: 25
  - symbol: Li # 33
    coordinates: [  0.686430153932905,  0.020865735497978,  0.601128193210474 ]
    mass: 6.940000
    reduced_to: 25
  - symbol: Li # 34
    coordinates: [  0.019763487266239,  0.520865735497978,  0.601128193210474 ]
    mass: 6.940000
    reduced_to: 25
  - symbol: Li # 35
    coordinates: [  0.353096820599572,  0.520865735497978,  0.601128193210474 ]
    mass: 6.940000
    reduced_to: 25
  - symbol: Li # 36
    coordinates: [  0.686430153932905,  0.520865735497978,  0.601128193210474 ]
    mass: 6.940000
    reduced_to: 25
  - symbol: Ga # 37
    coordinates: [  0.027862591061798,  0.158985814845810,  0.438135802250842 ]
    mass: 69.723000
    reduced_to: 37
  - symbol: Ga # 38
    coordinates: [  0.361195924395131,  0.158985814845810,  0.438135802250842 ]
    mass: 69.723000
    reduced_to: 37
  - symbol: Ga # 39
    coordinates: [  0.694529257728465,  0.158985814845810,  0.438135802250842 ]
    mass: 69.723000
    reduced_to: 37
  - symbol: Ga # 40
    coordinates: [  0.027862591061798,  0.658985814845810,  0.438135802250842 ]
    mass: 69.723000
    reduced_to: 37
  - symbol: Ga # 41
    coordinates: [  0.361195924395131,  0.658985814845810,  0.438135802250842 ]
    mass: 69.723000
    reduced_to: 37
  - symbol: Ga # 42
    coordinates: [  0.694529257728465,  0.658985814845810,  0.438135802250842 ]
    mass: 69.723000
    reduced_to: 37
  - symbol: Ga # 43
    coordinates: [  0.027862591061798,  0.158985814845810,  0.938135802250842 ]
    mass: 69.723000
    reduced_to: 37
  - symbol: Ga # 44
    coordinates: [  0.361195924395131,  0.158985814845810,  0.938135802250842 ]
    mass: 69.723000
    reduced_to: 37
  - symbol: Ga # 45
    coordinates: [  0.694529257728465,  0.158985814845810,  0.938135802250842 ]
    mass: 69.723000
    reduced_to: 37
  - symbol: Ga # 46
    coordinates: [  0.027862591061798,  0.658985814845810,  0.938135802250842 ]
    mass: 69.723000
    reduced_to: 37
  - symbol: Ga # 47
    coordinates: [  0.361195924395131,  0.658985814845810,  0.938135802250842 ]
    mass: 69.723000
    reduced_to: 37
  - symbol: Ga # 48
    coordinates: [  0.694529257728465,  0.658985814845810,  0.938135802250842 ]
    mass: 69.723000
    reduced_to: 37
  - symbol: Ga # 49
    coordinates: [  0.097922972540868,  0.222013765866832,  0.164879969071617 ]
    mass: 69.723000
    reduced_to: 49
  - symbol: Ga # 50
    coordinates: [  0.431256305874202,  0.222013765866832,  0.164879969071617 ]
    mass: 69.723000
    reduced_to: 49
  - symbol: Ga # 51
    coordinates: [  0.764589639207535,  0.222013765866832,  0.164879969071617 ]
    mass: 69.723000
    reduced_to: 49
  - symbol: Ga # 52
    coordinates: [  0.097922972540868,  0.722013765866832,  0.164879969071617 ]
    mass: 69.723000
    reduced_to: 49
  - symbol: Ga # 53
    coordinates: [  0.431256305874202,  0.722013765866832,  0.164879969071617 ]
    mass: 69.723000
    reduced_to: 49
  - symbol: Ga # 54
    coordinates: [  0.764589639207535,  0.722013765866832,  0.164879969071617 ]
    mass: 69.723000
    reduced_to: 49
  - symbol: Ga # 55
    coordinates: [  0.097922972540868,  0.222013765866832,  0.664879969071617 ]
    mass: 69.723000
    reduced_to: 49
  - symbol: Ga # 56
    coordinates: [  0.431256305874202,  0.222013765866832,  0.664879969071617 ]
    mass: 69.723000
    reduced_to: 49
  - symbol: Ga # 57
    coordinates: [  0.764589639207535,  0.222013765866832,  0.664879969071617 ]
    mass: 69.723000
    reduced_to: 49
  - symbol: Ga # 58
    coordinates: [  0.097922972540868,  0.722013765866832,  0.664879969071617 ]
    mass: 69.723000
    reduced_to: 49
  - symbol: Ga # 59
    coordinates: [  0.431256305874202,  0.722013765866832,  0.664879969071617 ]
    mass: 69.723000
    reduced_to: 49
  - symbol: Ga # 60
    coordinates: [  0.764589639207535,  0.722013765866832,  0.664879969071617 ]
    mass: 69.723000
    reduced_to: 49
  - symbol: Ga # 61
    coordinates: [  0.162244293782448,  0.473733586011859,  0.220545977813419 ]
    mass: 69.723000
    reduced_to: 61
  - symbol: Ga # 62
    coordinates: [  0.495577627115782,  0.473733586011859,  0.220545977813419 ]
    mass: 69.723000
    reduced_to: 61
  - symbol: Ga # 63
    coordinates: [  0.828910960449115,  0.473733586011859,  0.220545977813419 ]
    mass: 69.723000
    reduced_to: 61
  - symbol: Ga # 64
    coordinates: [  0.162244293782448,  0.973733586011859,  0.220545977813419 ]
    mass: 69.723000
    reduced_to: 61
  - symbol: Ga # 65
    coordinates: [  0.495577627115782,  0.973733586011859,  0.220545977813419 ]
    mass: 69.723000
    reduced_to: 61
  - symbol: Ga # 66
    coordinates: [  0.828910960449115,  0.973733586011859,  0.220545977813419 ]
    mass: 69.723000
    reduced_to: 61
  - symbol: Ga # 67
    coordinates: [  0.162244293782448,  0.473733586011859,  0.720545977813419 ]
    mass: 69.723000
    reduced_to: 61
  - symbol: Ga # 68
    coordinates: [  0.495577627115782,  0.473733586011859,  0.720545977813419 ]
    mass: 69.723000
    reduced_to: 61
  - symbol: Ga # 69
    coordinates: [  0.828910960449115,  0.473733586011859,  0.720545977813419 ]
    mass: 69.723000
    reduced_to: 61
  - symbol: Ga # 70
    coordinates: [  0.162244293782448,  0.973733586011859,  0.720545977813419 ]
    mass: 69.723000
    reduced_to: 61
  - symbol: Ga # 71
    coordinates: [  0.495577627115782,  0.973733586011859,  0.720545977813419 ]
    mass: 69.723000
    reduced_to: 61
  - symbol: Ga # 72
    coordinates: [  0.828910960449115,  0.973733586011859,  0.720545977813419 ]
    mass: 69.723000
    reduced_to: 61
  - symbol: Ga # 73
    coordinates: [  0.232257683351112,  0.036585709745071,  0.447317532047284 ]
    mass: 69.723000
    reduced_to: 73
  - symbol: Ga # 74
    coordinates: [  0.565591016684446,  0.036585709745071,  0.447317532047284 ]
    mass: 69.723000
    reduced_to: 73
  - symbol: Ga # 75
    coordinates: [  0.898924350017779,  0.036585709745071,  0.447317532047284 ]
    mass: 69.723000
    reduced_to: 73
  - symbol: Ga # 76
    coordinates: [  0.232257683351112,  0.536585709745071,  0.447317532047284 ]
    mass: 69.723000
    reduced_to: 73
  - symbol: Ga # 77
    coordinates: [  0.565591016684446,  0.536585709745071,  0.447317532047284 ]
    mass: 69.723000
    reduced_to: 73
  - symbol: Ga # 78
    coordinates: [  0.898924350017779,  0.536585709745071,  0.447317532047284 ]
    mass: 69.723000
    reduced_to: 73
  - symbol: Ga # 79
    coordinates: [  0.232257683351112,  0.036585709745071,  0.947317532047284 ]
    mass: 69.723000
    reduced_to: 73
  - symbol: Ga # 80
    coordinates: [  0.565591016684446,  0.036585709745071,  0.947317532047284 ]
    mass: 69.723000
    reduced_to: 73
  - symbol: Ga # 81
    coordinates: [  0.898924350017779,  0.036585709745071,  0.947317532047284 ]
    mass: 69.723000
    reduced_to: 73
  - symbol: Ga # 82
    coordinates: [  0.232257683351112,  0.536585709745071,  0.947317532047284 ]
    mass: 69.723000
    reduced_to: 73
  - symbol: Ga # 83
    coordinates: [  0.565591016684446,  0.536585709745071,  0.947317532047284 ]
    mass: 69.723000
    reduced_to: 73
  - symbol: Ga # 84
    coordinates: [  0.898924350017779,  0.536585709745071,  0.947317532047284 ]
    mass: 69.723000
    reduced_to: 73
  - symbol: Sn # 85
    coordinates: [  0.261274660510876,  0.321069056885927,  0.075887458863156 ]
    mass: 118.710000
    reduced_to: 85
  - symbol: Sn # 86
    coordinates: [  0.594607993844210,  0.321069056885927,  0.075887458863156 ]
    mass: 118.710000
    reduced_to: 85
  - symbol: Sn # 87
    coordinates: [  0.927941327177543,  0.321069056885927,  0.075887458863156 ]
    mass: 118.710000
    reduced_to: 85
  - symbol: Sn # 88
    coordinates: [  0.261274660510876,  0.821069056885927,  0.075887458863156 ]
    mass: 118.710000
    reduced_to: 85
  - symbol: Sn # 89
    coordinates: [  0.594607993844210,  0.821069056885927,  0.075887458863156 ]
    mass: 118.710000
    reduced_to: 85
  - symbol: Sn # 90
    coordinates: [  0.927941327177543,  0.821069056885927,  0.075887458863156 ]
    mass: 118.710000
    reduced_to: 85
  - symbol: Sn # 91
    coordinates: [  0.261274660510876,  0.321069056885927,  0.575887458863156 ]
    mass: 118.710000
    reduced_to: 85
  - symbol: Sn # 92
    coordinates: [  0.594607993844210,  0.321069056885927,  0.575887458863156 ]
    mass: 118.710000
    reduced_to: 85
  - symbol: Sn # 93
    coordinates: [  0.927941327177543,  0.321069056885927,  0.575887458863156 ]
    mass: 118.710000
    reduced_to: 85
  - symbol: Sn # 94
    coordinates: [  0.261274660510876,  0.821069056885927,  0.575887458863156 ]
    mass: 118.710000
    reduced_to: 85
  - symbol: Sn # 95
    coordinates: [  0.594607993844210,  0.821069056885927,  0.575887458863156 ]
    mass: 118.710000
    reduced_to: 85
  - symbol: Sn # 96
    coordinates: [  0.927941327177543,  0.821069056885927,  0.575887458863156 ]
    mass: 118.710000
    reduced_to: 85
  - symbol: Sn # 97
    coordinates: [  0.332387459814238,  0.374544909723564,  0.309426102549261 ]
    mass: 118.710000
    reduced_to: 97
  - symbol: Sn # 98
    coordinates: [  0.665720793147571,  0.374544909723564,  0.309426102549261 ]
    mass: 118.710000
    reduced_to: 97
  - symbol: Sn # 99
    coordinates: [  0.999054126480905,  0.374544909723564,  0.309426102549261 ]
    mass: 118.710000
    reduced_to: 97
  - symbol: Sn # 100
    coordinates: [  0.332387459814238,  0.874544909723564,  0.309426102549261 ]
    mass: 118.710000
    reduced_to: 97
  - symbol: Sn # 101
    coordinates: [  0.665720793147571,  0.874544909723564,  0.309426102549261 ]
    mass: 118.710000
    reduced_to: 97
  - symbol: Sn # 102
    coordinates: [  0.999054126480905,  0.874544909723564,  0.309426102549261 ]
    mass: 118.710000
    reduced_to: 97
  - symbol: Sn # 103
    coordinates: [  0.332387459814238,  0.374544909723564,  0.809426102549261 ]
    mass: 118.710000
    reduced_to: 97
  - symbol: Sn # 104
    coordinates: [  0.665720793147571,  0.374544909723564,  0.809426102549261 ]
    mass: 118.710000
    reduced_to: 97
  - symbol: Sn # 105
    coordinates: [  0.999054126480905,  0.374544909723564,  0.809426102549261 ]
    mass: 118.710000
    reduced_to: 97
  - symbol: Sn # 106
    coordinates: [  0.332387459814238,  0.874544909723564,  0.809426102549261 ]
    mass: 118.710000
    reduced_to: 97
  - symbol: Sn # 107
    coordinates: [  0.665720793147571,  0.874544909723564,  0.809426102549261 ]
    mass: 118.710000
    reduced_to: 97
  - symbol: Sn # 108
    coordinates: [  0.999054126480905,  0.874544909723564,  0.809426102549261 ]
    mass: 118.710000
    reduced_to: 97

displacements:
- atom:    1
  displacement:
    [   0.0100000000000000,  0.0000000000000000,  0.0000000000000000 ]
  forces:
  - [  -0.0067288246937096, -0.0350329428911209,  0.0452638342976570 ]
  - [   0.0009615374729037, -0.0351315923035145,  0.0450944714248180 ]
  - [   0.0009454807732254, -0.0348418802022934,  0.0453682541847229 ]
  - [   0.0005552396178246, -0.0351067483425140,  0.0452847704291344 ]
  - [   0.0005224905908108, -0.0351160056889057,  0.0452506467700005 ]
  - [   0.0005205825436860, -0.0347402021288872,  0.0451539829373360 ]
  - [   0.0005296786548570, -0.0349875986576080,  0.0452199727296829 ]
  - [   0.0005267723463476, -0.0349858328700066,  0.0452335067093372 ]
  - [   0.0005263197817840, -0.0349839404225349,  0.0452380515635014 ]
  - [   0.0005279453471303, -0.0349868163466454,  0.0452318564057350 ]
  - [   0.0005267588421702, -0.0349876508116722,  0.0452267304062843 ]
  - [   0.0005266778171062, -0.0349879711866379,  0.0452296286821365 ]
  - [   0.0001054275780916,  0.0020815774332732,  0.0026442268863320 ]
  - [   0.0002554166130722,  0.0020727633964270,  0.0026918102521449 ]
  - [   0.0002527325414121,  0.0020965435542166,  0.0026031723245978 ]
  - [   0.0003865286707878,  0.0020816838368773,  0.0026694852858782 ]
  - [   0.0003876937553287,  0.0020420972723514,  0.0026288311928511 ]
  - [   0.0003379627887625,  0.0021243419032544,  0.0026533287018538 ]
  - [   0.0002443334087729,  0.0020744339562953,  0.0026673376560211 ]
  - [   0.0002438127994537,  0.0020953386556357,  0.0026306528598070 ]
  - [   0.0004475347814150,  0.0020845597609878,  0.0026460606604815 ]
  - [   0.0003159195184708,  0.0020776451565325,  0.0026269222144037 ]
  - [   0.0003359490074217,  0.0020841639488935,  0.0026512122713029 ]
  - [   0.0003120806068182,  0.0020943619310856,  0.0026653397362679 ]
  - [  -0.0011258714366704,  0.0348811075091362, -0.0521192476153374 ]
  - [  -0.0009378904942423,  0.0348546057939529, -0.0519186928868294 ]
  - [  -0.0011266426881775,  0.0348439738154411, -0.0517301112413406 ]
  - [  -0.0009737107902765,  0.0349844470620155, -0.0521484799683094 ]
  - [  -0.0009813808137551,  0.0347074791789055, -0.0517039373517036 ]
  - [  -0.0007438512984663,  0.0348835960030556, -0.0519174337387085 ]
  - [  -0.0008544742013328,  0.0348398461937904, -0.0519076436758041 ]
  - [  -0.0008541576098651,  0.0348791368305683, -0.0519414693117142 ]
  - [  -0.0008804075187072,  0.0348570495843887, -0.0519262924790382 ]
  - [  -0.0007733179954812,  0.0348619967699051, -0.0519261769950390 ]
  - [  -0.0009074442787096,  0.0348402857780457, -0.0519545301795006 ]
  - [  -0.0008949265466072,  0.0348776876926422, -0.0518932342529297 ]
  - [   0.0008165600011125, -0.0243798717856407, -0.0235810726881027 ]
  - [   0.0008300652843900, -0.0251115188002586, -0.0229161921888590 ]
  - [   0.0003742314584088, -0.0247436538338661, -0.0232542343437672 ]
  - [   0.0006723580299877, -0.0247283279895782, -0.0232619382441044 ]
  - [   0.0003827150503639, -0.0248277485370636, -0.0232639275491238 ]
  - [   0.0002994044043589, -0.0246808305382729, -0.0232297778129578 ]
  - [   0.0003958443703596, -0.0247183889150620, -0.0232402160763741 ]
  - [   0.0004448375257198, -0.0247446745634079, -0.0232515633106232 ]
  - [   0.0004001820052508, -0.0247746407985687, -0.0232682209461927 ]
  - [   0.0004299013526179, -0.0247365832328796, -0.0232473760843277 ]
  - [   0.0004172387125436, -0.0247240811586380, -0.0232333242893219 ]
  - [   0.0003981718618888, -0.0247699692845345, -0.0232824832201004 ]
  - [   0.0040096109732985,  0.1364437639713287,  0.0674658939242363 ]
  - [   0.0040618758648634,  0.1363977789878845,  0.0626552999019623 ]
  - [   0.0016097961924970,  0.1364124864339828,  0.0650822594761848 ]
  - [   0.0019983164966106,  0.1366681754589081,  0.0651356950402260 ]
  - [   0.0014850127045065,  0.1363262683153152,  0.0651403889060020 ]
  - [   0.0017589840572327,  0.1362486928701401,  0.0649775415658951 ]
  - [   0.0015256355982274,  0.1364111453294754,  0.0650843083858490 ]
  - [   0.0015410513151437,  0.1364024430513382,  0.0650919526815414 ]
  - [   0.0015405523590744,  0.1364222317934036,  0.0650755539536476 ]
  - [   0.0015465721953660,  0.1364390254020691,  0.0651032775640488 ]
  - [   0.0015422119759023,  0.1363998353481293,  0.0650923550128937 ]
  - [   0.0015272104647011,  0.1363967508077621,  0.0650555565953255 ]
  - [   0.0004871062410530, -0.1380923986434937, -0.0655318647623062 ]
  - [   0.0024993005208671, -0.1383578628301620, -0.0655706673860550 ]
  - [   0.0025024525821209, -0.1378440856933594, -0.0654785484075546 ]
  - [   0.0031950683332980, -0.1380436271429062, -0.0654511228203773 ]
  - [   0.0032010199502110, -0.1381341218948364, -0.0656109973788261 ]
  - [   0.0025465716607869, -0.1381045877933502, -0.0655301064252853 ]
  - [   0.0025972567964345, -0.1380828320980072, -0.0655095428228378 ]
  - [   0.0025965494569391, -0.1380943953990936, -0.0655277967453003 ]
  - [   0.0025965110398829, -0.1380997598171234, -0.0655488818883896 ]
  - [   0.0025832913815975, -0.1380895674228668, -0.0655283927917480 ]
  - [   0.0026000775396824, -0.1380882412195206, -0.0655303299427032 ]
  - [   0.0026049939915538, -0.1381001174449921, -0.0655328333377838 ]
  - [  -0.0000029019356589,  0.0227028727531433,  0.0245684012770653 ]
  - [   0.0000316406949423,  0.0228818207979202,  0.0244332589209080 ]
  - [   0.0000312348129228,  0.0224958583712578,  0.0247307308018208 ]
  - [   0.0003626867546700,  0.0228268057107925,  0.0248150341212749 ]
  - [   0.0005261735059321,  0.0226767882704735,  0.0245841778814793 ]
  - [   0.0003655331092887,  0.0225754454731941,  0.0243416484445333 ]
  - [   0.0004634968936443,  0.0226230770349503,  0.0245213769376278 ]
  - [   0.0004624532011803,  0.0227545425295830,  0.0246426723897457 ]
  - [   0.0004582066903822,  0.0226938650012016,  0.0245770215988159 ]
  - [   0.0004827642114833,  0.0226943492889404,  0.0245847124606371 ]
  - [   0.0004601548425853,  0.0227296203374863,  0.0245232209563255 ]
  - [   0.0004490648279898,  0.0226530879735947,  0.0246305316686630 ]
  - [  -0.0007965422701091,  0.0737300813198090, -0.0276256091892719 ]
  - [  -0.0017972862115130,  0.0734046027064323, -0.0269557349383831 ]
  - [  -0.0017886897549033,  0.0740378573536873, -0.0283017344772816 ]
  - [  -0.0011326804524288,  0.0733670741319656, -0.0279678981751204 ]
  - [  -0.0011150490026921,  0.0741087272763252, -0.0273077748715878 ]
  - [  -0.0010123350657523,  0.0737071335315704, -0.0276204477995634 ]
  - [  -0.0011165020987391,  0.0735918655991554, -0.0281561333686113 ]
  - [  -0.0009716898202896,  0.0737248659133911, -0.0276309326291084 ]
  - [  -0.0011138357222080,  0.0738628357648849, -0.0271101687103510 ]
  - [  -0.0009430246427655,  0.0737549215555191, -0.0276128370314837 ]
  - [  -0.0010213609784842,  0.0737355127930641, -0.0276572629809380 ]
  - [  -0.0010675275698304,  0.0736961960792542, -0.0276297312229872 ]
  - [  -0.0005679316818714, -0.0684727579355240,  0.0314793288707733 ]
  - [  -0.0042981244623661, -0.0719609558582306,  0.0307978205382824 ]
  - [  -0.0006022353190929, -0.0753751471638680,  0.0301123261451721 ]
  - [  -0.0047538056969643, -0.0718981772661209,  0.0307797491550446 ]
  - [  -0.0043055764399469, -0.0717821419239044,  0.0305212941020727 ]
  - [  -0.0043885987251997, -0.0721623152494431,  0.0310810618102551 ]
  - [  -0.0039791092276573, -0.0719493478536606,  0.0308001376688480 ]
  - [  -0.0039651580154896, -0.0719477757811546,  0.0307933334261179 ]
  - [  -0.0039710085839033, -0.0719573721289635,  0.0307977981865406 ]
  - [  -0.0039740316569805, -0.0719484835863113,  0.0308089386671782 ]
  - [  -0.0039616697467864, -0.0719546750187874,  0.0307931900024414 ]
  - [  -0.0039772167801857, -0.0719486698508263,  0.0307930130511522 ]
- atom:    1
  displacement:
    [  -0.0100000000000000,  0.0000000000000000,  0.0000000000000000 ]
  forces:
  - [   0.0077851270325482, -0.0350642651319504,  0.0452659279108047 ]
  - [   0.0001083329552785, -0.0348428525030613,  0.0453696027398109 ]
  - [   0.0000925087952055, -0.0351314768195152,  0.0450956076383591 ]
  - [   0.0004997570067644, -0.0348752439022064,  0.0451749414205551 ]
  - [   0.0005330778658390, -0.0348599962890148,  0.0452090762555599 ]
  - [   0.0005312685389072, -0.0352369323372841,  0.0453049838542938 ]
  - [   0.0005263271741569, -0.0349834933876991,  0.0452414527535439 ]
  - [   0.0005283199134283, -0.0349860303103924,  0.0452277176082134 ]
  - [   0.0005283580394462, -0.0349878557026386,  0.0452229566872120 ]
  - [   0.0005268463864923, -0.0349897034466267,  0.0452264733612537 ]
  - [   0.0005270689725876, -0.0349856652319431,  0.0452324450016022 ]
  - [   0.0005272869020700, -0.0349869653582573,  0.0452287383377552 ]
  - [   0.0005394625477493,  0.0020809159614146,  0.0026371104177088 ]
  - [   0.0003901710733771,  0.0020964071154594,  0.0026043336838484 ]
  - [   0.0003888518549502,  0.0020727065857500,  0.0026924056001008 ]
  - [   0.0002520112320781,  0.0020819832570851,  0.0026329997926950 ]
  - [   0.0002599684521556,  0.0021215190645307,  0.0026720631867647 ]
  - [   0.0003059239825234,  0.0020440777298063,  0.0026447065174580 ]
  - [   0.0003993930295110,  0.0020943265408278,  0.0026283767074347 ]
  - [   0.0003987411037087,  0.0020746225491166,  0.0026661027222872 ]
  - [   0.0001985973940464,  0.0020856808405370,  0.0026474520564079 ]
  - [   0.0003280574455857,  0.0020922794938087,  0.0026681018061936 ]
  - [   0.0003059394657612,  0.0020873052999377,  0.0026448841672391 ]
  - [   0.0003322381526232,  0.0020766167435795,  0.0026307119987905 ]
  - [  -0.0005831039743498,  0.0348392128944397, -0.0517284050583839 ]
  - [  -0.0007760188891552,  0.0348617397248745, -0.0519275926053524 ]
  - [  -0.0005861140089110,  0.0348746962845325, -0.0521141514182091 ]
  - [  -0.0007411196129397,  0.0347311682999134, -0.0516967140138149 ]
  - [  -0.0007301855366677,  0.0350078120827675, -0.0521390587091446 ]
  - [  -0.0009672635351308,  0.0348361209034920, -0.0519313365221024 ]
  - [  -0.0008588643395342,  0.0348781235516071, -0.0519418492913246 ]
  - [  -0.0008584320894442,  0.0348374955356121, -0.0519059225916862 ]
  - [  -0.0008326006354764,  0.0348596833646297, -0.0519238412380219 ]
  - [  -0.0009399308473803,  0.0348577797412872, -0.0519234389066696 ]
  - [  -0.0008060525869951,  0.0348803885281086, -0.0518957860767841 ]
  - [  -0.0008183295140043,  0.0348417311906815, -0.0519557334482670 ]
  - [  -0.0000003298628144, -0.0251118168234825, -0.0229170247912407 ]
  - [   0.0000069891102612, -0.0243777260184288, -0.0235851630568504 ]
  - [   0.0004592255281750, -0.0247460603713989, -0.0232525188475847 ]
  - [   0.0001636597007746, -0.0247641205787659, -0.0232402347028255 ]
  - [   0.0004448019026313, -0.0246611014008522, -0.0232429988682270 ]
  - [   0.0005317271570675, -0.0248125791549683, -0.0232732221484184 ]
  - [   0.0004267774638720, -0.0247730687260628, -0.0232677944004536 ]
  - [   0.0003766334557440, -0.0247466713190079, -0.0232565533369780 ]
  - [   0.0004314590187278, -0.0247187912464142, -0.0232380107045174 ]