# Thermal properties / unit cell (natom)

unit:
  temperature:   K
  free_energy:   kJ/mol
  entropy:       J/K/mol
  heat_capacity: J/K/mol

natom: 6    
cutoff_frequency: 0.00000
num_modes: 199962
num_integrated_modes: 199961

zero_point_energy:      15.9524995

thermal_properties:
- temperature:         0.0000000
  free_energy:        15.9524995
  entropy:             0.0000000
  heat_capacity:       0.0000000
  energy:             15.9524995

- temperature:        10.0000000
  free_energy:        15.9493851
  entropy:             1.3401586
  heat_capacity:       4.5898300
  energy:             15.9627867

- temperature:        20.0000000
  free_energy:        15.8967159
  entropy:            10.6657948
  heat_capacity:      26.5721964
  energy:             16.1100318

- temperature:        30.0000000
  free_energy:        15.7162904
  entropy:            25.9314643
  heat_capacity:      49.2565386
  energy:             16.4942343

- temperature:        40.0000000
  free_energy:        15.3743549
  entropy:            42.4231417
  heat_capacity:      65.0463216
  energy:             17.0712806

- temperature:        50.0000000
  free_energy:        14.8705734
  entropy:            58.1386059
  heat_capacity:      75.5383950
  energy:             17.7775037

- temperature:        60.0000000
  free_energy:        14.2157750
  entropy:            72.6113609
  heat_capacity:      83.1171710
  energy:             18.5724567

- temperature:        70.0000000
  free_energy:        13.4223145
  entropy:            85.8966524
  heat_capacity:      89.2402193
  energy:             19.4350802

- temperature:        80.0000000
  free_energy:        12.5012154
  entropy:            98.1693403
  heat_capacity:      94.6003719
  energy:             20.3547626

- temperature:        90.0000000
  free_energy:        11.4617399
  entropy:           109.5971006
  heat_capacity:      99.4722049
  energy:             21.3254790

- temperature:       100.0000000
  free_energy:        10.3116446
  entropy:           120.3123812
  heat_capacity:     103.9448987
  energy:             22.3428827

- temperature:       110.0000000
  free_energy:         9.0575335
  entropy:           130.4144739
  heat_capacity:     108.0418466
  energy:             23.4031256

- temperature:       120.0000000
  free_energy:         7.7051488
  entropy:           139.9778963
  heat_capacity:     111.7719680
  energy:             24.5024963

- temperature:       130.0000000
  free_energy:         6.2595786
  entropy:           149.0600255
  heat_capacity:     115.1474134
  energy:             25.6373819

- temperature:       140.0000000
  free_energy:         4.7253992
  entropy:           157.7066110
  heat_capacity:     118.1870854
  energy:             26.8043248

- temperature:       150.0000000
  free_energy:         3.1067717
  entropy:           165.9554214
  heat_capacity:     120.9152294
  energy:             28.0000849

- temperature:       160.0000000
  free_energy:         1.4075092
  entropy:           173.8385755
  heat_capacity:     123.3589694
  energy:             29.2216813

- temperature:       170.0000000
  free_energy:        -0.3688745
  entropy:           181.3840217
  heat_capacity:     125.5461589
  energy:             30.4664092

- temperature:       180.0000000
  free_energy:        -2.2191283
  entropy:           188.6164888
  heat_capacity:     127.5038746
  energy:             31.7318397

- temperature:       190.0000000
  free_energy:        -4.1402350
  entropy:           195.5581141
  heat_capacity:     129.2575052
  energy:             33.0158067

- temperature:       200.0000000
  free_energy:        -6.1293879
  entropy:           202.2288756
  heat_capacity:     130.8302849
  energy:             34.3163873

- temperature:       210.0000000
  free_energy:        -8.1839703
  entropy:           208.6469036
  heat_capacity:     132.2431293
  energy:             35.6318795

- temperature:       220.0000000
  free_energy:       -10.3015387
  entropy:           214.8287170
  heat_capacity:     133.5146566
  energy:             36.9607790

- temperature:       230.0000000
  free_energy:       -12.4798077
  entropy:           220.7894100
  heat_capacity:     134.6613159
  energy:             38.3017566

- temperature:       240.0000000
  free_energy:       -14.7166361
  entropy:           226.5428066
  heat_capacity:     135.6975686
  energy:             39.6536375

- temperature:       250.0000000
  free_energy:       -17.0100152
  entropy:           232.1015905
  heat_capacity:     136.6360908
  energy:             41.0153824

- temperature:       260.0000000
  free_energy:       -19.3580581
  entropy:           237.4774185
  heat_capacity:     137.4879753
  energy:             42.3860707

- temperature:       270.0000000
  free_energy:       -21.7589896
  entropy:           242.6810192
  heat_capacity:     138.2629235
  energy:             43.7648856

- temperature:       280.0000000
  free_energy:       -24.2111374
  entropy:           247.7222806
  heat_capacity:     138.9694212
  energy:             45.1511011

- temperature:       290.0000000
  free_energy:       -26.7129246
  entropy:           252.6103285
  heat_capacity:     139.6148960
  energy:             46.5440707

- temperature:       300.0000000
  free_energy:       -29.2628615
  entropy:           257.3535963
  heat_capacity:     140.2058562
  energy:             47.9432174

- temperature:       310.0000000
  free_energy:       -31.8595400
  entropy:           261.9598877
  heat_capacity:     140.7480132
  energy:             49.3480252

- temperature:       320.0000000
  free_energy:       -34.5016268
  entropy:           266.4364332
  heat_capacity:     141.2463868
  energy:             50.7580318

- temperature:       330.0000000
  free_energy:       -37.1878585
  entropy:           270.7899405
  heat_capacity:     141.7053970
  energy:             52.1728218

- temperature:       340.0000000
  free_energy:       -39.9170363
  entropy:           275.0266409
  heat_capacity:     142.1289431
  energy:             53.5920216

- temperature:       350.0000000
  free_energy:       -42.6880214
  entropy:           279.1523296
  heat_capacity:     142.5204716
  energy:             55.0152940

- temperature:       360.0000000
  free_energy:       -45.4997309
  entropy:           283.1724039
  heat_capacity:     142.8830355
  energy:             56.4423345

- temperature:       370.0000000
  free_energy:       -48.3511342
  entropy:           287.0918958
  heat_capacity:     143.2193439
  energy:             57.8728672

- temperature:       380.0000000
  free_energy:       -51.2412492
  entropy:           290.9155030
  heat_capacity:     143.5318063
  energy:             59.3066419

- temperature:       390.0000000
  free_energy:       -54.1691393
  entropy:           294.6476163
  heat_capacity:     143.8225700
  energy:             60.7434310

- temperature:       400.0000000
  free_energy:       -57.1339103
  entropy:           298.2923443
  heat_capacity:     144.0935522
  energy:             62.1830274

- temperature:       410.0000000
  free_energy:       -60.1347078
  entropy:           301.8535358
  heat_capacity:     144.3464683
  energy:             63.6252419

- temperature:       420.0000000
  free_energy:       -63.1707146
  entropy:           305.3348007
  heat_capacity:     144.5828561
  energy:             65.0699017

- temperature:       430.0000000
  free_energy:       -66.2411487
  entropy:           308.7395285
  heat_capacity:     144.8040968
  energy:             66.5168485

- temperature:       440.0000000
  free_energy:       -69.3452607
  entropy:           312.0709045
  heat_capacity:     145.0114332
  energy:             67.9659373

- temperature:       450.0000000
  free_energy:       -72.4823323
  entropy:           315.3319264
  heat_capacity:     145.2059859
  energy:             69.4170346

- temperature:       460.0000000
  free_energy:       -75.6516742
  entropy:           318.5254172
  heat_capacity:     145.3887669
  energy:             70.8700178

- temperature:       470.0000000
  free_energy:       -78.8526244
  entropy:           321.6540387
  heat_capacity:     145.5606918
  energy:             72.3247738

- temperature:       480.0000000
  free_energy:       -82.0845471
  entropy:           324.7203027
  heat_capacity:     145.7225902
  energy:             73.7811982

- temperature:       490.0000000
  free_energy:       -85.3468305
  entropy:           327.7265821
  heat_capacity:     145.8752156
  energy:             75.2391947

- temperature:       500.0000000
  free_energy:       -88.6388863
  entropy:           330.6751203
  heat_capacity:     146.0192528
  energy:             76.6986739

- temperature:       510.0000000
  free_energy:       -91.9601476
  entropy:           333.5680407
  heat_capacity:     146.1553256
  energy:             78.1595532

- temperature:       520.0000000
  free_energy:       -95.3100684
  entropy:           336.4073542
  heat_capacity:     146.2840029
  energy:             79.6217558

- temperature:       530.0000000
  free_energy:       -98.6881223
  entropy:           339.1949673
  heat_capacity:     146.4058044
  energy:             81.0852103

- temperature:       540.0000000
  free_energy:      -102.0938015
  entropy:           341.9326888
  heat_capacity:     146.5212056
  energy:             82.5498505

- temperature:       550.0000000
  free_energy:      -105.5266155
  entropy:           344.6222365
  heat_capacity:     146.6306419
  energy:             84.0156146

- temperature:       560.0000000
  free_energy:      -108.9860911
  entropy:           347.2652426
  heat_capacity:     146.7345130
  energy:             85.4824448

- temperature:       570.0000000
  free_energy:      -112.4717704
  entropy:           349.8632595
  heat_capacity:     146.8331859
  energy:             86.9502875

- temperature:       580.0000000
  free_energy:      -115.9832112
  entropy:           352.4177647
  heat_capacity:     146.9269982
  energy:             88.4190923

- temperature:       590.0000000
  free_energy:      -119.5199854
  entropy:           354.9301656
  heat_capacity:     147.0162607
  energy:             89.8888123

- temperature:       600.0000000
  free_energy:      -123.0816787
  entropy:           357.4018033
  heat_capacity:     147.1012603
  energy:             91.3594033

- temperature:       610.0000000
  free_energy:      -126.6678898
  entropy:           359.8339574
  heat_capacity:     147.1822616
  energy:             92.8308242

- temperature:       620.0000000
  free_energy:      -130.2782303
  entropy:           362.2278489
  heat_capacity:     147.2595092
  energy:             94.3030361

- temperature:       630.0000000
  free_energy:      -133.9123232
  entropy:           364.5846441
  heat_capacity:     147.3332295
  energy:             95.7760026

- temperature:       640.0000000
  free_energy:      -137.5698032
  entropy:           366.9054575
  heat_capacity:     147.4036324
  energy:             97.2496896

- temperature:       650.0000000
  free_energy:      -141.2503159
  entropy:           369.1913551
  heat_capacity:     147.4709121
  energy:             98.7240648

- temperature:       660.0000000
  free_energy:      -144.9535173
  entropy:           371.4433566
  heat_capacity:     147.5352495
  energy:            100.1990980

- temperature:       670.0000000
  free_energy:      -148.6790733
  entropy:           373.6624387
  heat_capacity:     147.5968122
  energy:            101.6747606

- temperature:       680.0000000
  free_energy:      -152.4266595
  entropy:           375.8495368
  heat_capacity:     147.6557563
  energy:            103.1510255

- temperature:       690.0000000
  free_energy:      -156.1959605
  entropy:           378.0055477
  heat_capacity:     147.7122273
  energy:            104.6278675

- temperature:       700.0000000
  free_energy:      -159.9866697
  entropy:           380.1313314
  heat_capacity:     147.7663606
  energy:            106.1052623

- temperature:       710.0000000
  free_energy:      -163.7984891
  entropy:           382.2277132
  heat_capacity:     147.8182826
  energy:            107.5831873

- temperature:       720.0000000
  free_energy:      -167.6311286
  entropy:           384.2954855
  heat_capacity:     147.8681114
  energy:            109.0616210

- temperature:       730.0000000
  free_energy:      -171.4843060
  entropy:           386.3354095
  heat_capacity:     147.9159572
  energy:            110.5405429

- temperature:       740.0000000
  free_energy:      -175.3577464
  entropy:           388.3482166
  heat_capacity:     147.9619233
  energy:            112.0199339

- temperature:       750.0000000
  free_energy:      -179.2511823
  entropy:           390.3346103
  heat_capacity:     148.0061062
  energy:            113.4997755

- temperature:       760.0000000
  free_energy:      -183.1643528
  entropy:           392.2952673
  heat_capacity:     148.0485965
  energy:            114.9800503

- temperature:       770.0000000
  free_energy:      -187.0970040
  entropy:           394.2308390
  heat_capacity:     148.0894790
  energy:            116.4607420

- temperature:       780.0000000
  free_energy:      -191.0488881
  entropy:           396.1419524
  heat_capacity:     148.1288334
  energy:            117.9418348

- temperature:       790.0000000
  free_energy:      -195.0197635
  entropy:           398.0292119
  heat_capacity:     148.1667345
  energy:            119.4233138

- temperature:       800.0000000
  free_energy:      -199.0093947
  entropy:           399.8931996
  heat_capacity:     148.2032525
  energy:            120.9051649

- temperature:       810.0000000
  free_energy:      -203.0175518
  entropy:           401.7344770
  heat_capacity:     148.2384538
  energy:            122.3873745

- temperature:       820.0000000
  free_energy:      -207.0440104
  entropy:           403.5535856
  heat_capacity:     148.2724004
  energy:            123.8699298

- temperature:       830.0000000
  free_energy:      -211.0885514
  entropy:           405.3510481
  heat_capacity:     148.3051510
  energy:            125.3528185

- temperature:       840.0000000
  free_energy:      -215.1509609
  entropy:           407.1273689
  heat_capacity:     148.3367609
  energy:            126.8360290

- temperature:       850.0000000
  free_energy:      -219.2310299
  entropy:           408.8830353
  heat_capacity:     148.3672821
  energy:            128.3195501

- temperature:       860.0000000
  free_energy:      -223.3285543
  entropy:           410.6185180
  heat_capacity:     148.3967640
  energy:            129.8033712

- temperature:       870.0000000
  free_energy:      -227.4433345
  entropy:           412.3342720
  heat_capacity:     148.4252529
  energy:            131.2874821

- temperature:       880.0000000
  free_energy:      -231.5751755
  entropy:           414.0307370
  heat_capacity:     148.4527928
  energy:            132.7718731

- temperature:       890.0000000
  free_energy:      -235.7238864
  entropy:           415.7083385
  heat_capacity:     148.4794251
  energy:            134.2565349

- temperature:       900.0000000
  free_energy:      -239.8892807
  entropy:           417.3674882
  heat_capacity:     148.5051891
  energy:            135.7414587

- temperature:       910.0000000
  free_energy:      -244.0711760
  entropy:           419.0085845
  heat_capacity:     148.5301220
  energy:            137.2266359

- temperature:       920.0000000
  free_energy:      -248.2693935
  entropy:           420.6320131
  heat_capacity:     148.5542591
  energy:            138.7120585

- temperature:       930.0000000
  free_energy:      -252.4837586
  entropy:           422.2381475
  heat_capacity:     148.5776338
  energy:            140.1977186

- temperature:       940.0000000
  free_energy:      -256.7141000
  entropy:           423.8273497
  heat_capacity:     148.6002776
  energy:            141.6836087

- temperature:       950.0000000
  free_energy:      -260.9602503
  entropy:           425.3999706
  heat_capacity:     148.6222206
  energy:            143.1697218

- temperature:       960.0000000
  free_energy:      -265.2220453
  entropy:           426.9563502
  heat_capacity:     148.6434913
  energy:            144.6560509

- temperature:       970.0000000
  free_energy:      -269.4993243
  entropy:           428.4968183
  heat_capacity:     148.6641169
  energy:            146.1425895

- temperature:       980.0000000
  free_energy:      -273.7919297
  entropy:           430.0216948
  heat_capacity:     148.6841230
  energy:            147.6293312

- temperature:       990.0000000
  free_energy:      -278.0997072
  entropy:           431.5312901
  heat_capacity:     148.7035342
  energy:            149.1162699

- temperature:      1000.0000000
  free_energy:      -282.4225056
  entropy:           433.0259055
  heat_capacity:     148.7223737
  energy:            150.6033999
