phonopy:
  version: "2.37.1"
  frequency_unit_conversion_factor: 15.633302
  symmetry_tolerance: 1.00000e-05

space_group:
  type: "P1"
  number: 1
  Hall_symbol: "P 1"

primitive_matrix:
- [ -1.000000000000000, -0.000000000000000, -0.000000000000000 ]
- [  0.000000000000000, -1.000000000000000, -0.000000000000000 ]
- [  0.000000000000000,  0.000000000000000,  1.000000000000000 ]

supercell_matrix:
- [   3,   0,   0 ]
- [   0,   2,   0 ]
- [   0,   0,   1 ]

primitive_cell:
  lattice:
  - [    -4.258467971461732,     0.000000000000000,     0.000000000000000 ] # a
  - [     2.129154765954554,    -6.434170755768006,     0.000000000000000 ] # b
  - [     0.000043264500576,     0.006234034106161,    12.702851950204693 ] # c
  points:
  - symbol: Li # 1
    coordinates: [  0.083803803200621,  0.635526857019828,  0.334704161338126 ]
    mass: 6.940000
  - symbol: Li # 2
    coordinates: [  0.769803291227370,  0.007760609557189,  0.666666666666667 ]
    mass: 6.940000
  - symbol: Li # 3
    coordinates: [  0.270934134628397,  0.009992344871297,  0.163647215240603 ]
    mass: 6.940000
  - symbol: Li # 4
    coordinates: [  0.768191995960335,  0.004547091693480,  0.333154144728606 ]
    mass: 6.940000
  - symbol: Li # 5
    coordinates: [  0.440284814816068,  0.348872973656720,  0.999821841690500 ]
    mass: 6.940000
  - symbol: Li # 6
    coordinates: [  0.102808188796418,  0.673575215914610,  0.999507634193146 ]
    mass: 6.940000
  - symbol: Li # 7
    coordinates: [  0.085696317636362,  0.639272479146020,  0.664733595391664 ]
    mass: 6.940000
  - symbol: Li # 8
    coordinates: [  0.273034191871328,  0.013810561753955,  0.836291451241890 ]
    mass: 6.940000
  - symbol: Li # 9
    coordinates: [  0.924377530225281,  0.316812741128646,  0.499759175988065 ]
    mass: 6.940000
  - symbol: Ga # 10
    coordinates: [  0.420500647274167,  0.308951575830866,  0.328209057977765 ]
    mass: 69.723000
  - symbol: Ga # 11
    coordinates: [  0.422256218890342,  0.312494046819181,  0.671280897422345 ]
    mass: 69.723000
  - symbol: Ga # 12
    coordinates: [  0.937122529507568,  0.341960632295816,  0.824581060115299 ]
    mass: 69.723000
  - symbol: Ga # 13
    coordinates: [  0.935227254097588,  0.338550514974369,  0.175279399798962 ]
    mass: 69.723000
  - symbol: Sn # 14
    coordinates: [  0.258171593888444,  0.984333805271161,  0.499821070559854 ]
    mass: 118.710000
  - symbol: Sn # 15
    coordinates: [  0.594757465397776,  0.657512754276437,  0.169653446197257 ]
    mass: 118.710000
  - symbol: Sn # 16
    coordinates: [  0.786727195715189,  0.041807259555929,  0.999860144826833 ]
    mass: 118.710000
  - symbol: Sn # 17
    coordinates: [  0.596647453906199,  0.660944476914695,  0.829877171319315 ]
    mass: 118.710000
  - symbol: Sn # 18
    coordinates: [  0.583028675688030,  0.634195175607174,  0.499724888219434 ]
    mass: 118.710000
  reciprocal_lattice: # without 2pi
  - [    -0.234826234857591,    -0.077707200523080,     0.000038935270604 ] # a*
  - [    -0.000000000000000,    -0.155420183572768,     0.000076273794970 ] # b*
  - [    -0.000000000000000,    -0.000000000000000,     0.078722479323542 ] # c*

unit_cell:
  lattice:
  - [     4.258467971461732,     0.000000000000000,     0.000000000000000 ] # a
  - [    -2.129154765954554,     6.434170755768006,     0.000000000000000 ] # b
  - [     0.000043264500576,     0.006234034106161,    12.702851950204689 ] # c
  points:
  - symbol: Li # 1
    coordinates: [  0.916196196799379,  0.364473142980172,  0.334704161338126 ]
    mass: 6.940000
    reduced_to: 1
  - symbol: Li # 2
    coordinates: [  0.230196708772631,  0.992239390442811,  0.666666666666667 ]
    mass: 6.940000
    reduced_to: 2
  - symbol: Li # 3
    coordinates: [  0.729065865371603,  0.990007655128703,  0.163647215240603 ]
    mass: 6.940000
    reduced_to: 3
  - symbol: Li # 4
    coordinates: [  0.231808004039665,  0.995452908306520,  0.333154144728606 ]
    mass: 6.940000
    reduced_to: 4
  - symbol: Li # 5
    coordinates: [  0.559715185183932,  0.651127026343280,  0.999821841690500 ]
    mass: 6.940000
    reduced_to: 5
  - symbol: Li # 6
    coordinates: [  0.897191811203582,  0.326424784085390,  0.999507634193146 ]
    mass: 6.940000
    reduced_to: 6
  - symbol: Li # 7
    coordinates: [  0.914303682363638,  0.360727520853980,  0.664733595391664 ]
    mass: 6.940000
    reduced_to: 7
  - symbol: Li # 8
    coordinates: [  0.726965808128672,  0.986189438246045,  0.836291451241890 ]
    mass: 6.940000
    reduced_to: 8
  - symbol: Li # 9
    coordinates: [  0.075622469774719,  0.683187258871354,  0.499759175988065 ]
    mass: 6.940000
    reduced_to: 9
  - symbol: Ga # 10
    coordinates: [  0.579499352725833,  0.691048424169134,  0.328209057977765 ]
    mass: 69.723000
    reduced_to: 10
  - symbol: Ga # 11
    coordinates: [  0.577743781109658,  0.687505953180819,  0.671280897422346 ]
    mass: 69.723000
    reduced_to: 11
  - symbol: Ga # 12
    coordinates: [  0.062877470492432,  0.658039367704184,  0.824581060115299 ]
    mass: 69.723000
    reduced_to: 12
  - symbol: Ga # 13
    coordinates: [  0.064772745902412,  0.661449485025631,  0.175279399798962 ]
    mass: 69.723000
    reduced_to: 13
  - symbol: Sn # 14
    coordinates: [  0.741828406111556,  0.015666194728839,  0.499821070559854 ]
    mass: 118.710000
    reduced_to: 14
  - symbol: Sn # 15
    coordinates: [  0.405242534602224,  0.342487245723563,  0.169653446197257 ]
    mass: 118.710000
    reduced_to: 15
  - symbol: Sn # 16
    coordinates: [  0.213272804284811,  0.958192740444071,  0.999860144826833 ]
    mass: 118.710000
    reduced_to: 16
  - symbol: Sn # 17
    coordinates: [  0.403352546093801,  0.339055523085304,  0.829877171319315 ]
    mass: 118.710000
    reduced_to: 17
  - symbol: Sn # 18
    coordinates: [  0.416971324311970,  0.365804824392826,  0.499724888219434 ]
    mass: 118.710000
    reduced_to: 18

supercell:
  lattice:
  - [    12.775403914385196,     0.000000000000000,     0.000000000000000 ] # a
  - [    -4.258309531909108,    12.868341511536013,     0.000000000000000 ] # b
  - [     0.000043264500576,     0.006234034106161,    12.702851950204689 ] # c
  points:
  - symbol: Li # 1
    coordinates: [  0.305398732266460,  0.182236571490086,  0.334704161338126 ]
    mass: 6.940000
    reduced_to: 1
  - symbol: Li # 2
    coordinates: [  0.638732065599793,  0.182236571490086,  0.334704161338126 ]
    mass: 6.940000
    reduced_to: 1
  - symbol: Li # 3
    coordinates: [  0.972065398933126,  0.182236571490086,  0.334704161338126 ]
    mass: 6.940000
    reduced_to: 1
  - symbol: Li # 4
    coordinates: [  0.305398732266460,  0.682236571490086,  0.334704161338126 ]
    mass: 6.940000
    reduced_to: 1
  - symbol: Li # 5
    coordinates: [  0.638732065599793,  0.682236571490086,  0.334704161338126 ]
    mass: 6.940000
    reduced_to: 1
  - symbol: Li # 6
    coordinates: [  0.972065398933126,  0.682236571490086,  0.334704161338126 ]
    mass: 6.940000
    reduced_to: 1
  - symbol: Li # 7
    coordinates: [  0.076732236257544,  0.496119695221406,  0.666666666666667 ]
    mass: 6.940000
    reduced_to: 7
  - symbol: Li # 8
    coordinates: [  0.410065569590877,  0.496119695221406,  0.666666666666667 ]
    mass: 6.940000
    reduced_to: 7
  - symbol: Li # 9
    coordinates: [  0.743398902924210,  0.496119695221406,  0.666666666666667 ]
    mass: 6.940000
    reduced_to: 7
  - symbol: Li # 10
    coordinates: [  0.076732236257544,  0.996119695221406,  0.666666666666667 ]
    mass: 6.940000
    reduced_to: 7
  - symbol: Li # 11
    coordinates: [  0.410065569590877,  0.996119695221406,  0.666666666666667 ]
    mass: 6.940000
    reduced_to: 7
  - symbol: Li # 12
    coordinates: [  0.743398902924210,  0.996119695221406,  0.666666666666667 ]
    mass: 6.940000
    reduced_to: 7
  - symbol: Li # 13
    coordinates: [  0.243021955123868,  0.495003827564352,  0.163647215240603 ]
    mass: 6.940000
    reduced_to: 13
  - symbol: Li # 14
    coordinates: [  0.576355288457201,  0.495003827564352,  0.163647215240603 ]
    mass: 6.940000
    reduced_to: 13
  - symbol: Li # 15
    coordinates: [  0.909688621790534,  0.495003827564352,  0.163647215240603 ]
    mass: 6.940000
    reduced_to: 13
  - symbol: Li # 16
    coordinates: [  0.243021955123868,  0.995003827564352,  0.163647215240603 ]
    mass: 6.940000
    reduced_to: 13
  - symbol: Li # 17
    coordinates: [  0.576355288457201,  0.995003827564352,  0.163647215240603 ]
    mass: 6.940000
    reduced_to: 13
  - symbol: Li # 18
    coordinates: [  0.909688621790534,  0.995003827564352,  0.163647215240603 ]
    mass: 6.940000
    reduced_to: 13
  - symbol: Li # 19
    coordinates: [  0.077269334679888,  0.497726454153260,  0.333154144728606 ]
    mass: 6.940000
    reduced_to: 19
  - symbol: Li # 20
    coordinates: [  0.410602668013222,  0.497726454153260,  0.333154144728606 ]
    mass: 6.940000
    reduced_to: 19
  - symbol: Li # 21
    coordinates: [  0.743936001346555,  0.497726454153260,  0.333154144728606 ]
    mass: 6.940000
    reduced_to: 19
  - symbol: Li # 22
    coordinates: [  0.077269334679888,  0.997726454153260,  0.333154144728606 ]
    mass: 6.940000
    reduced_to: 19
  - symbol: Li # 23
    coordinates: [  0.410602668013222,  0.997726454153260,  0.333154144728606 ]
    mass: 6.940000
    reduced_to: 19
  - symbol: Li # 24
    coordinates: [  0.743936001346555,  0.997726454153260,  0.333154144728606 ]
    mass: 6.940000
    reduced_to: 19
  - symbol: Li # 25
    coordinates: [  0.186571728394644,  0.325563513171640,  0.999821841690500 ]
    mass: 6.940000
    reduced_to: 25
  - symbol: Li # 26
    coordinates: [  0.519905061727977,  0.325563513171640,  0.999821841690500 ]
    mass: 6.940000
    reduced_to: 25
  - symbol: Li # 27
    coordinates: [  0.853238395061311,  0.325563513171640,  0.999821841690500 ]
    mass: 6.940000
    reduced_to: 25
  - symbol: Li # 28
    coordinates: [  0.186571728394644,  0.825563513171640,  0.999821841690500 ]
    mass: 6.940000
    reduced_to: 25
  - symbol: Li # 29
    coordinates: [  0.519905061727977,  0.825563513171640,  0.999821841690500 ]
    mass: 6.940000
    reduced_to: 25
  - symbol: Li # 30
    coordinates: [  0.853238395061311,  0.825563513171640,  0.999821841690500 ]
    mass: 6.940000
    reduced_to: 25
  - symbol: Li # 31
    coordinates: [  0.299063937067861,  0.163212392042695,  0.999507634193146 ]
    mass: 6.940000
    reduced_to: 31
  - symbol: Li # 32
    coordinates: [  0.632397270401194,  0.163212392042695,  0.999507634193146 ]
    mass: 6.940000
    reduced_to: 31
  - symbol: Li # 33
    coordinates: [  0.965730603734527,  0.163212392042695,  0.999507634193146 ]
    mass: 6.940000
    reduced_to: 31
  - symbol: Li # 34
    coordinates: [  0.299063937067861,  0.663212392042695,  0.999507634193146 ]
    mass: 6.940000
    reduced_to: 31
  - symbol: Li # 35
    coordinates: [  0.632397270401194,  0.663212392042695,  0.999507634193146 ]
    mass: 6.940000
    reduced_to: 31
  - symbol: Li # 36
    coordinates: [  0.965730603734527,  0.663212392042695,  0.999507634193146 ]
    mass: 6.940000
    reduced_to: 31
  - symbol: Li # 37
    coordinates: [  0.304767894121213,  0.180363760426990,  0.664733595391664 ]
    mass: 6.940000
    reduced_to: 37
  - symbol: Li # 38
    coordinates: [  0.638101227454546,  0.180363760426990,  0.664733595391664 ]
    mass: 6.940000
    reduced_to: 37
  - symbol: Li # 39
    coordinates: [  0.971434560787879,  0.180363760426990,  0.664733595391664 ]
    mass: 6.940000
    reduced_to: 37
  - symbol: Li # 40
    coordinates: [  0.304767894121213,  0.680363760426990,  0.664733595391664 ]
    mass: 6.940000
    reduced_to: 37
  - symbol: Li # 41
    coordinates: [  0.638101227454546,  0.680363760426990,  0.664733595391664 ]
    mass: 6.940000
    reduced_to: 37
  - symbol: Li # 42
    coordinates: [  0.971434560787879,  0.680363760426990,  0.664733595391664 ]
    mass: 6.940000
    reduced_to: 37
  - symbol: Li # 43
    coordinates: [  0.242321936042891,  0.493094719123022,  0.836291451241890 ]
    mass: 6.940000
    reduced_to: 43
  - symbol: Li # 44
    coordinates: [  0.575655269376224,  0.493094719123022,  0.836291451241890 ]
    mass: 6.940000
    reduced_to: 43
  - symbol: Li # 45
    coordinates: [  0.908988602709557,  0.493094719123022,  0.836291451241890 ]
    mass: 6.940000
    reduced_to: 43
  - symbol: Li # 46
    coordinates: [  0.242321936042891,  0.993094719123022,  0.836291451241890 ]
    mass: 6.940000
    reduced_to: 43
  - symbol: Li # 47
    coordinates: [  0.575655269376224,  0.993094719123022,  0.836291451241890 ]
    mass: 6.940000
    reduced_to: 43
  - symbol: Li # 48
    coordinates: [  0.908988602709557,  0.993094719123022,  0.836291451241890 ]
    mass: 6.940000
    reduced_to: 43
  - symbol: Li # 49
    coordinates: [  0.025207489924906,  0.341593629435677,  0.499759175988065 ]
    mass: 6.940000
    reduced_to: 49
  - symbol: Li # 50
    coordinates: [  0.358540823258240,  0.341593629435677,  0.499759175988065 ]
    mass: 6.940000
    reduced_to: 49
  - symbol: Li # 51
    coordinates: [  0.691874156591573,  0.341593629435677,  0.499759175988065 ]
    mass: 6.940000
    reduced_to: 49
  - symbol: Li # 52
    coordinates: [  0.025207489924906,  0.841593629435677,  0.499759175988065 ]
    mass: 6.940000
    reduced_to: 49
  - symbol: Li # 53
    coordinates: [  0.358540823258240,  0.841593629435677,  0.499759175988065 ]
    mass: 6.940000
    reduced_to: 49
  - symbol: Li # 54
    coordinates: [  0.691874156591573,  0.841593629435677,  0.499759175988065 ]
    mass: 6.940000
    reduced_to: 49
  - symbol: Ga # 55
    coordinates: [  0.193166450908611,  0.345524212084567,  0.328209057977765 ]
    mass: 69.723000
    reduced_to: 55
  - symbol: Ga # 56
    coordinates: [  0.526499784241944,  0.345524212084567,  0.328209057977765 ]
    mass: 69.723000
    reduced_to: 55
  - symbol: Ga # 57
    coordinates: [  0.859833117575278,  0.345524212084567,  0.328209057977765 ]
    mass: 69.723000
    reduced_to: 55
  - symbol: Ga # 58
    coordinates: [  0.193166450908611,  0.845524212084567,  0.328209057977765 ]
    mass: 69.723000
    reduced_to: 55
  - symbol: Ga # 59
    coordinates: [  0.526499784241944,  0.845524212084567,  0.328209057977765 ]
    mass: 69.723000
    reduced_to: 55
  - symbol: Ga # 60
    coordinates: [  0.859833117575278,  0.845524212084567,  0.328209057977765 ]
    mass: 69.723000
    reduced_to: 55
  - symbol: Ga # 61
    coordinates: [  0.192581260369886,  0.343752976590409,  0.671280897422346 ]
    mass: 69.723000
    reduced_to: 61
  - symbol: Ga # 62
    coordinates: [  0.525914593703219,  0.343752976590409,  0.671280897422346 ]
    mass: 69.723000
    reduced_to: 61
  - symbol: Ga # 63
    coordinates: [  0.859247927036553,  0.343752976590409,  0.671280897422346 ]
    mass: 69.723000
    reduced_to: 61
  - symbol: Ga # 64
    coordinates: [  0.192581260369886,  0.843752976590409,  0.671280897422346 ]
    mass: 69.723000
    reduced_to: 61
  - symbol: Ga # 65
    coordinates: [  0.525914593703219,  0.843752976590409,  0.671280897422346 ]
    mass: 69.723000
    reduced_to: 61
  - symbol: Ga # 66
    coordinates: [  0.859247927036553,  0.843752976590409,  0.671280897422346 ]
    mass: 69.723000
    reduced_to: 61
  - symbol: Ga # 67
    coordinates: [  0.020959156830811,  0.329019683852092,  0.824581060115299 ]
    mass: 69.723000
    reduced_to: 67
  - symbol: Ga # 68
    coordinates: [  0.354292490164144,  0.329019683852092,  0.824581060115299 ]
    mass: 69.723000
    reduced_to: 67
  - symbol: Ga # 69
    coordinates: [  0.687625823497477,  0.329019683852092,  0.824581060115299 ]
    mass: 69.723000
    reduced_to: 67
  - symbol: Ga # 70
    coordinates: [  0.020959156830811,  0.829019683852092,  0.824581060115299 ]
    mass: 69.723000
    reduced_to: 67
  - symbol: Ga # 71
    coordinates: [  0.354292490164144,  0.829019683852092,  0.824581060115299 ]
    mass: 69.723000
    reduced_to: 67
  - symbol: Ga # 72
    coordinates: [  0.687625823497477,  0.829019683852092,  0.824581060115299 ]
    mass: 69.723000
    reduced_to: 67
  - symbol: Ga # 73
    coordinates: [  0.021590915300804,  0.330724742512816,  0.175279399798962 ]
    mass: 69.723000
    reduced_to: 73
  - symbol: Ga # 74
    coordinates: [  0.354924248634137,  0.330724742512816,  0.175279399798962 ]
    mass: 69.723000
    reduced_to: 73
  - symbol: Ga # 75
    coordinates: [  0.688257581967471,  0.330724742512816,  0.175279399798962 ]
    mass: 69.723000
    reduced_to: 73
  - symbol: Ga # 76
    coordinates: [  0.021590915300804,  0.830724742512815,  0.175279399798962 ]
    mass: 69.723000
    reduced_to: 73
  - symbol: Ga # 77
    coordinates: [  0.354924248634137,  0.830724742512815,  0.175279399798962 ]
    mass: 69.723000
    reduced_to: 73
  - symbol: Ga # 78
    coordinates: [  0.688257581967471,  0.830724742512815,  0.175279399798962 ]
    mass: 69.723000
    reduced_to: 73
  - symbol: Sn # 79
    coordinates: [  0.247276135370519,  0.007833097364419,  0.499821070559854 ]
    mass: 118.710000
    reduced_to: 79
  - symbol: Sn # 80
    coordinates: [  0.580609468703852,  0.007833097364419,  0.499821070559854 ]
    mass: 118.710000
    reduced_to: 79
  - symbol: Sn # 81
    coordinates: [  0.913942802037185,  0.007833097364419,  0.499821070559854 ]
    mass: 118.710000
    reduced_to: 79
  - symbol: Sn # 82
    coordinates: [  0.247276135370519,  0.507833097364419,  0.499821070559854 ]
    mass: 118.710000
    reduced_to: 79
  - symbol: Sn # 83
    coordinates: [  0.580609468703852,  0.507833097364419,  0.499821070559854 ]
    mass: 118.710000
    reduced_to: 79
  - symbol: Sn # 84
    coordinates: [  0.913942802037185,  0.507833097364419,  0.499821070559854 ]
    mass: 118.710000
    reduced_to: 79
  - symbol: Sn # 85
    coordinates: [  0.135080844867408,  0.171243622861782,  0.169653446197257 ]
    mass: 118.710000
    reduced_to: 85
  - symbol: Sn # 86
    coordinates: [  0.468414178200741,  0.171243622861782,  0.169653446197257 ]
    mass: 118.710000
    reduced_to: 85
  - symbol: Sn # 87
    coordinates: [  0.801747511534075,  0.171243622861782,  0.169653446197257 ]
    mass: 118.710000
    reduced_to: 85
  - symbol: Sn # 88
    coordinates: [  0.135080844867408,  0.671243622861782,  0.169653446197257 ]
    mass: 118.710000
    reduced_to: 85
  - symbol: Sn # 89
    coordinates: [  0.468414178200741,  0.671243622861782,  0.169653446197257 ]
    mass: 118.710000
    reduced_to: 85
  - symbol: Sn # 90
    coordinates: [  0.801747511534075,  0.671243622861782,  0.169653446197257 ]
    mass: 118.710000
    reduced_to: 85
  - symbol: Sn # 91
    coordinates: [  0.071090934761604,  0.479096370222035,  0.999860144826833 ]
    mass: 118.710000
    reduced_to: 91
  - symbol: Sn # 92
    coordinates: [  0.404424268094937,  0.479096370222035,  0.999860144826833 ]
    mass: 118.710000
    reduced_to: 91
  - symbol: Sn # 93
    coordinates: [  0.737757601428270,  0.479096370222035,  0.999860144826833 ]
    mass: 118.710000
    reduced_to: 91
  - symbol: Sn # 94
    coordinates: [  0.071090934761604,  0.979096370222035,  0.999860144826833 ]
    mass: 118.710000
    reduced_to: 91
  - symbol: Sn # 95
    coordinates: [  0.404424268094937,  0.979096370222035,  0.999860144826833 ]
    mass: 118.710000
    reduced_to: 91
  - symbol: Sn # 96
    coordinates: [  0.737757601428270,  0.979096370222035,  0.999860144826833 ]
    mass: 118.710000
    reduced_to: 91
  - symbol: Sn # 97
    coordinates: [  0.134450848697934,  0.169527761542652,  0.829877171319315 ]
    mass: 118.710000
    reduced_to: 97
  - symbol: Sn # 98
    coordinates: [  0.467784182031267,  0.169527761542652,  0.829877171319315 ]
    mass: 118.710000
    reduced_to: 97
  - symbol: Sn # 99
    coordinates: [  0.801117515364600,  0.169527761542652,  0.829877171319315 ]
    mass: 118.710000
    reduced_to: 97
  - symbol: Sn # 100
    coordinates: [  0.134450848697934,  0.669527761542652,  0.829877171319315 ]
    mass: 118.710000
    reduced_to: 97
  - symbol: Sn # 101
    coordinates: [  0.467784182031267,  0.669527761542652,  0.829877171319315 ]
    mass: 118.710000
    reduced_to: 97
  - symbol: Sn # 102
    coordinates: [  0.801117515364600,  0.669527761542652,  0.829877171319315 ]
    mass: 118.710000
    reduced_to: 97
  - symbol: Sn # 103
    coordinates: [  0.138990441437323,  0.182902412196413,  0.499724888219434 ]
    mass: 118.710000
    reduced_to: 103
  - symbol: Sn # 104
    coordinates: [  0.472323774770657,  0.182902412196413,  0.499724888219434 ]
    mass: 118.710000
    reduced_to: 103
  - symbol: Sn # 105
    coordinates: [  0.805657108103990,  0.182902412196413,  0.499724888219434 ]
    mass: 118.710000
    reduced_to: 103
  - symbol: Sn # 106
    coordinates: [  0.138990441437323,  0.682902412196413,  0.499724888219434 ]
    mass: 118.710000
    reduced_to: 103
  - symbol: Sn # 107
    coordinates: [  0.472323774770657,  0.682902412196413,  0.499724888219434 ]
    mass: 118.710000
    reduced_to: 103
  - symbol: Sn # 108
    coordinates: [  0.805657108103990,  0.682902412196413,  0.499724888219434 ]
    mass: 118.710000
    reduced_to: 103

displacements:
- atom:    1
  displacement:
    [   0.0100000000000000,  0.0000000000000000,  0.0000000000000000 ]
  forces:
  - [  -0.0166134852916002, -0.0913312435150146, -0.0115896100178361 ]
  - [   0.0007026473176666, -0.0913402065634727, -0.0114976186305285 ]
  - [   0.0007292693480849, -0.0912718325853348, -0.0116992266848683 ]
  - [   0.0005118940025568, -0.0913005992770195, -0.0116130225360394 ]
  - [   0.0005176458507776, -0.0913263410329819, -0.0115927364677191 ]
  - [   0.0005183694884181, -0.0912872925400734, -0.0115861240774393 ]
  - [  -0.0009103647898883,  0.0373754911124706,  0.0484337955713272 ]
  - [  -0.0009350819163956,  0.0373574346303940,  0.0484332069754601 ]
  - [  -0.0009094138513319,  0.0373427048325539,  0.0484313778579235 ]
  - [  -0.0008286160882562,  0.0374469086527824,  0.0483626052737236 ]
  - [  -0.0008287653326988,  0.0372713282704353,  0.0485044568777084 ]
  - [  -0.0009431468206458,  0.0373592860996723,  0.0484332032501698 ]
  - [   0.0003219880163670,  0.0461486391723156, -0.0027294559404254 ]
  - [   0.0003231381997466,  0.0463383421301842, -0.0029711630195379 ]
  - [   0.0003675213083625,  0.0462415479123592, -0.0028506061062217 ]
  - [   0.0006729802116752,  0.0462443828582764, -0.0028480971232057 ]
  - [   0.0003766482695937,  0.0461831167340279, -0.0029503460973501 ]
  - [   0.0003770413459279,  0.0463009662926197, -0.0027513997629285 ]
  - [  -0.0010070758871734,  0.0356663949787617, -0.0513371378183365 ]
  - [  -0.0004139737575315,  0.0352815538644791, -0.0513439811766148 ]
  - [  -0.0010111818555743,  0.0348914898931980, -0.0513455234467983 ]
  - [   0.0001005951489788,  0.0361279360949993, -0.0516223125159740 ]
  - [   0.0001099249784602,  0.0344247594475746, -0.0510627031326294 ]
  - [  -0.0005884944112040,  0.0352813415229321, -0.0513420775532722 ]
  - [  -0.0003271274617873,  0.0544844791293144, -0.0028760193381459 ]
  - [  -0.0003285220009275,  0.0544800013303757, -0.0028680518735200 ]
  - [  -0.0004450611595530,  0.0544830262660980, -0.0028721555136144 ]
  - [  -0.0004079744103365,  0.0544814169406891, -0.0028733597137034 ]
  - [  -0.0004587203438859,  0.0545113235712051, -0.0028530980926007 ]
  - [  -0.0004578157095239,  0.0544522516429424, -0.0028909659013152 ]
  - [   0.0001563979312778, -0.0556716769933701,  0.0064345523715019 ]
  - [  -0.0001140480235335, -0.0556847341358662,  0.0067064994946122 ]
  - [  -0.0001143189147115, -0.0556604340672493,  0.0061564687639475 ]
  - [   0.0001777471043169, -0.0556730479001999,  0.0064275870099664 ]
  - [   0.0001771433744580, -0.0556697845458984,  0.0064331735484302 ]
  - [   0.0001768118236214, -0.0556721277534962,  0.0064376536756754 ]
  - [   0.0000834604725242, -0.0787762179970741,  0.0141295688226819 ]
  - [  -0.0001752060197759, -0.0788902118802071,  0.0135970870032907 ]
  - [  -0.0001781191676855, -0.0786609202623367,  0.0146692190319300 ]
  - [   0.0002500489354134, -0.0787783265113831,  0.0141206579282880 ]
  - [   0.0002505350857973, -0.0787636935710907,  0.0141534255817533 ]
  - [   0.0002504251897335, -0.0787852257490158,  0.0141256628558040 ]
  - [   0.0011618514545262,  0.0527909770607948, -0.0077850297093391 ]
  - [   0.0011616772972047,  0.0528030171990395, -0.0077272849157453 ]
  - [   0.0011468438897282,  0.0527989566326141, -0.0077565792016685 ]
  - [   0.0012267208658159,  0.0527983605861664, -0.0077567128464580 ]
  - [   0.0011213449761271,  0.0527938678860664, -0.0077347671613097 ]
  - [   0.0011212029494345,  0.0528034195303917, -0.0077783986926079 ]
  - [   0.0000138364921440, -0.0130169428884983,  0.0005533087532967 ]
  - [   0.0002248370292364, -0.0129631757736206,  0.0006052360986359 ]
  - [   0.0000211521910387, -0.0129016563296318,  0.0006645334069617 ]
  - [  -0.0000241025591095, -0.0130922701209784,  0.0006257516797632 ]
  - [   0.0000003408640623, -0.0128468219190836,  0.0005896541988477 ]
  - [  -0.0000704657286406, -0.0129520837217569,  0.0006092168623582 ]
  - [   0.0026070834137499,  0.0203447323292494,  0.1451549232006073 ]
  - [   0.0026440816000104,  0.0266940630972385,  0.1446777433156967 ]
  - [   0.0003299329255242,  0.0234942920506001,  0.1449203342199326 ]
  - [   0.0003613908775151,  0.0234884060919285,  0.1449169665575027 ]
  - [   0.0003676860942505,  0.0236344262957573,  0.1449688374996185 ]
  - [   0.0003697559004650,  0.0233581867069006,  0.1448751538991928 ]
  - [  -0.0001839553005993,  0.0382229313254356, -0.1378246396780014 ]
  - [  -0.0001851436682045,  0.0384087339043617, -0.1378270238637924 ]
  - [  -0.0000984749349300,  0.0383164584636688, -0.1378234773874283 ]
  - [  -0.0000702827092027,  0.0383169129490852, -0.1378222554922104 ]
  - [  -0.0001211407507071,  0.0383831784129143, -0.1378896385431290 ]
  - [  -0.0001198065583594,  0.0382514484226704, -0.1377608180046082 ]
  - [   0.0003511425748002,  0.0767543315887451, -0.0058469669893384 ]
  - [   0.0004390836984385,  0.0767786949872971, -0.0058587957173586 ]
  - [   0.0003519466845319,  0.0768028646707535, -0.0058694891631603 ]
  - [   0.0003740637330338,  0.0768371745944023, -0.0057911686599255 ]
  - [   0.0003745190333575,  0.0767139419913292, -0.0059255519881845 ]
  - [   0.0003893575631082,  0.0767752453684807, -0.0058587556704879 ]
  - [  -0.0004548410652205,  0.0677658468484879,  0.0026566963642836 ]
  - [  -0.0019249580800533,  0.0678538009524345,  0.0028755450621247 ]
  - [  -0.0004562271933537,  0.0679756700992584,  0.0030586132779717 ]
  - [  -0.0002789874561131,  0.0678365305066109,  0.0028763259761035 ]
  - [  -0.0002826580603141,  0.0679019838571548,  0.0028416654095054 ]
  - [  -0.0003115252475254,  0.0678767561912537,  0.0028581749647856 ]
  - [  -0.0000729649182176, -0.0156130790710449,  0.0006028318312019 ]
  - [   0.0012152834096923, -0.0157004892826080,  0.0006523482734337 ]
  - [   0.0012146593071520, -0.0155448913574219,  0.0005719624459743 ]
  - [   0.0008107144385576, -0.0154539421200752,  0.0006457279669121 ]
  - [   0.0008135437965393, -0.0157966762781143,  0.0005795357283205 ]
  - [   0.0008761063218117, -0.0156217515468597,  0.0006126557709649 ]
  - [   0.0039448691532016, -0.0045309169217944,  0.0571964085102081 ]
  - [   0.0040124948136508, -0.0063986089080572,  0.0495545752346516 ]
  - [   0.0001942251547007, -0.0054620206356049,  0.0534237325191498 ]
  - [   0.0002629869268276, -0.0054757427424192,  0.0534234866499901 ]
  - [   0.0002559272106737, -0.0054573444649577,  0.0534179247915745 ]
  - [   0.0002531516074669, -0.0054548429325223,  0.0534273386001587 ]
  - [  -0.0018137613078579, -0.0857846438884735, -0.0024264624807984 ]
  - [  -0.0016761977458373, -0.0858488455414772, -0.0023626904003322 ]
  - [  -0.0018142207991332, -0.0859256684780121, -0.0022860672324896 ]
  - [  -0.0019277024548501, -0.0856697559356689, -0.0023239883594215 ]
  - [  -0.0019272801000625, -0.0860334262251854, -0.0023823713418096 ]
  - [  -0.0017488112207502, -0.0858538374304771, -0.0023548933677375 ]
  - [   0.0010341536253691,  0.0012826519086957, -0.0466611348092556 ]
  - [   0.0010326507035643,  0.0014340067282319, -0.0467176698148251 ]
  - [   0.0010953244054690,  0.0013587335124612, -0.0466893240809441 ]
  - [   0.0010476212482899,  0.0013509849086404, -0.0466839671134949 ]
  - [   0.0010612506885082,  0.0013490747660398, -0.0466824881732464 ]
  - [   0.0010581994429231,  0.0013782689347863, -0.0467016100883484 ]
  - [   0.0026830788701773, -0.0882093980908394, -0.0062001594342291 ]
  - [   0.0027444325387478, -0.0884479731321335,  0.0017454968765378 ]
  - [  -0.0015677418559790, -0.0883286818861961, -0.0022734568919986 ]
  - [  -0.0012736599892378, -0.0883299186825752, -0.0022839084267616 ]
  - [  -0.0012441426515579, -0.0883533135056496, -0.0022767893970013 ]
  - [  -0.0012771566398442, -0.0882923305034637, -0.0022618137300014 ]
- atom:    1
  displacement:
    [  -0.0100000000000000,  0.0000000000000000,  0.0000000000000000 ]
  forces:
  - [   0.0176437869668007, -0.0913250148296356, -0.0116050029173493 ]
  - [   0.0003020971198566, -0.0912713855504990, -0.0116995573043823 ]
  - [   0.0003282567486167, -0.0913401544094086, -0.0114978831261396 ]
  - [   0.0005195457488298, -0.0913089886307716, -0.0115819508209825 ]
  - [   0.0005136458203197, -0.0912834927439690, -0.0116018811240792 ]
  - [   0.0005144467577338, -0.0913219004869461, -0.0116079524159431 ]
  - [  -0.0009132156264968,  0.0373412594199181,  0.0484318286180496 ]
  - [  -0.0008887432632037,  0.0373600386083126,  0.0484335273504257 ]
  - [  -0.0009131181286648,  0.0373745858669281,  0.0484332777559757 ]
  - [  -0.0009947001235560,  0.0372703671455383,  0.0485037118196487 ]
  - [  -0.0009945131605491,  0.0374462008476257,  0.0483637228608131 ]
  - [  -0.0008775885216892,  0.0373603031039238,  0.0484332628548145 ]