phonopy:
  version: "2.37.1"
  frequency_unit_conversion_factor: 15.633302
  symmetry_tolerance: 1.00000e-05

space_group:
  type: "P1"
  number: 1
  Hall_symbol: "P 1"

primitive_matrix:
- [ -1.000000000000000,  0.000000000000000,  0.000000000000000 ]
- [  0.000000000000000, -1.000000000000000, -1.000000000000000 ]
- [  0.000000000000000, -1.000000000000000,  0.000000000000000 ]

supercell_matrix:
- [   3,   0,   0 ]
- [   0,   2,   0 ]
- [   0,   0,   2 ]

primitive_cell:
  lattice:
  - [    -4.773293070056662,     0.000000000000000,     0.000000000000000 ] # a
  - [    -0.001093719753026,    -2.923406300134672,    -5.069438487607052 ] # b
  - [    -0.001235141423966,    -5.854764002356890,     0.000000000000000 ] # c
  points:
  - symbol: Li # 1
    coordinates: [  0.760630001128905,  0.080814748384337,  0.879300495445324 ]
    mass: 6.940000
  - symbol: Li # 2
    coordinates: [  0.261052685752396,  0.922980063858727,  0.220569693545935 ]
    mass: 6.940000
  - symbol: Li # 3
    coordinates: [  0.261219198047529,  0.423528039709879,  0.220501046008377 ]
    mass: 6.940000
  - symbol: Li # 4
    coordinates: [  0.761139204618966,  0.607403541543823,  0.878934727659913 ]
    mass: 6.940000
  - symbol: Li # 5
    coordinates: [  0.260980783946830,  0.423656418236557,  0.719779143545280 ]
    mass: 6.940000
  - symbol: Li # 6
    coordinates: [  0.761255781431314,  0.080996605639063,  0.405320524900724 ]
    mass: 6.940000
  - symbol: Sn # 7
    coordinates: [  0.260940177206769,  0.923201978903158,  0.720456434301113 ]
    mass: 118.710000
  reciprocal_lattice: # without 2pi
  - [    -0.209498973836972,     0.000044196633846,     0.000019711936211 ] # a*
  - [    -0.000000000000000,    -0.000000000000000,    -0.197260505763042 ] # b*
  - [    -0.000000000000000,    -0.170801077481080,     0.098496302341697 ] # c*

unit_cell:
  lattice:
  - [     4.773293070056663,     0.000000000000000,     0.000000000000000 ] # a
  - [     0.001235141423967,     5.854764002356890,     0.000000000000000 ] # b
  - [    -0.000141421670940,    -2.931357702222218,     5.069438487607052 ] # c
  points:
  - symbol: Li # 1
    coordinates: [  0.239369998871095,  0.039884756170339,  0.919185251615663 ]
    mass: 6.940000
    reduced_to: 1
  - symbol: Li # 2
    coordinates: [  0.738947314247604,  0.856450242595338,  0.077019936141273 ]
    mass: 6.940000
    reduced_to: 2
  - symbol: Li # 3
    coordinates: [  0.738780801952471,  0.355970914281745,  0.576471960290121 ]
    mass: 6.940000
    reduced_to: 3
  - symbol: Li # 4
    coordinates: [  0.238860795381034,  0.513661730796264,  0.392596458456177 ]
    mass: 6.940000
    reduced_to: 4
  - symbol: Li # 5
    coordinates: [  0.739019216053170,  0.856564438218163,  0.576343581763443 ]
    mass: 6.940000
    reduced_to: 5
  - symbol: Li # 6
    coordinates: [  0.238744218568685,  0.513682869460213,  0.919003394360937 ]
    mass: 6.940000
    reduced_to: 6
  - symbol: Sn # 7
    coordinates: [  0.739059822793230,  0.356341586795728,  0.076798021096842 ]
    mass: 118.710000
    reduced_to: 7

supercell:
  lattice:
  - [    14.319879210169990,     0.000000000000000,     0.000000000000000 ] # a
  - [     0.002470282847933,    11.709528004713780,     0.000000000000000 ] # b
  - [    -0.000282843341880,    -5.862715404444437,    10.138876975214105 ] # c
  points:
  - symbol: Li # 1
    coordinates: [  0.079789999623698,  0.019942378085169,  0.459592625807831 ]
    mass: 6.940000
    reduced_to: 1
  - symbol: Li # 2
    coordinates: [  0.413123332957032,  0.019942378085169,  0.459592625807831 ]
    mass: 6.940000
    reduced_to: 1
  - symbol: Li # 3
    coordinates: [  0.746456666290365,  0.019942378085169,  0.459592625807831 ]
    mass: 6.940000
    reduced_to: 1
  - symbol: Li # 4
    coordinates: [  0.079789999623698,  0.519942378085170,  0.459592625807831 ]
    mass: 6.940000
    reduced_to: 1
  - symbol: Li # 5
    coordinates: [  0.413123332957032,  0.519942378085170,  0.459592625807831 ]
    mass: 6.940000
    reduced_to: 1
  - symbol: Li # 6
    coordinates: [  0.746456666290365,  0.519942378085170,  0.459592625807831 ]
    mass: 6.940000
    reduced_to: 1
  - symbol: Li # 7
    coordinates: [  0.079789999623698,  0.019942378085169,  0.959592625807831 ]
    mass: 6.940000
    reduced_to: 1
  - symbol: Li # 8
    coordinates: [  0.413123332957032,  0.019942378085169,  0.959592625807831 ]
    mass: 6.940000
    reduced_to: 1
  - symbol: Li # 9
    coordinates: [  0.746456666290365,  0.019942378085169,  0.959592625807831 ]
    mass: 6.940000
    reduced_to: 1
  - symbol: Li # 10
    coordinates: [  0.079789999623698,  0.519942378085170,  0.959592625807831 ]
    mass: 6.940000
    reduced_to: 1
  - symbol: Li # 11
    coordinates: [  0.413123332957032,  0.519942378085170,  0.959592625807831 ]
    mass: 6.940000
    reduced_to: 1
  - symbol: Li # 12
    coordinates: [  0.746456666290365,  0.519942378085170,  0.959592625807831 ]
    mass: 6.940000
    reduced_to: 1
  - symbol: Li # 13
    coordinates: [  0.246315771415868,  0.428225121297669,  0.038509968070636 ]
    mass: 6.940000
    reduced_to: 13
  - symbol: Li # 14
    coordinates: [  0.579649104749201,  0.428225121297669,  0.038509968070636 ]
    mass: 6.940000
    reduced_to: 13
  - symbol: Li # 15
    coordinates: [  0.912982438082534,  0.428225121297669,  0.038509968070636 ]
    mass: 6.940000
    reduced_to: 13
  - symbol: Li # 16
    coordinates: [  0.246315771415868,  0.928225121297669,  0.038509968070636 ]
    mass: 6.940000
    reduced_to: 13
  - symbol: Li # 17
    coordinates: [  0.579649104749201,  0.928225121297669,  0.038509968070636 ]
    mass: 6.940000
    reduced_to: 13
  - symbol: Li # 18
    coordinates: [  0.912982438082534,  0.928225121297669,  0.038509968070636 ]
    mass: 6.940000
    reduced_to: 13
  - symbol: Li # 19
    coordinates: [  0.246315771415868,  0.428225121297669,  0.538509968070636 ]
    mass: 6.940000
    reduced_to: 13
  - symbol: Li # 20
    coordinates: [  0.579649104749201,  0.428225121297669,  0.538509968070636 ]
    mass: 6.940000
    reduced_to: 13
  - symbol: Li # 21
    coordinates: [  0.912982438082534,  0.428225121297669,  0.538509968070636 ]
    mass: 6.940000
    reduced_to: 13
  - symbol: Li # 22
    coordinates: [  0.246315771415868,  0.928225121297669,  0.538509968070636 ]
    mass: 6.940000
    reduced_to: 13
  - symbol: Li # 23
    coordinates: [  0.579649104749201,  0.928225121297669,  0.538509968070636 ]
    mass: 6.940000
    reduced_to: 13
  - symbol: Li # 24
    coordinates: [  0.912982438082534,  0.928225121297669,  0.538509968070636 ]
    mass: 6.940000
    reduced_to: 13
  - symbol: Li # 25
    coordinates: [  0.246260267317490,  0.177985457140872,  0.288235980145061 ]
    mass: 6.940000
    reduced_to: 25
  - symbol: Li # 26
    coordinates: [  0.579593600650824,  0.177985457140872,  0.288235980145061 ]
    mass: 6.940000
    reduced_to: 25
  - symbol: Li # 27
    coordinates: [  0.912926933984157,  0.177985457140872,  0.288235980145061 ]
    mass: 6.940000
    reduced_to: 25
  - symbol: Li # 28
    coordinates: [  0.246260267317490,  0.677985457140872,  0.288235980145061 ]
    mass: 6.940000
    reduced_to: 25
  - symbol: Li # 29
    coordinates: [  0.579593600650824,  0.677985457140872,  0.288235980145061 ]
    mass: 6.940000
    reduced_to: 25
  - symbol: Li # 30
    coordinates: [  0.912926933984157,  0.677985457140872,  0.288235980145061 ]
    mass: 6.940000
    reduced_to: 25
  - symbol: Li # 31
    coordinates: [  0.246260267317490,  0.177985457140872,  0.788235980145061 ]
    mass: 6.940000
    reduced_to: 25
  - symbol: Li # 32
    coordinates: [  0.579593600650824,  0.177985457140872,  0.788235980145061 ]
    mass: 6.940000
    reduced_to: 25
  - symbol: Li # 33
    coordinates: [  0.912926933984157,  0.177985457140872,  0.788235980145061 ]
    mass: 6.940000
    reduced_to: 25
  - symbol: Li # 34
    coordinates: [  0.246260267317490,  0.677985457140872,  0.788235980145061 ]
    mass: 6.940000
    reduced_to: 25
  - symbol: Li # 35
    coordinates: [  0.579593600650824,  0.677985457140872,  0.788235980145061 ]
    mass: 6.940000
    reduced_to: 25
  - symbol: Li # 36
    coordinates: [  0.912926933984157,  0.677985457140872,  0.788235980145061 ]
    mass: 6.940000
    reduced_to: 25
  - symbol: Li # 37
    coordinates: [  0.079620265127011,  0.256830865398132,  0.196298229228088 ]
    mass: 6.940000
    reduced_to: 37
  - symbol: Li # 38
    coordinates: [  0.412953598460345,  0.256830865398132,  0.196298229228088 ]
    mass: 6.940000
    reduced_to: 37
  - symbol: Li # 39
    coordinates: [  0.746286931793678,  0.256830865398132,  0.196298229228088 ]
    mass: 6.940000
    reduced_to: 37
  - symbol: Li # 40
    coordinates: [  0.079620265127011,  0.756830865398132,  0.196298229228088 ]
    mass: 6.940000
    reduced_to: 37
  - symbol: Li # 41
    coordinates: [  0.412953598460345,  0.756830865398132,  0.196298229228088 ]
    mass: 6.940000
    reduced_to: 37
  - symbol: Li # 42
    coordinates: [  0.746286931793678,  0.756830865398132,  0.196298229228088 ]
    mass: 6.940000
    reduced_to: 37
  - symbol: Li # 43
    coordinates: [  0.079620265127011,  0.256830865398132,  0.696298229228088 ]
    mass: 6.940000
    reduced_to: 37
  - symbol: Li # 44
    coordinates: [  0.412953598460345,  0.256830865398132,  0.696298229228088 ]
    mass: 6.940000
    reduced_to: 37
  - symbol: Li # 45
    coordinates: [  0.746286931793678,  0.256830865398132,  0.696298229228088 ]
    mass: 6.940000
    reduced_to: 37
  - symbol: Li # 46
    coordinates: [  0.079620265127011,  0.756830865398132,  0.696298229228088 ]
    mass: 6.940000
    reduced_to: 37
  - symbol: Li # 47
    coordinates: [  0.412953598460345,  0.756830865398132,  0.696298229228088 ]
    mass: 6.940000
    reduced_to: 37
  - symbol: Li # 48
    coordinates: [  0.746286931793678,  0.756830865398132,  0.696298229228088 ]
    mass: 6.940000
    reduced_to: 37
  - symbol: Li # 49
    coordinates: [  0.246339738684390,  0.428282219109081,  0.288171790881721 ]
    mass: 6.940000
    reduced_to: 49
  - symbol: Li # 50
    coordinates: [  0.579673072017723,  0.428282219109081,  0.288171790881721 ]
    mass: 6.940000
    reduced_to: 49
  - symbol: Li # 51
    coordinates: [  0.913006405351057,  0.428282219109081,  0.288171790881721 ]
    mass: 6.940000
    reduced_to: 49
  - symbol: Li # 52
    coordinates: [  0.246339738684390,  0.928282219109081,  0.288171790881721 ]
    mass: 6.940000
    reduced_to: 49
  - symbol: Li # 53
    coordinates: [  0.579673072017723,  0.928282219109081,  0.288171790881721 ]
    mass: 6.940000
    reduced_to: 49
  - symbol: Li # 54
    coordinates: [  0.913006405351057,  0.928282219109081,  0.288171790881721 ]
    mass: 6.940000
    reduced_to: 49
  - symbol: Li # 55
    coordinates: [  0.246339738684390,  0.428282219109081,  0.788171790881721 ]
    mass: 6.940000
    reduced_to: 49
  - symbol: Li # 56
    coordinates: [  0.579673072017723,  0.428282219109081,  0.788171790881721 ]
    mass: 6.940000
    reduced_to: 49
  - symbol: Li # 57
    coordinates: [  0.913006405351057,  0.428282219109081,  0.788171790881721 ]
    mass: 6.940000
    reduced_to: 49
  - symbol: Li # 58
    coordinates: [  0.246339738684390,  0.928282219109081,  0.788171790881721 ]
    mass: 6.940000
    reduced_to: 49
  - symbol: Li # 59
    coordinates: [  0.579673072017723,  0.928282219109081,  0.788171790881721 ]
    mass: 6.940000
    reduced_to: 49
  - symbol: Li # 60
    coordinates: [  0.913006405351057,  0.928282219109081,  0.788171790881721 ]
    mass: 6.940000
    reduced_to: 49
  - symbol: Li # 61
    coordinates: [  0.079581406189562,  0.256841434730106,  0.459501697180468 ]
    mass: 6.940000
    reduced_to: 61
  - symbol: Li # 62
    coordinates: [  0.412914739522895,  0.256841434730106,  0.459501697180468 ]
    mass: 6.940000
    reduced_to: 61
  - symbol: Li # 63
    coordinates: [  0.746248072856228,  0.256841434730106,  0.459501697180468 ]
    mass: 6.940000
    reduced_to: 61
  - symbol: Li # 64
    coordinates: [  0.079581406189562,  0.756841434730106,  0.459501697180468 ]
    mass: 6.940000
    reduced_to: 61
  - symbol: Li # 65
    coordinates: [  0.412914739522895,  0.756841434730106,  0.459501697180468 ]
    mass: 6.940000
    reduced_to: 61
  - symbol: Li # 66
    coordinates: [  0.746248072856228,  0.756841434730106,  0.459501697180468 ]
    mass: 6.940000
    reduced_to: 61
  - symbol: Li # 67
    coordinates: [  0.079581406189562,  0.256841434730106,  0.959501697180468 ]
    mass: 6.940000
    reduced_to: 61
  - symbol: Li # 68
    coordinates: [  0.412914739522895,  0.256841434730106,  0.959501697180468 ]
    mass: 6.940000
    reduced_to: 61
  - symbol: Li # 69
    coordinates: [  0.746248072856228,  0.256841434730106,  0.959501697180468 ]
    mass: 6.940000
    reduced_to: 61
  - symbol: Li # 70
    coordinates: [  0.079581406189562,  0.756841434730106,  0.959501697180468 ]
    mass: 6.940000
    reduced_to: 61
  - symbol: Li # 71
    coordinates: [  0.412914739522895,  0.756841434730106,  0.959501697180468 ]
    mass: 6.940000
    reduced_to: 61
  - symbol: Li # 72
    coordinates: [  0.746248072856228,  0.756841434730106,  0.959501697180468 ]
    mass: 6.940000
    reduced_to: 61
  - symbol: Sn # 73
    coordinates: [  0.246353274264410,  0.178170793397864,  0.038399010548421 ]
    mass: 118.710000
    reduced_to: 73
  - symbol: Sn # 74
    coordinates: [  0.579686607597743,  0.178170793397864,  0.038399010548421 ]
    mass: 118.710000
    reduced_to: 73
  - symbol: Sn # 75
    coordinates: [  0.913019940931077,  0.178170793397864,  0.038399010548421 ]
    mass: 118.710000
    reduced_to: 73
  - symbol: Sn # 76
    coordinates: [  0.246353274264410,  0.678170793397864,  0.038399010548421 ]
    mass: 118.710000
    reduced_to: 73
  - symbol: Sn # 77
    coordinates: [  0.579686607597743,  0.678170793397864,  0.038399010548421 ]
    mass: 118.710000
    reduced_to: 73
  - symbol: Sn # 78
    coordinates: [  0.913019940931077,  0.678170793397864,  0.038399010548421 ]
    mass: 118.710000
    reduced_to: 73
  - symbol: Sn # 79
    coordinates: [  0.246353274264410,  0.178170793397864,  0.538399010548421 ]
    mass: 118.710000
    reduced_to: 73
  - symbol: Sn # 80
    coordinates: [  0.579686607597743,  0.178170793397864,  0.538399010548421 ]
    mass: 118.710000
    reduced_to: 73
  - symbol: Sn # 81
    coordinates: [  0.913019940931077,  0.178170793397864,  0.538399010548421 ]
    mass: 118.710000
    reduced_to: 73
  - symbol: Sn # 82
    coordinates: [  0.246353274264410,  0.678170793397864,  0.538399010548421 ]
    mass: 118.710000
    reduced_to: 73
  - symbol: Sn # 83
    coordinates: [  0.579686607597743,  0.678170793397864,  0.538399010548421 ]
    mass: 118.710000
    reduced_to: 73
  - symbol: Sn # 84
    coordinates: [  0.913019940931077,  0.678170793397864,  0.538399010548421 ]
    mass: 118.710000
    reduced_to: 73

displacements:
- atom:    1
  displacement:
    [   0.0100000000000000,  0.0000000000000000,  0.0000000000000000 ]
  forces:
  - [  -0.0290662106126547,  0.0027198367752135, -0.0005998688284308 ]
  - [  -0.0044978908263147,  0.0031822333112359, -0.0003324891440570 ]
  - [  -0.0045524220913649,  0.0025339976418763, -0.0007011927664280 ]
  - [  -0.0036792401224375,  0.0028584760148078, -0.0005166062619537 ]
  - [  -0.0036703585647047,  0.0028422081377357, -0.0004991898313165 ]
  - [  -0.0036700940690935,  0.0028751615900546, -0.0005344173405319 ]
  - [  -0.0037326142191887,  0.0028593391180038, -0.0005159985739738 ]
  - [  -0.0036479101981968,  0.0028483159840107, -0.0005229038652033 ]
  - [  -0.0036472561769187,  0.0028692262712866, -0.0005105671007186 ]
  - [  -0.0036795237101614,  0.0028586802072823, -0.0005163319874555 ]
  - [  -0.0036701415665448,  0.0028655859641731, -0.0005392872262746 ]
  - [  -0.0036718961782753,  0.0028516894672066, -0.0004933329764754 ]
  - [   0.0006636766484007, -0.0006521940231323,  0.0209160260856152 ]
  - [   0.0006536259315908, -0.0006666602566838,  0.0209357906132936 ]
  - [   0.0006641437648796, -0.0006816741079092,  0.0209565870463848 ]
  - [   0.0006322182016447, -0.0006772267515771,  0.0210548005998135 ]
  - [   0.0006595150334761, -0.0006670706789009,  0.0209358334541321 ]
  - [   0.0006325763533823, -0.0006547017837875,  0.0208146534860134 ]
  - [   0.0007434293511324, -0.0010801488533616,  0.0209725424647331 ]
  - [   0.0006614149315283, -0.0006665755063295,  0.0209355596452951 ]
  - [   0.0007482098881155, -0.0002778153866529,  0.0208988152444363 ]
  - [   0.0035822065547109, -0.0026608603075147,  0.0217750631272793 ]
  - [   0.0006998007302172, -0.0006671827286482,  0.0209349580109119 ]
  - [   0.0035178102552891,  0.0012665521353483,  0.0201316997408867 ]
  - [   0.0000259529188043, -0.0189345404505730, -0.0082523133605719 ]
  - [   0.0001506704284111, -0.0185585487633944, -0.0085703078657389 ]
  - [   0.0000208607962122, -0.0181871280074120, -0.0088813006877899 ]
  - [  -0.0001573135814397, -0.0179236568510532, -0.0082031041383743 ]
  - [   0.0001632060739212, -0.0185588635504246, -0.0085703898221254 ]
  - [  -0.0001620335824555, -0.0191936045885086, -0.0089374240487814 ]
  - [   0.0000290411117021, -0.0184723734855652, -0.0090495096519589 ]
  - [   0.0001511692535132, -0.0185593962669373, -0.0085693597793579 ]
  - [   0.0000232404781855, -0.0186429210007191, -0.0080956984311342 ]
  - [   0.0001271040091524, -0.0185833573341370, -0.0085839889943600 ]
  - [   0.0001191606643260, -0.0185586791485548, -0.0085701309144497 ]
  - [   0.0001273097877856, -0.0185338146984577, -0.0085551012307405 ]
  - [   0.0016199778765440,  0.0010896380990744,  0.0010749436914921 ]
  - [   0.0015856865793467,  0.0010785545455292,  0.0010850206017494 ]
  - [   0.0015838015824556,  0.0010995004558936,  0.0010659452527761 ]
  - [   0.0014114435762167,  0.0011066966690123,  0.0011057434603572 ]
  - [   0.0016310904175043,  0.0010383347980678,  0.0010972237214446 ]
  - [   0.0016282219439745,  0.0011377970222384,  0.0010574497282505 ]
  - [   0.0006560782203451,  0.0010795467533171,  0.0010706204921007 ]
  - [   0.0014499016106129,  0.0012200198834762,  0.0009094234555960 ]
  - [   0.0014493949711323,  0.0009572779526934,  0.0012464551255107 ]
  - [   0.0016210349276662,  0.0010884167859331,  0.0010760873556137 ]
  - [   0.0015847692266107,  0.0010965748224407,  0.0010756608098745 ]
  - [   0.0015839943662286,  0.0010812627151608,  0.0010763481259346 ]
  - [   0.0006282362737693,  0.0187918655574322, -0.0088698202744126 ]
  - [   0.0006176006281748,  0.0188012588769197, -0.0088924625888467 ]
  - [   0.0006283345283009,  0.0188110582530499, -0.0089157186448574 ]
  - [   0.0035162062849849,  0.0185415036976337, -0.0110178366303444 ]
  - [   0.0006638941704296,  0.0188008882105350, -0.0088918553665280 ]
  - [   0.0034560640342534,  0.0190626382827759, -0.0068322904407978 ]
  - [   0.0007017094758339,  0.0186200365424156, -0.0092766517773271 ]
  - [   0.0006256103515625,  0.0188016369938850, -0.0088915796950459 ]
  - [   0.0007084246608429,  0.0189691111445427, -0.0085303578525782 ]
  - [   0.0005971351638436,  0.0189002156257629, -0.0089603932574391 ]
  - [   0.0006239229114726,  0.0188011843711138, -0.0088919773697853 ]
  - [   0.0005967518081889,  0.0187018085271120, -0.0088202347978950 ]
  - [   0.0018318295478821,  0.0000447158236057, -0.0010553938336670 ]
  - [   0.0026171319186687, -0.0000235741026700, -0.0008553611114621 ]
  - [   0.0026147011667490,  0.0001367162913084, -0.0012471319641918 ]
  - [   0.0025776550173759,  0.0000911154784262, -0.0010490899439901 ]
  - [   0.0027999002486467,  0.0000466504134238, -0.0011047278530896 ]
  - [   0.0027987305074930,  0.0000652051530778, -0.0009977994486690 ]
  - [   0.0027861152775586,  0.0000544264912605, -0.0010486950632185 ]
  - [   0.0027503138408065,  0.0000581424683332, -0.0010638842359185 ]
  - [   0.0027495576068759,  0.0000514676794410, -0.0010357950814068 ]
  - [   0.0027857068926096,  0.0000545796938241, -0.0010504939127713 ]
  - [   0.0027503594756126,  0.0000591953285038, -0.0010436484590173 ]
  - [   0.0027494933456182,  0.0000512702390552, -0.0010569461155683 ]
  - [  -0.0020861402153969, -0.0035741589963436, -0.0029807356186211 ]
  - [  -0.0020899176597595, -0.0035772137343884, -0.0029823831282556 ]
  - [  -0.0020808205008507, -0.0035807359963655, -0.0029852944426239 ]
  - [  -0.0019591897726059, -0.0035853805020452, -0.0032064276747406 ]
  - [  -0.0020915381610394, -0.0035790409892797, -0.0029832259751856 ]
  - [  -0.0019556321203709, -0.0035715103149414, -0.0027635972946882 ]
  - [   0.0072746835649014,  0.0010664276778698, -0.0003098896704614 ]
  - [  -0.0022997185587883, -0.0035775620490313, -0.0029835565946996 ]
  - [   0.0070274136960506, -0.0080223865807056, -0.0055412808433175 ]
  - [  -0.0019576251506805, -0.0037762997671962, -0.0028768852353096 ]
  - [  -0.0020949169993401, -0.0035781003534794, -0.0029821391217411 ]
  - [  -0.0019587874412537, -0.0033831167966127, -0.0030868579633534 ]
- atom:    1
  displacement:
    [  -0.0100000000000000,  0.0000000000000000,  0.0000000000000000 ]
  forces:
  - [   0.0217147357761860,  0.0027630240656435, -0.0005670085083693 ]
  - [  -0.0027996113058180,  0.0025349808856845, -0.0007006914820522 ]
  - [  -0.0028543525841087,  0.0031836125999689, -0.0003317890223116 ]
  - [  -0.0036732079461217,  0.0028591465670615, -0.0005164693575352 ]
  - [  -0.0036813428159803,  0.0028753536753356, -0.0005339388735592 ]
  - [  -0.0036812012549490,  0.0028417464345694, -0.0004995267372578 ]
  - [  -0.0036201593466103,  0.0028591421432793, -0.0005161839071661 ]
  - [  -0.0037042838521302,  0.0028697738889605, -0.0005107433535159 ]
  - [  -0.0037034223787487,  0.0028476680163294, -0.0005227031651884 ]
  - [  -0.0036735646426678,  0.0028590657748282, -0.0005160539876670 ]
  - [  -0.0036814142949879,  0.0028520210180432, -0.0004933488089591 ]
  - [  -0.0036833086051047,  0.0028651126194745, -0.0005396644119173 ]
  - [   0.0006564072682522, -0.0006816349923611,  0.0209560394287109 ]
  - [   0.0006681958329864, -0.0006667589768767,  0.0209358222782612 ]
  - [   0.0006569183897227, -0.0006522415205836,  0.0209160149097443 ]
  - [   0.0006875904509798, -0.0006553975399584,  0.0208150483667850 ]
  - [   0.0006614343146794, -0.0006669989670627,  0.0209358613938093 ]
  - [   0.0006879651336931, -0.0006775957299396,  0.0210552532225847 ]
  - [   0.0005721240886487, -0.0002729641273618,  0.0208981446921825 ]
  - [   0.0006586852250621, -0.0006667915731668,  0.0209354069083929 ]
  - [   0.0005753108416684, -0.0010737422853708,  0.0209722910076380 ]
  - [  -0.0022185565903783,  0.0012847715988755,  0.0201200619339943 ]
  - [   0.0006201001815498, -0.0006668558344245,  0.0209350176155567 ]
  - [  -0.0022429488599300, -0.0026425328105688,  0.0217632409185171 ]
  - [   0.0002262453490403, -0.0181859768927097, -0.0088827274739742 ]
  - [   0.0000968596941675, -0.0185583792626858, -0.0085702743381262 ]
  - [   0.0002246494987048, -0.0189329721033573, -0.0082537103444338 ]
  - [   0.0004089236317668, -0.0191944688558578, -0.0089378170669079 ]
  - [   0.0000850410651765, -0.0185588449239731, -0.0085703730583191 ]
  - [   0.0004085058462806, -0.0179241020232439, -0.0082036294043064 ]
  - [   0.0002232642145827, -0.0186432041227818, -0.0080942660570145 ]
  - [   0.0000977935560513, -0.0185593888163567, -0.0085694268345833 ]
  - [   0.0002213659463450, -0.0184726919978857, -0.0090481601655483 ]
  - [   0.0001214117437485, -0.0185339637100697, -0.0085551915690303 ]
  - [   0.0001305241603404, -0.0185586940497160, -0.0085699576884508 ]
  - [   0.0001216607925016, -0.0185834076255560, -0.0085841231048107 ]
  - [   0.0015650838613510,  0.0010892867576331,  0.0010752016678452 ]
  - [   0.0016037058085203,  0.0010990122100338,  0.0010652905330062 ]
  - [   0.0016018524765968,  0.0010786388302222,  0.0010859658941627 ]
  - [   0.0017730947583914,  0.0010961999651045,  0.0010879626497626 ]
  - [   0.0015569292008877,  0.0011383903911337,  0.0010564150288701 ]
  - [   0.0015557892620564,  0.0010393012780696,  0.0010972348973155 ]
  - [   0.0025310053024441,  0.0010854571592063,  0.0010744668543339 ]
  - [   0.0017371047288179,  0.0009572156704962,  0.0012457175180316 ]
  - [   0.0017385147511959,  0.0012198581825942,  0.0009087044745684 ]
  - [   0.0015657031908631,  0.0010887649841607,  0.0010760501027107 ]
  - [   0.0016027633100748,  0.0010811841348186,  0.0010753255337477 ]
  - [   0.0016019856557250,  0.0010965225519612,  0.0010768398642540 ]
  - [   0.0006208755075932,  0.0188111774623394, -0.0089155416935682 ]
  - [   0.0006321255350485,  0.0188011173158884, -0.0088926190510392 ]
  - [   0.0006211083964445,  0.0187914874404669, -0.0088695902377367 ]
  - [  -0.0022232411429286,  0.0190614294260740, -0.0068150293081999 ]
  - [   0.0005862253019586,  0.0188009738922119, -0.0088919186964631 ]
  - [  -0.0022498737089336,  0.0185399763286114, -0.0110000912100077 ]
  - [   0.0005412218160927,  0.0189715083688498, -0.0085256416350603 ]
  - [   0.0006235438631848,  0.0188017208129168, -0.0088914781808853 ]
  - [   0.0005458358209580,  0.0186221599578857, -0.0092719690874219 ]
  - [   0.0006526029901579,  0.0187018159776926, -0.0088208895176649 ]
  - [   0.0006257017375901,  0.0188012085855007, -0.0088919335976243 ]
  - [   0.0006521779578179,  0.0189000274986029, -0.0089613134041429 ]
  - [   0.0036876015365124,  0.0000523407943547, -0.0010520850773901 ]
  - [   0.0029041450470686,  0.0001365032512695, -0.0012476204428822 ]
  - [   0.0029043313115835, -0.0000246006529778, -0.0008544423617423 ]
  - [   0.0029408819973469,  0.0000676834024489, -0.0010495437309146 ]
  - [   0.0027206260710955,  0.0000646519474685, -0.0009967386722565 ]
  - [   0.0027218479663134,  0.0000470415689051, -0.0011033937335014 ]
  - [   0.0027306724805385,  0.0000545075163245, -0.0010493458248675 ]
  - [   0.0027685426175594,  0.0000512106344104, -0.0010358612053096 ]
  - [   0.0027678543701768,  0.0000585652887821, -0.0010641585104167 ]
  - [   0.0027303341776133,  0.0000545685179532, -0.0010500377975404 ]
  - [   0.0027684718370438,  0.0000511077232659, -0.0010570471640676 ]
  - [   0.0027675125747919,  0.0000593424774706, -0.0010439110919833 ]
  - [  -0.0020876638591290, -0.0035810666158795, -0.0029847472906113 ]
  - [  -0.0020865015685558, -0.0035771196708083, -0.0029824902303517 ]
  - [  -0.0020826570689678, -0.0035739466547966, -0.0029810941778123 ]
  - [  -0.0022122301161289, -0.0035715503618121, -0.0027615791186690 ]
  - [  -0.0020811706781387, -0.0035791210830212, -0.0029832371510565 ]
  - [  -0.0022070594131947, -0.0035853050649166, -0.0032055936753750 ]
  - [  -0.0112471841275692, -0.0080600455403328, -0.0055619841441512 ]
  - [  -0.0018678791821003, -0.0035779401659966, -0.0029833167791367 ]
  - [  -0.0114027932286263,  0.0010281056165695, -0.0003318539820611 ]
  - [  -0.0022120177745819, -0.0033821342512965, -0.0030868113972247 ]
  - [  -0.0020841434597969, -0.0035781953483820, -0.0029822224751115 ]
  - [  -0.0022116377949715, -0.0037748999893665, -0.0028784251771867 ]
- atom:    1
  displacement:
    [   0.0000021096348136,  0.0099999997774720,  0.0000000000000000 ]
  forces:
  - [  -0.0037031224928796, -0.0173827297985554, -0.0079508423805237 ]
  - [  -0.0040012332610786,  0.0032138845417649, -0.0002466619480401 ]
  - [  -0.0033525337930769,  0.0032139550894499, -0.0002468971069902 ]
  - [  -0.0036764633841813,  0.0033478925470263, -0.0005220181774348 ]
  - [  -0.0036588553339243,  0.0028980693314224, -0.0005241790786386 ]
  - [  -0.0036924032028764,  0.0028976295143366, -0.0005244656931609 ]
  - [  -0.0036764959804714,  0.0028434928972274, -0.0005513594951481 ]
  - [  -0.0036653801798820,  0.0028538659680635, -0.0005336292088032 ]
  - [  -0.0036860029213130,  0.0028534010052681, -0.0005334815941751 ]
  - [  -0.0036765541881323,  0.0029713537078351, -0.0003045599441975 ]
  - [  -0.0036826063878834,  0.0028567262925208, -0.0005003197584301 ]
  - [  -0.0036708326078951,  0.0028563323430717, -0.0005005227867514 ]
  - [   0.0006669720169157, -0.0006935521960258,  0.0209021605551243 ]
  - [   0.0006608781404793, -0.0006675664335489,  0.0209300722926855 ]
  - [   0.0006537168519571, -0.0006932346150279,  0.0209024492651224 ]
  - [   0.0006723280530423, -0.0006260834052227,  0.0209401771426201 ]
  - [   0.0006604174850509, -0.0006667707930319,  0.0209358856081963 ]
  - [   0.0006478762952611, -0.0006260877707973,  0.0209398772567511 ]
  - [   0.0006377010140568, -0.0007431348785758,  0.0209200326353312 ]
  - [   0.0006602116627619, -0.0006626825779676,  0.0209458470344543 ]
  - [   0.0006783672142774, -0.0007347287610173,  0.0209214240312576 ]
  - [  -0.0016366244526580,  0.0005800770595670,  0.0202543064951897 ]
  - [   0.0006597497267649, -0.0006740503013134,  0.0209407433867455 ]
  - [   0.0029372388962656,  0.0005743224173784,  0.0202614404261112 ]
  - [  -0.0002700954792090, -0.0187849346548319, -0.0082893073558807 ]
  - [   0.0001238256372744, -0.0185573007911444, -0.0085844248533249 ]
  - [   0.0005193570395932, -0.0187854431569576, -0.0082905907183886 ]
  - [   0.0007395452121273, -0.0191489420831203, -0.0090665370225906 ]
  - [   0.0001241180871148, -0.0185572952032089, -0.0085653085261583 ]
  - [  -0.0004907844122499, -0.0191481877118349, -0.0090656261891127 ]
  - [   0.0002398889337201, -0.0183227658271790, -0.0085084456950426 ]
  - [   0.0001244207669515, -0.0185698084533215, -0.0085618831217289 ]
  - [   0.0000085566571215, -0.0183240808546543, -0.0085075218230486 ]
  - [   0.0001190507318825, -0.0185489803552628, -0.0085448641330004 ]
  - [   0.0001248571788892, -0.0185591988265514, -0.0085686603561044 ]
  - [   0.0001297578419326, -0.0185489039868116, -0.0085449600592256 ]
  - [   0.0015927441418171,  0.0009546831715852,  0.0012183925136924 ]
  - [   0.0015908796340227,  0.0010875407606363,  0.0010747751221061 ]
  - [   0.0015965215861797,  0.0010878739412874,  0.0010756701231003 ]