# Thermal properties / unit cell (natom)

unit:
  temperature:   K
  free_energy:   kJ/mol
  entropy:       J/K/mol
  heat_capacity: J/K/mol

natom: 4    
cutoff_frequency: 0.00000
num_modes: 180048
num_integrated_modes: 180046

zero_point_energy:      16.7388093

thermal_properties:
- temperature:         0.0000000
  free_energy:        16.7388093
  entropy:             0.0000000
  heat_capacity:       0.0000000
  energy:             16.7388093

- temperature:        10.0000000
  free_energy:        16.7385763
  entropy:             0.0775822
  heat_capacity:       0.2506286
  energy:             16.7393521

- temperature:        20.0000000
  free_energy:        16.7347792
  entropy:             0.9089296
  heat_capacity:       3.1585782
  energy:             16.7529578

- temperature:        30.0000000
  free_energy:        16.7152257
  entropy:             3.2343176
  heat_capacity:       8.9004374
  energy:             16.8122552

- temperature:        40.0000000
  free_energy:        16.6665589
  entropy:             6.6246041
  heat_capacity:      14.9032124
  energy:             16.9315430

- temperature:        50.0000000
  free_energy:        16.5809418
  entropy:            10.5620088
  heat_capacity:      20.5421665
  energy:             17.1090422

- temperature:        60.0000000
  free_energy:        16.4543729
  entropy:            14.7877673
  heat_capacity:      25.9546539
  energy:             17.3416389

- temperature:        70.0000000
  free_energy:        16.2846064
  entropy:            19.1891646
  heat_capacity:      31.2761779
  energy:             17.6278479

- temperature:        80.0000000
  free_energy:        16.0701971
  entropy:            23.7087505
  heat_capacity:      36.5155382
  energy:             17.9668971

- temperature:        90.0000000
  free_energy:        15.8101750
  entropy:            28.3053576
  heat_capacity:      41.6040372
  energy:             18.3576572

- temperature:       100.0000000
  free_energy:        15.5039557
  entropy:            32.9423290
  heat_capacity:      46.4564257
  energy:             18.7981886

- temperature:       110.0000000
  free_energy:        15.1513065
  entropy:            37.5860218
  heat_capacity:      51.0047297
  energy:             19.2857689

- temperature:       120.0000000
  free_energy:        14.7523121
  entropy:            42.2068332
  heat_capacity:      55.2085655
  energy:             19.8171321

- temperature:       130.0000000
  free_energy:        14.3073289
  entropy:            46.7800878
  heat_capacity:      59.0530849
  energy:             20.3887404

- temperature:       140.0000000
  free_energy:        13.8169345
  entropy:            51.2862464
  heat_capacity:      62.5425896
  energy:             20.9970090

- temperature:       150.0000000
  free_energy:        13.2818772
  entropy:            55.7105784
  heat_capacity:      65.6938776
  energy:             21.6384640

- temperature:       160.0000000
  free_energy:        12.7030312
  entropy:            60.0425454
  heat_capacity:      68.5308434
  energy:             22.3098385

- temperature:       170.0000000
  free_energy:        12.0813580
  entropy:            64.2750907
  heat_capacity:      71.0806066
  energy:             23.0081235

- temperature:       180.0000000
  free_energy:        11.4178753
  entropy:            68.4039487
  heat_capacity:      73.3709627
  energy:             23.7305861

- temperature:       190.0000000
  free_energy:        10.7136318
  entropy:            72.4270322
  heat_capacity:      75.4288281
  energy:             24.4747679

- temperature:       200.0000000
  free_energy:         9.9696888
  entropy:            76.3439151
  heat_capacity:      77.2793740
  energy:             25.2384718

- temperature:       210.0000000
  free_energy:         9.1871049
  entropy:            80.1554115
  heat_capacity:      78.9456151
  energy:             26.0197413

- temperature:       220.0000000
  free_energy:         8.3669262
  entropy:            83.8632405
  heat_capacity:      80.4482817
  energy:             26.8168391

- temperature:       230.0000000
  free_energy:         7.5101778
  entropy:            87.4697641
  heat_capacity:      81.8058601
  energy:             27.6282236

- temperature:       240.0000000
  free_energy:         6.6178593
  entropy:            90.9777842
  heat_capacity:      83.0347263
  energy:             28.4525275

- temperature:       250.0000000
  free_energy:         5.6909402
  entropy:            94.3903887
  heat_capacity:      84.1493248
  energy:             29.2885374

- temperature:       260.0000000
  free_energy:         4.7303587
  entropy:            97.7108342
  heat_capacity:      85.1623636
  energy:             30.1351756

- temperature:       270.0000000
  free_energy:         3.7370196
  entropy:           100.9424589
  heat_capacity:      86.0850075
  energy:             30.9914835

- temperature:       280.0000000
  free_energy:         2.7117944
  entropy:           104.0886173
  heat_capacity:      86.9270609
  energy:             31.8566073

- temperature:       290.0000000
  free_energy:         1.6555211
  entropy:           107.1526340
  heat_capacity:      87.6971357
  energy:             32.7297849

- temperature:       300.0000000
  free_energy:         0.5690047
  entropy:           110.1377690
  heat_capacity:      88.4028013
  energy:             33.6103354

- temperature:       310.0000000
  free_energy:        -0.5469820
  entropy:           113.0471951
  heat_capacity:      89.0507183
  energy:             34.4976485

- temperature:       320.0000000
  free_energy:        -1.6916971
  entropy:           115.8839813
  heat_capacity:      89.6467550
  energy:             35.3911769

- temperature:       330.0000000
  free_energy:        -2.8644293
  entropy:           118.6510829
  heat_capacity:      90.1960904
  energy:             36.2904280

- temperature:       340.0000000
  free_energy:        -4.0644960
  entropy:           121.3513362
  heat_capacity:      90.7033021
  energy:             37.1949583

- temperature:       350.0000000
  free_energy:        -5.2912423
  entropy:           123.9874557
  heat_capacity:      91.1724438
  energy:             38.1043672

- temperature:       360.0000000
  free_energy:        -6.5440400
  entropy:           126.5620342
  heat_capacity:      91.6071120
  energy:             39.0182923

- temperature:       370.0000000
  free_energy:        -7.8222861
  entropy:           129.0775441
  heat_capacity:      92.0105034
  energy:             39.9364052

- temperature:       380.0000000
  free_energy:        -9.1254018
  entropy:           131.5363408
  heat_capacity:      92.3854647
  energy:             40.8584077

- temperature:       390.0000000
  free_energy:       -10.4528313
  entropy:           133.9406656
  heat_capacity:      92.7345361
  energy:             41.7840283

- temperature:       400.0000000
  free_energy:       -11.8040407
  entropy:           136.2926509
  heat_capacity:      93.0599884
  energy:             42.7130197

- temperature:       410.0000000
  free_energy:       -13.1785167
  entropy:           138.5943238
  heat_capacity:      93.3638556
  energy:             43.6451561

- temperature:       420.0000000
  free_energy:       -14.5757659
  entropy:           140.8476115
  heat_capacity:      93.6479630
  energy:             44.5802310

- temperature:       430.0000000
  free_energy:       -15.9953137
  entropy:           143.0543458
  heat_capacity:      93.9139513
  energy:             45.5180550

- temperature:       440.0000000
  free_energy:       -17.4367034
  entropy:           145.2162681
  heat_capacity:      94.1632985
  energy:             46.4584545

- temperature:       450.0000000
  free_energy:       -18.8994952
  entropy:           147.3350337
  heat_capacity:      94.3973380
  energy:             47.4012700

- temperature:       460.0000000
  free_energy:       -20.3832655
  entropy:           149.4122169
  heat_capacity:      94.6172750
  energy:             48.3463543

- temperature:       470.0000000
  free_energy:       -21.8876060
  entropy:           151.4493150
  heat_capacity:      94.8242006
  energy:             49.2935721

- temperature:       480.0000000
  free_energy:       -23.4121229
  entropy:           153.4477525
  heat_capacity:      95.0191045
  energy:             50.2427982

- temperature:       490.0000000
  free_energy:       -24.9564367
  entropy:           155.4088853
  heat_capacity:      95.2028854
  energy:             51.1939171

- temperature:       500.0000000
  free_energy:       -26.5201806
  entropy:           157.3340044
  heat_capacity:      95.3763612
  energy:             52.1468216

- temperature:       510.0000000
  free_energy:       -28.1030008
  entropy:           159.2243398
  heat_capacity:      95.5402771
  energy:             53.1014125

- temperature:       520.0000000
  free_energy:       -29.7045554
  entropy:           161.0810633
  heat_capacity:      95.6953130
  energy:             54.0575976

- temperature:       530.0000000
  free_energy:       -31.3245138
  entropy:           162.9052924
  heat_capacity:      95.8420905
  energy:             55.0152912

- temperature:       540.0000000
  free_energy:       -32.9625565
  entropy:           164.6980930
  heat_capacity:      95.9811784
  energy:             55.9744137

- temperature:       550.0000000
  free_energy:       -34.6183743
  entropy:           166.4604821
  heat_capacity:      96.1130979
  energy:             56.9348909

- temperature:       560.0000000
  free_energy:       -36.2916680
  entropy:           168.1934310
  heat_capacity:      96.2383276
  energy:             57.8966534

- temperature:       570.0000000
  free_energy:       -37.9821478
  entropy:           169.8978675
  heat_capacity:      96.3573071
  energy:             58.8596366

- temperature:       580.0000000
  free_energy:       -39.6895332
  entropy:           171.5746781
  heat_capacity:      96.4704409
  energy:             59.8237801

- temperature:       590.0000000
  free_energy:       -41.4135522
  entropy:           173.2247108
  heat_capacity:      96.5781018
  energy:             60.7890272

- temperature:       600.0000000
  free_energy:       -43.1539409
  entropy:           174.8487765
  heat_capacity:      96.6806335
  energy:             61.7553250

- temperature:       610.0000000
  free_energy:       -44.9104437
  entropy:           176.4476517
  heat_capacity:      96.7783536
  energy:             62.7226238

- temperature:       620.0000000
  free_energy:       -46.6828125
  entropy:           178.0220798
  heat_capacity:      96.8715557
  energy:             63.6908770

- temperature:       630.0000000
  free_energy:       -48.4708062
  entropy:           179.5727730
  heat_capacity:      96.9605113
  energy:             64.6600408

- temperature:       640.0000000
  free_energy:       -50.2741911
  entropy:           181.1004141
  heat_capacity:      97.0454724
  energy:             65.6300739

- temperature:       650.0000000
  free_energy:       -52.0927398
  entropy:           182.6056577
  heat_capacity:      97.1266725
  energy:             66.6009377

- temperature:       660.0000000
  free_energy:       -53.9262317
  entropy:           184.0891322
  heat_capacity:      97.2043285
  energy:             67.5725956

- temperature:       670.0000000
  free_energy:       -55.7744519
  entropy:           185.5514404
  heat_capacity:      97.2786420
  energy:             68.5450131

- temperature:       680.0000000
  free_energy:       -57.6371919
  entropy:           186.9931614
  heat_capacity:      97.3498006
  energy:             69.5181579

- temperature:       690.0000000
  free_energy:       -59.5142484
  entropy:           188.4148516
  heat_capacity:      97.4179790
  energy:             70.4919992

- temperature:       700.0000000
  free_energy:       -61.4054239
  entropy:           189.8170457
  heat_capacity:      97.4833402
  energy:             71.4665081

- temperature:       710.0000000
  free_energy:       -63.3105260
  entropy:           191.2002580
  heat_capacity:      97.5460361
  energy:             72.4416571

- temperature:       720.0000000
  free_energy:       -65.2293674
  entropy:           192.5649831
  heat_capacity:      97.6062087
  energy:             73.4174204

- temperature:       730.0000000
  free_energy:       -67.1617657
  entropy:           193.9116973
  heat_capacity:      97.6639907
  energy:             74.3937733

- temperature:       740.0000000
  free_energy:       -69.1075429
  entropy:           195.2408588
  heat_capacity:      97.7195061
  energy:             75.3706927

- temperature:       750.0000000
  free_energy:       -71.0665258
  entropy:           196.5529095
  heat_capacity:      97.7728714
  energy:             76.3481563

- temperature:       760.0000000
  free_energy:       -73.0385454
  entropy:           197.8482746
  heat_capacity:      97.8241953
  energy:             77.3261433

- temperature:       770.0000000
  free_energy:       -75.0234370
  entropy:           199.1273646
  heat_capacity:      97.8735801
  energy:             78.3046337

- temperature:       780.0000000
  free_energy:       -77.0210398
  entropy:           200.3905751
  heat_capacity:      97.9211216
  energy:             79.2836087

- temperature:       790.0000000
  free_energy:       -79.0311969
  entropy:           201.6382876
  heat_capacity:      97.9669100
  energy:             80.2630503

- temperature:       800.0000000
  free_energy:       -81.0537551
  entropy:           202.8708706
  heat_capacity:      98.0110299
  energy:             81.2429414

- temperature:       810.0000000
  free_energy:       -83.0885651
  entropy:           204.0886799
  heat_capacity:      98.0535609
  energy:             82.2232656

- temperature:       820.0000000
  free_energy:       -85.1354806
  entropy:           205.2920588
  heat_capacity:      98.0945780
  energy:             83.2040076

- temperature:       830.0000000
  free_energy:       -87.1943592
  entropy:           206.4813393
  heat_capacity:      98.1341518
  energy:             84.1851524

- temperature:       840.0000000
  free_energy:       -89.2650615
  entropy:           207.6568423
  heat_capacity:      98.1723490
  energy:             85.1666860

- temperature:       850.0000000
  free_energy:       -91.3474512
  entropy:           208.8188778
  heat_capacity:      98.2092324
  energy:             86.1485950

- temperature:       860.0000000
  free_energy:       -93.4413952
  entropy:           209.9677461
  heat_capacity:      98.2448611
  energy:             87.1308665

- temperature:       870.0000000
  free_energy:       -95.5467632
  entropy:           211.1037372
  heat_capacity:      98.2792913
  energy:             88.1134882

- temperature:       880.0000000
  free_energy:       -97.6634279
  entropy:           212.2271323
  heat_capacity:      98.3125758
  energy:             89.0964485

- temperature:       890.0000000
  free_energy:       -99.7912648
  entropy:           213.3382032
  heat_capacity:      98.3447646
  energy:             90.0797361

- temperature:       900.0000000
  free_energy:      -101.9301518
  entropy:           214.4372134
  heat_capacity:      98.3759052
  energy:             91.0633403

- temperature:       910.0000000
  free_energy:      -104.0799697
  entropy:           215.5244181
  heat_capacity:      98.4060423
  energy:             92.0472508

- temperature:       920.0000000
  free_energy:      -106.2406016
  entropy:           216.6000647
  heat_capacity:      98.4352184
  energy:             93.0314579

- temperature:       930.0000000
  free_energy:      -108.4119332
  entropy:           217.6643929
  heat_capacity:      98.4634739
  energy:             94.0159521

- temperature:       940.0000000
  free_energy:      -110.5938525
  entropy:           218.7176351
  heat_capacity:      98.4908467
  energy:             95.0007245

- temperature:       950.0000000
  free_energy:      -112.7862497
  entropy:           219.7600168
  heat_capacity:      98.5173733
  energy:             95.9857662

- temperature:       960.0000000
  free_energy:      -114.9890174
  entropy:           220.7917569
  heat_capacity:      98.5430880
  energy:             96.9710692

- temperature:       970.0000000
  free_energy:      -117.2020501
  entropy:           221.8130675
  heat_capacity:      98.5680234
  energy:             97.9566254

- temperature:       980.0000000
  free_energy:      -119.4252447
  entropy:           222.8241549
  heat_capacity:      98.5922106
  energy:             98.9424272

- temperature:       990.0000000
  free_energy:      -121.6584998
  entropy:           223.8252192
  heat_capacity:      98.6156792
  energy:             99.9284672

- temperature:      1000.0000000
  free_energy:      -123.9017163
  entropy:           224.8164547
  heat_capacity:      98.6384572
  energy:            100.9147385
