# Thermal properties / unit cell (natom)

unit:
  temperature:   K
  free_energy:   kJ/mol
  entropy:       J/K/mol
  heat_capacity: J/K/mol

natom: 6    
cutoff_frequency: 0.00000
num_modes: 116640
num_integrated_modes: 115672

zero_point_energy:       5.2263357

thermal_properties:
- temperature:         0.0000000
  free_energy:         5.2263357
  entropy:             0.0000000
  heat_capacity:       0.0000000
  energy:              5.2263357

- temperature:        10.0000000
  free_energy:         5.2071298
  entropy:             6.5786441
  heat_capacity:      16.4114655
  energy:              5.2729162

- temperature:        20.0000000
  free_energy:         5.0272923
  entropy:            31.8163761
  heat_capacity:      61.9265231
  energy:              5.6636198

- temperature:        30.0000000
  free_energy:         4.5496667
  entropy:            63.8038620
  heat_capacity:      95.1528370
  energy:              6.4637825

- temperature:        40.0000000
  free_energy:         3.7578478
  entropy:            94.0137885
  heat_capacity:     113.9670419
  energy:              7.5183993

- temperature:        50.0000000
  free_energy:         2.6812741
  entropy:           120.7091850
  heat_capacity:     124.7562605
  energy:              8.7167334

- temperature:        60.0000000
  free_energy:         1.3547690
  entropy:           144.0808239
  heat_capacity:     131.3127777
  energy:              9.9996184

- temperature:        70.0000000
  free_energy:        -0.1910474
  entropy:           164.6621350
  heat_capacity:     135.5343171
  energy:             11.3353021

- temperature:        80.0000000
  free_energy:        -1.9308678
  entropy:           182.9583531
  heat_capacity:     138.3906052
  energy:             12.7058004

- temperature:        90.0000000
  free_energy:        -3.8439798
  entropy:           199.3812146
  heat_capacity:     140.4044051
  energy:             14.1003295

- temperature:       100.0000000
  free_energy:        -5.9133336
  entropy:           214.2541915
  heat_capacity:     141.8735099
  energy:             15.5120855

- temperature:       110.0000000
  free_energy:        -8.1247467
  entropy:           227.8302924
  heat_capacity:     142.9762251
  energy:             16.9365855

- temperature:       120.0000000
  free_energy:       -10.4662851
  entropy:           240.3087477
  heat_capacity:     143.8240526
  energy:             18.3707646

- temperature:       130.0000000
  free_energy:       -12.9277947
  entropy:           251.8481196
  heat_capacity:     144.4893879
  energy:             19.8124608

- temperature:       140.0000000
  free_energy:       -15.5005455
  entropy:           262.5760928
  heat_capacity:     145.0207883
  energy:             21.2601075

- temperature:       150.0000000
  free_energy:       -18.1769607
  entropy:           272.5966904
  heat_capacity:     145.4517555
  energy:             22.7125429

- temperature:       160.0000000
  free_energy:       -20.9504086
  entropy:           281.9956007
  heat_capacity:     145.8059827
  energy:             24.1688876

- temperature:       170.0000000
  free_energy:       -23.8150394
  entropy:           290.8441393
  heat_capacity:     146.1005946
  energy:             25.6284643

- temperature:       180.0000000
  free_energy:       -26.7656575
  entropy:           299.2022259
  heat_capacity:     146.3482093
  energy:             27.0907431

- temperature:       190.0000000
  free_energy:       -29.7976192
  entropy:           307.1206462
  heat_capacity:     146.5582855
  energy:             28.5553036

- temperature:       200.0000000
  free_energy:       -32.9067502
  entropy:           314.6427904
  heat_capacity:     146.7380236
  energy:             30.0218079

- temperature:       210.0000000
  free_energy:       -36.0892791
  entropy:           321.8060033
  heat_capacity:     146.8929811
  energy:             31.4899816

- temperature:       220.0000000
  free_energy:       -39.3417821
  entropy:           328.6426438
  heat_capacity:     147.0275021
  energy:             32.9595995

- temperature:       230.0000000
  free_energy:       -42.6611378
  entropy:           335.1809255
  heat_capacity:     147.1450208
  energy:             34.4304751

- temperature:       240.0000000
  free_energy:       -46.0444889
  entropy:           341.4455890
  heat_capacity:     147.2482806
  energy:             35.9024525

- temperature:       250.0000000
  free_energy:       -49.4892105
  entropy:           347.4584443
  heat_capacity:     147.3394942
  energy:             37.3754006

- temperature:       260.0000000
  free_energy:       -52.9928831
  entropy:           353.2388126
  heat_capacity:     147.4204619
  energy:             38.8492082

- temperature:       270.0000000
  free_energy:       -56.5532693
  entropy:           358.8038886
  heat_capacity:     147.4926602
  energy:             40.3237806

- temperature:       280.0000000
  free_energy:       -60.1682946
  entropy:           364.1690389
  heat_capacity:     147.5573095
  energy:             41.7990363

- temperature:       290.0000000
  free_energy:       -63.8360298
  entropy:           369.3480511
  heat_capacity:     147.6154253
  energy:             43.2749050

- temperature:       300.0000000
  free_energy:       -67.5546767
  entropy:           374.3533418
  heat_capacity:     147.6678580
  energy:             44.7513259

- temperature:       310.0000000
  free_energy:       -71.3225551
  entropy:           379.1961313
  heat_capacity:     147.7153243
  energy:             46.2282456

- temperature:       320.0000000
  free_energy:       -75.1380916
  entropy:           383.8865921
  heat_capacity:     147.7584315
  energy:             47.7056178

- temperature:       330.0000000
  free_energy:       -78.9998101
  entropy:           388.4339744
  heat_capacity:     147.7976969
  energy:             49.1834015

- temperature:       340.0000000
  free_energy:       -82.9063224
  entropy:           392.8467143
  heat_capacity:     147.8335633
  energy:             50.6615604

- temperature:       350.0000000
  free_energy:       -86.8563213
  entropy:           397.1325258
  heat_capacity:     147.8664117
  energy:             52.1400627

- temperature:       360.0000000
  free_energy:       -90.8485735
  entropy:           401.2984811
  heat_capacity:     147.8965711
  energy:             53.6188797

- temperature:       370.0000000
  free_energy:       -94.8819132
  entropy:           405.3510791
  heat_capacity:     147.9243270
  energy:             55.0979861

- temperature:       380.0000000
  free_energy:       -98.9552372
  entropy:           409.2963060
  heat_capacity:     147.9499279
  energy:             56.5773591

- temperature:       390.0000000
  free_energy:      -103.0674998
  entropy:           413.1396873
  heat_capacity:     147.9735911
  energy:             58.0569782

- temperature:       400.0000000
  free_energy:      -107.2177085
  entropy:           416.8863340
  heat_capacity:     147.9955072
  energy:             59.5368251

- temperature:       410.0000000
  free_energy:      -111.4049199
  entropy:           420.5409829
  heat_capacity:     148.0158439
  energy:             61.0168831

- temperature:       420.0000000
  free_energy:      -115.6282362
  entropy:           424.1080319
  heat_capacity:     148.0347493
  energy:             62.4971372

- temperature:       430.0000000
  free_energy:      -119.8868022
  entropy:           427.5915720
  heat_capacity:     148.0523546
  energy:             63.9775737

- temperature:       440.0000000
  free_energy:      -124.1798020
  entropy:           430.9954145
  heat_capacity:     148.0687762
  energy:             65.4581803

- temperature:       450.0000000
  free_energy:      -128.5064567
  entropy:           434.3231164
  heat_capacity:     148.0841179
  energy:             66.9389457

- temperature:       460.0000000
  free_energy:      -132.8660217
  entropy:           437.5780023
  heat_capacity:     148.0984722
  energy:             68.4198594

- temperature:       470.0000000
  free_energy:      -137.2577844
  entropy:           440.7631841
  heat_capacity:     148.1119220
  energy:             69.9009121

- temperature:       480.0000000
  free_energy:      -141.6810627
  entropy:           443.8815788
  heat_capacity:     148.1245418
  energy:             71.3820951

- temperature:       490.0000000
  free_energy:      -146.1352025
  entropy:           446.9359243
  heat_capacity:     148.1363984
  energy:             72.8634004

- temperature:       500.0000000
  free_energy:      -150.6195763
  entropy:           449.9287941
  heat_capacity:     148.1475521
  energy:             74.3448207

- temperature:       510.0000000
  free_energy:      -155.1335816
  entropy:           452.8626095
  heat_capacity:     148.1580574
  energy:             75.8263493

- temperature:       520.0000000
  free_energy:      -159.6766393
  entropy:           455.7396522
  heat_capacity:     148.1679635
  energy:             77.3079799

- temperature:       530.0000000
  free_energy:      -164.2481926
  entropy:           458.5620741
  heat_capacity:     148.1773152
  energy:             78.7897067

- temperature:       540.0000000
  free_energy:      -168.8477055
  entropy:           461.3319073
  heat_capacity:     148.1861531
  energy:             80.2715244

- temperature:       550.0000000
  free_energy:      -173.4746618
  entropy:           464.0510727
  heat_capacity:     148.1945140
  energy:             81.7534282

- temperature:       560.0000000
  free_energy:      -178.1285641
  entropy:           466.7213882
  heat_capacity:     148.2024317
  energy:             83.2354132

- temperature:       570.0000000
  free_energy:      -182.8089325
  entropy:           469.3445753
  heat_capacity:     148.2099370
  energy:             84.7174754

- temperature:       580.0000000
  free_energy:      -187.5153040
  entropy:           471.9222667
  heat_capacity:     148.2170580
  energy:             86.1996107

- temperature:       590.0000000
  free_energy:      -192.2472314
  entropy:           474.4560115
  heat_capacity:     148.2238205
  energy:             87.6818154

- temperature:       600.0000000
  free_energy:      -197.0042826
  entropy:           476.9472811
  heat_capacity:     148.2302482
  energy:             89.1640860

- temperature:       610.0000000
  free_energy:      -201.7860401
  entropy:           479.3974744
  heat_capacity:     148.2363627
  energy:             90.6464193

- temperature:       620.0000000
  free_energy:      -206.5920996
  entropy:           481.8079225
  heat_capacity:     148.2421842
  energy:             92.1288123

- temperature:       630.0000000
  free_energy:      -211.4220703
  entropy:           484.1798926
  heat_capacity:     148.2477309
  energy:             93.6112621

- temperature:       640.0000000
  free_energy:      -216.2755733
  entropy:           486.5145927
  heat_capacity:     148.2530200
  energy:             95.0937660

- temperature:       650.0000000
  free_energy:      -221.1522417
  entropy:           488.8131745
  heat_capacity:     148.2580672
  energy:             96.5763217

- temperature:       660.0000000
  free_energy:      -226.0517200
  entropy:           491.0767374
  heat_capacity:     148.2628869
  energy:             98.0589266

- temperature:       670.0000000
  free_energy:      -230.9736633
  entropy:           493.3063313
  heat_capacity:     148.2674927
  energy:             99.5415787

- temperature:       680.0000000
  free_energy:      -235.9177368
  entropy:           495.5029597
  heat_capacity:     148.2718970
  energy:            101.0242758

- temperature:       690.0000000
  free_energy:      -240.8836158
  entropy:           497.6675823
  heat_capacity:     148.2761114
  energy:            102.5070160

- temperature:       700.0000000
  free_energy:      -245.8709848
  entropy:           499.8011175
  heat_capacity:     148.2801466
  energy:            103.9897974

- temperature:       710.0000000
  free_energy:      -250.8795374
  entropy:           501.9044448
  heat_capacity:     148.2840127
  energy:            105.4726184

- temperature:       720.0000000
  free_energy:      -255.9089758
  entropy:           503.9784069
  heat_capacity:     148.2877190
  energy:            106.9554772

- temperature:       730.0000000
  free_energy:      -260.9590104
  entropy:           506.0238118
  heat_capacity:     148.2912742
  energy:            108.4383723

- temperature:       740.0000000
  free_energy:      -266.0293595
  entropy:           508.0414346
  heat_capacity:     148.2946863
  energy:            109.9213022

- temperature:       750.0000000
  free_energy:      -271.1197490
  entropy:           510.0320193
  heat_capacity:     148.2979630
  energy:            111.4042655

- temperature:       760.0000000
  free_energy:      -276.2299121
  entropy:           511.9962804
  heat_capacity:     148.3011113
  energy:            112.8872610

- temperature:       770.0000000
  free_energy:      -281.3595891
  entropy:           513.9349045
  heat_capacity:     148.3041378
  energy:            114.3702873

- temperature:       780.0000000
  free_energy:      -286.5085269
  entropy:           515.8485517
  heat_capacity:     148.3070488
  energy:            115.8533434

- temperature:       790.0000000
  free_energy:      -291.6764790
  entropy:           517.7378569
  heat_capacity:     148.3098500
  energy:            117.3364280

- temperature:       800.0000000
  free_energy:      -296.8632050
  entropy:           519.6034313
  heat_capacity:     148.3125469
  energy:            118.8195400

- temperature:       810.0000000
  free_energy:      -302.0684705
  entropy:           521.4458630
  heat_capacity:     148.3151446
  energy:            120.3026786

- temperature:       820.0000000
  free_energy:      -307.2920470
  entropy:           523.2657190
  heat_capacity:     148.3176479
  energy:            121.7858426

- temperature:       830.0000000
  free_energy:      -312.5337114
  entropy:           525.0635454
  heat_capacity:     148.3200614
  energy:            123.2690312

- temperature:       840.0000000
  free_energy:      -317.7932462
  entropy:           526.8398688
  heat_capacity:     148.3223892
  energy:            124.7522435

- temperature:       850.0000000
  free_energy:      -323.0704388
  entropy:           528.5951971
  heat_capacity:     148.3246354
  energy:            126.2354787

- temperature:       860.0000000
  free_energy:      -328.3650818
  entropy:           530.3300207
  heat_capacity:     148.3268038
  energy:            127.7187360

- temperature:       870.0000000
  free_energy:      -333.6769725
  entropy:           532.0448127
  heat_capacity:     148.3288978
  energy:            129.2020146

- temperature:       880.0000000
  free_energy:      -339.0059128
  entropy:           533.7400302
  heat_capacity:     148.3309210
  energy:            130.6853137

- temperature:       890.0000000
  free_energy:      -344.3517093
  entropy:           535.4161147
  heat_capacity:     148.3328763
  energy:            132.1686328

- temperature:       900.0000000
  free_energy:      -349.7141728
  entropy:           537.0734931
  heat_capacity:     148.3347669
  energy:            133.6519710

- temperature:       910.0000000
  free_energy:      -355.0931182
  entropy:           538.7125781
  heat_capacity:     148.3365955
  energy:            135.1353279

- temperature:       920.0000000
  free_energy:      -360.4883647
  entropy:           540.3337689
  heat_capacity:     148.3383649
  energy:            136.6187027

- temperature:       930.0000000
  free_energy:      -365.8997352
  entropy:           541.9374518
  heat_capacity:     148.3400775
  energy:            138.1020950

- temperature:       940.0000000
  free_energy:      -371.3270566
  entropy:           543.5240008
  heat_capacity:     148.3417358
  energy:            139.5855041

- temperature:       950.0000000
  free_energy:      -376.7701593
  entropy:           545.0937778
  heat_capacity:     148.3433420
  energy:            141.0689295

- temperature:       960.0000000
  free_energy:      -382.2288774
  entropy:           546.6471335
  heat_capacity:     148.3448984
  energy:            142.5523708

- temperature:       970.0000000
  free_energy:      -387.7030484
  entropy:           548.1844080
  heat_capacity:     148.3464068
  energy:            144.0358274

- temperature:       980.0000000
  free_energy:      -393.1925131
  entropy:           549.7059305
  heat_capacity:     148.3478694
  energy:            145.5192988

- temperature:       990.0000000
  free_energy:      -398.6971156
  entropy:           551.2120204
  heat_capacity:     148.3492878
  energy:            147.0027846

- temperature:      1000.0000000
  free_energy:      -404.2167031
  entropy:           552.7029875
  heat_capacity:     148.3506640
  energy:            148.4862844
