# Tetrahedron method
       -0.6873576800        0.0000000000
       -0.6461162199        0.0000000000
       -0.6048747597        0.0000000000
       -0.5636332996        0.0000000000
       -0.5223918395        0.0000000000
       -0.4811503793        0.0000000000
       -0.4399089192        0.0000000000
       -0.3986674590        0.0000000000
       -0.3574259989        0.0000000000
       -0.3161845388        0.0000000000
       -0.2749430786        0.0000000000
       -0.2337016185        0.0000000000
       -0.1924601583        0.0000000000
       -0.1512186982        0.0000000000
       -0.1099772381        0.0000000000
       -0.0687357779        0.0000000000
       -0.0274943178        0.0000000000
        0.0137471424        0.0001697591
        0.0549886025        0.0032618724
        0.0962300626        0.0116607574
        0.1374715228        0.0380299558
        0.1787129829        0.0725001519
        0.2199544431        0.1057975425
        0.2611959032        0.1520764450
        0.3024373633        0.1996934409
        0.3436788235        0.2614714208
        0.3849202836        0.3297809932
        0.4261617438        0.4024622743
        0.4674032039        0.4906446936
        0.5086446640        0.5820723627
        0.5498861242        0.6864781888
        0.5911275843        0.8027063714
        0.6323690445        0.9336846978
        0.6736105046        1.0761298170
        0.7148519647        1.2414436640
        0.7560934249        1.4344309422
        0.7973348850        1.6428797681
        0.8385763452        1.9267580119
        0.8798178053        2.2467195923
        0.9210592654        2.7151702521
        0.9623007256        3.8491997778
        1.0035421857        4.5225969153
        1.0447836459        6.1707077496
        1.0860251060        5.3974147180
        1.1272665661        4.1876554910
        1.1685080263        3.8196708978
        1.2097494864        3.8525685928
        1.2509909466        3.8673491850
        1.2922324067        3.5209923722
        1.3334738668        2.9798415768
        1.3747153270        4.6449639253
        1.4159567871        4.2371421223
        1.4571982473        5.0533693676
        1.4984397074        3.2533932634
        1.5396811675        7.2526631503
        1.5809226277       10.1818648528
        1.6221640878       13.3924447255
        1.6634055480       11.9690049655
        1.7046470081        9.1706956623
        1.7458884682        5.8947914928
        1.7871299284        4.6760279860
        1.8283713885        3.2692532328
        1.8696128487        3.9398569836
        1.9108543088        4.0235632078
        1.9520957689        2.0154990640
        1.9933372291        3.1202294346
        2.0345786892        4.9965583714
        2.0758201494        6.2296594389
        2.1170616095        8.2842902266
        2.1583030696        3.7499348555
        2.1995445298        4.7915306301
        2.2407859899       13.2452772179
        2.2820274501        2.8741012395
        2.3232689102        0.9655734589
        2.3645103703        1.3694824472
        2.4057518305        1.7106445885
        2.4469932906        2.0679406608
        2.4882347507        2.4684733180
        2.5294762109        2.9456477123
        2.5707176710        3.2220704072
        2.6119591312        2.3939884307
        2.6532005913        1.9195119746
        2.6944420514        1.6207282438
        2.7356835116        1.3931070388
        2.7769249717        1.1910785259
        2.8181664319        0.7085880390
        2.8594078920        0.0000000000
        2.9006493521        0.0000000000
        2.9418908123        0.0000000000
        2.9831322724        0.0000000000
        3.0243737326        0.0000000000
        3.0656151927        0.0000000000
        3.1068566528        0.0000000000
        3.1480981130        0.0000000000
        3.1893395731        0.0000000000
        3.2305810333        0.0000000000
        3.2718224934        0.0000000000
        3.3130639535        0.0000000000
        3.3543054137        0.0000000000
        3.3955468738        0.0000000000
        3.4367883340        0.0000000000
        3.4780297941        0.0000000000
        3.5192712542        0.0000000000
        3.5605127144        0.0000000000
        3.6017541745        0.0000000000
        3.6429956347        0.0000000000
        3.6842370948        0.0000000000
        3.7254785549        0.0000000000
        3.7667200151        0.0000000000
        3.8079614752        0.0000000000
        3.8492029354        0.0000000000
        3.8904443955        0.0000000000
        3.9316858556        0.0000000000
        3.9729273158        0.0000000000
        4.0141687759        0.0000000000
        4.0554102361        0.0000000000
        4.0966516962        0.0000000000
        4.1378931563        0.0000000000
        4.1791346165        0.0000000000
        4.2203760766        0.0000000000
        4.2616175368        0.0000000000
        4.3028589969        0.0000000000
        4.3441004570        0.0000000000
        4.3853419172        0.0000000000
        4.4265833773        0.0000000000
        4.4678248375        0.0000000000
        4.5090662976        0.0000000000
        4.5503077577        0.0000000000
        4.5915492179        0.0000000000
        4.6327906780        0.0000000000
        4.6740321382        0.0000000000
        4.7152735983        0.0000000000
        4.7565150584        0.0000000000
        4.7977565186        0.0028420606
        4.8389979787        0.0513727919
        4.8802394389        0.0784602702
        4.9214808990        0.1109609722
        4.9627223591        0.1338762145
        5.0039638193        0.1657376048
        5.0452052794        0.1894416118
        5.0864467396        0.2202675249
        5.1276881997        0.2506345935
        5.1689296598        0.2884814128
        5.2101711200        0.3396962386
        5.2514125801        0.3815293463
        5.2926540403        0.4465176303
        5.3338955004        0.5238708553
        5.3751369605        0.6451543232
        5.4163784207        0.8770281139
        5.4576198808        1.8769993434
        5.4988613410        1.8561619421
        5.5401028011        1.6691257513
        5.5813442612        1.2699623785
        5.6225857214        1.1184884103
        5.6638271815        1.0188929520
        5.7050686417        0.9519792743
        5.7463101018        0.8965018692
        5.7875515619        0.8572845875
        5.8287930221        0.8234959644
        5.8700344822        0.8024996267
        5.9112759424        0.7984863064
        5.9525174025        1.6751178168
        5.9937588626        2.4173891004
        6.0350003228        2.4794414891
        6.0762417829        2.6550460571
        6.1174832431        2.8087671835
        6.1587247032        3.0006291547
        6.1999661633        3.2722010712
        6.2412076235        3.6886244894
        6.2824490836        4.3116864312
        6.3236905438        4.3324285290
        6.3649320039        4.4329919269
        6.4061734640        4.4215191937
        6.4474149242        3.8677561244
        6.4886563843        2.7514749135
        6.5298978445        2.1544383147
        6.5711393046        1.7076718099
        6.6123807647        1.3222903340
        6.6536222249        0.9459576137
        6.6948636850        0.5831642164
        6.7361051452        0.4712733536
        6.7773466053        0.3751484992
        6.8185880654        0.2698551459
        6.8598295256        0.0830833219
        6.9010709857        0.0000000000
        6.9423124459        0.0000000000
        6.9835539060        0.0000000000
        7.0247953661        0.0000000000
        7.0660368263        0.0000000000
        7.1072782864        0.0000000000
        7.1485197466        0.0000000000
        7.1897612067        0.0000000000
        7.2310026668        0.0000000000
        7.2722441270        0.0000000000
        7.3134855871        0.0000000000
        7.3547270473        0.0000000000
        7.3959685074        0.0000000000
        7.4372099675        0.0000000000
        7.4784514277        0.0000000000
        7.5196928878        0.0000000000
        7.5609343480        0.0000000000
