8
Lattice="5.126382886073731 0.009174960489756974 -2.9187909369338088 -1.6696465475873308 4.846113218179113 -2.919779275718051 0.021143279871778702 0.03128410386157896 5.999698179266623" Properties=species:S:1:pos:R:3:forces:R:3 structure_index=0 total_energy=-23.273103713989258 stress="-0.04085689038038254 0.005623461212962866 0.0032468470744788647 0.005623384844511747 -0.036447927355766296 0.005164551082998514 0.00324638350866735 0.005164715461432934 -0.03354354575276375" pbc="T T T"
Li       3.39621603       1.53005985       1.99263932      -0.00251073      -0.00083772      -0.00378910
Li      -0.00076729       3.94762071       1.99245823      -0.00256288       0.00043489      -0.00149888
Ga      -0.01643591       3.93524745      -1.00752186      -0.00063015       0.00148590      -0.00092342
Ga       2.55100610       3.93963809      -2.47054521       0.00435217       0.00023193       0.00236377
Ga       0.81771909       1.50908726       0.45513733       0.00676595      -0.00285944      -0.00008067
Ga       2.55929586       3.94708461       0.52416113      -0.00158816       0.00161022       0.00385021
Ga       3.38940591       1.50862882      -1.00965320       0.00097733       0.00477087       0.00558987
Sn       0.83602858       1.52891624       3.45764192      -0.00480356      -0.00483670      -0.00551178
10
Lattice="4.137391327840178 -0.0009396946549284273 -0.8713823683327148 0.0024507590366733734 4.228404316404682 0.0012954731990344058 -0.0036511717319659964 -0.0067600279136080564 10.250245262728075" Properties=species:S:1:pos:R:3:forces:R:3 structure_index=1 total_energy=-28.952621459960938 stress="-0.005887753330171108 0.0032286299392580986 0.003822462633252144 0.003228596178814769 -0.02063762955367565 -0.0077815791592001915 0.0038225126918405294 -0.00778134586289525 0.03334909304976463" pbc="T T T"
Li       1.06419820       0.95232389       1.85741983       0.00257830       0.00002531       0.00648250
Li       2.75896363       0.95299077      -0.36403544       0.00314765       0.00057715       0.02483102
Li       3.53265301       0.95047549       3.32183980       0.00116703       0.00017435      -0.01230760
Li       4.01650969       3.06301426       5.60706625       0.00002822       0.00001794       0.00485072
Li       2.35914431       3.06228278       7.99323003      -0.00250997      -0.00042296       0.00155850
Ga       3.11788996       3.06637059       1.34569295       0.00007290      -0.00048146      -0.00816896
Ga       0.66840535       3.06795378      -0.02805255       0.00018060       0.00017326      -0.01881420
Ga       0.31027391       0.94828782       8.53067342      -0.00683152      -0.00042034      -0.02090039
Sn       1.93643858       0.94931805       6.00062918       0.01210401       0.00067751       0.04255896
Sn       1.49426599       3.06501790       3.88396804      -0.00993722      -0.00032075      -0.02009058
14
Lattice="4.602483615058065 8.533197957311777e-05 -1.1892849246685213 -0.00021546677993847103 5.631922252591881 0.001921239211942494 -0.014703565967768166 -0.0014942330609289665 9.441487791422528" Properties=species:S:1:pos:R:3:forces:R:3 structure_index=2 total_energy=-37.873111724853516 stress="0.01778615266084671 -0.00010035424929810688 -0.006248366553336382 -0.00010028883116319776 -0.018488427624106407 -6.683797255391255e-05 -0.006248781457543373 -6.692885654047132e-05 -0.0008119491394609213" pbc="T T T"
Li       3.78452155       2.72287001       5.39217895      -0.00811223      -0.01484017      -0.02756436
Li       3.07558033       4.14205968       2.66380447      -0.00712072       0.00060567      -0.03236519
Li       3.78423813       5.56538924       5.39237041      -0.00773606       0.00872761      -0.02398322
Li       2.42062018       2.72821950       0.12027206      -0.00070700      -0.00612844      -0.00518716
Li       2.41929132       5.54947288       0.11732797      -0.00002707       0.00824127      -0.00333373
Li       1.74455308       1.32724522       6.99826364       0.00800250      -0.00025185       0.03124362
Li       0.45513029       1.32248854       2.00484269       0.00402375       0.00293863       0.02680686
Li       1.05166351       2.73772831       4.32239851       0.00896283      -0.01753410       0.03241338
Li       1.05067729       5.54649332       4.32433809       0.01013306       0.01620449       0.03054405
Ga       0.44730003       4.14033694       1.99395247      -0.00246590      -0.00096734      -0.01501415
Ga       4.39782633       4.13584553       7.76916157      -0.00053918       0.00136796      -0.00358268
Ga       4.39427429       1.32054741       7.75357922       0.00354284       0.00199288       0.01277433
Sn       1.68535651       4.14351297       6.76993882      -0.00499415      -0.00081134      -0.01552749
Sn       3.13749824       1.32605209       2.89004294      -0.00296271       0.00045468      -0.00722423
4
Lattice="4.440568235525588 -0.0003698461624081835 0.0007316272058260207 0.0002768555708978094 4.061106866150422 -0.0008565725853055418 -0.000828751874704581 0.0005451597890806814 4.0610905110400966" Properties=species:S:1:pos:R:3:forces:R:3 structure_index=3 total_energy=-11.800243377685547 stress="0.04783296957612038 -0.00020229395886417478 -0.0005498675745911896 -0.00020228905486874282 0.10208013653755188 -0.002876139944419265 -0.0005498804384842515 -0.002876098034903407 0.10199688374996185" pbc="T T T"
Li       2.40716508       0.79248671       2.80999166       0.00052964      -0.00018632       0.00045816
Li       2.40773718       2.82271439       0.77925097       0.00048964      -0.00004327      -0.00021269
Ga       0.18724866       2.82302408       2.80946876      -0.00026604       0.00034663      -0.00031733
Sn       0.18755785       0.79227343       0.77927067      -0.00075325      -0.00011703       0.00007185
20
Lattice="7.156171393831052 0.01610723230646065 -2.1932225517922785 -3.5757867693612093 6.183661717205727 -1.9391811228141491 0.09757232712567504 -0.00019567826371860128 8.290737747239367" Properties=species:S:1:pos:R:3:forces:R:3 structure_index=4 total_energy=-56.61426544189453 stress="0.014904303476214409 -0.0017259232699871063 -0.003781026927754283 -0.0017258146544918418 0.019966794177889824 0.0020511148031800985 -0.0037809039931744337 0.0020512393675744534 0.017378348857164383" pbc="T T T"
Li       2.28457489       2.29537196       4.45265465      -0.00903808       0.01528748      -0.01001128
Li       3.68499352       1.04839656      -1.54109875      -0.00594787      -0.01353695      -0.00479899
Li       4.88917525       3.07153258      -2.87582850       0.01284675      -0.01502825      -0.01045866
Li       2.32009850       2.13888838       1.20322287       0.00253483       0.01724289      -0.00398176
Li       4.79069363       0.11333340       0.75847375      -0.01145424       0.03410318       0.01220178
Li       0.03960787       4.21081218       0.19756452      -0.01372861      -0.00029895       0.00416957
Li      -2.65578989       5.79977671       0.85867862      -0.00927705       0.00462678       0.02479754
Li       0.58448909       1.50095083       6.98013271       0.04587424       0.01079828      -0.01155300
Li       2.84584840       5.01367840       1.11753232       0.00997230       0.00580627       0.02042222
Li       0.24057328       4.04185672       5.43147734       0.00516557       0.02173480       0.02270474
Li       2.67576278       5.27254715       4.34235586       0.00501342      -0.00981458      -0.01855869
Ga      -0.48101036       1.60542235       1.25348918       0.01678353      -0.00770423      -0.00849139
Ga       4.85061240       3.29694206       0.04740886      -0.00693032      -0.01360052      -0.02917740
Ga       0.70618535       3.84324694       2.76973030      -0.00560080       0.00527425       0.00584195
Ga      -1.53973896       5.53751056       3.52963145      -0.00952352      -0.04243968       0.00359151
Ga       4.41032282       3.35662879       2.75456799      -0.00169561      -0.02121056      -0.02617231
Sn       4.17357451       0.45611407       3.79915455      -0.04432010      -0.02156404       0.00089435
Sn      -1.72077170       5.68439770      -1.80366436      -0.01230647       0.01136421       0.02187297
Sn      -0.45951440       1.63749895       4.26652164       0.02107370       0.00648629       0.00628537
Sn       2.43810297       3.67122485      -1.38352913       0.01055840       0.01247333       0.00042147
10
Lattice="2.9856530769648484 0.0005520521585086286 0.0007088675131291174 -0.000643841999787445 8.063683333935572 0.00686132066379352 -0.00032202573167629587 -0.007305171719588 8.065670566420971" Properties=species:S:1:pos:R:3:forces:R:3 structure_index=5 total_energy=-28.113819122314453 stress="0.012033040635287762 -0.00017451898020226508 -5.021219749323791e-06 -0.00017449054575990885 0.03241006284952164 -5.587312261923216e-05 -4.996341885998845e-06 -5.6002212659223005e-05 0.03837292641401291" pbc="T T T"
Li       0.05099786       7.51256343       2.60794149      -0.00072342       0.03053889       0.03062215
Li       0.04655885       2.26352307       5.41754582       0.00339880      -0.02759233      -0.02678864
Li       0.05000404       6.29175724       6.63796496      -0.00049645      -0.02506378       0.03057567
Li       0.04976116       3.48237020       1.39091559       0.00037031       0.03421672      -0.03343961
Ga       1.54344197       5.87156592       0.95975302      -0.00029614      -0.02803337      -0.02659659
Ga       1.54329478       1.83645314       3.03148187      -0.00139395      -0.02931173       0.02833984
Ga       1.54236227       7.94252864       4.99869993      -0.00062883       0.02584452      -0.02848796
Ga       1.54173716       3.90622084       7.06767874      -0.00064828       0.02205340       0.02795687
Sn       0.05014172       0.85592610       8.04268133       0.00025115      -0.00374783      -0.00230156
Sn       0.04984640       4.88739244       4.01365887       0.00016683       0.00109546       0.00011982
20
Lattice="5.86643902418222 0.03276499639394176 -0.9299451403490632 -0.1272115476421048 5.850449373379839 -0.8848393989401999 -0.06910146004400143 -0.012345701381859838 10.638328698814272" Properties=species:S:1:pos:R:3:forces:R:3 structure_index=6 total_energy=-57.3925666809082 stress="-0.005460943095386028 0.0011523806024342775 -0.001403592643328011 0.0011522398563101888 -0.005948835052549839 -0.00036843764246441424 -0.0014037055661901832 -0.0003685292904265225 -0.006383522879332304" pbc="T T T"
Li       1.64610176       1.03073875       0.90069731       0.01913324       0.00378809      -0.00339064
Li       5.16638786       1.67377650       4.54939025       0.00302313       0.00356926      -0.01541812
Li       2.18763275       1.57128554       5.13443572       0.01088662      -0.02642660       0.01677261
Li       5.61758959       5.09406287       8.09680407       0.01362397       0.00342799       0.01113223
Li       5.01688838       4.53967917       4.12639105      -0.03215323       0.00477838      -0.01066719
Li       2.73655331       2.20746903       9.00699719      -0.00136194      -0.00790179       0.00096843
Ga       4.03384323       0.49896743       7.06673609      -0.01418013      -0.02326553       0.00389759
Ga       0.33321029       2.70896539       2.82919141       0.01461194       0.00076228       0.01480995
Ga       0.88547173       3.28498487       7.16332153       0.00982656       0.00844363       0.00382918
Ga       0.35676628       5.68015586       2.32547844       0.01488697      -0.01864223       0.00729370
Ga       4.51094627       3.93785001      -0.15192926      -0.02060531       0.03568787      -0.02739438
Ga       5.73687325       2.16611405       8.65521971       0.01704898      -0.00187989       0.01056758
Ga       4.59274076       1.01713179       0.20095914      -0.00940302      -0.00914645       0.00896339
Ga       3.39773303       2.85027747       2.28032785      -0.01443432       0.02046668       0.00044241
Ga       2.65328055       5.11576051       8.49554847      -0.00749526      -0.00513077      -0.01042307
Ga       0.96302603       0.48353236       7.55955449       0.00940745      -0.02663101       0.01429870
Ga       3.98653054       3.30514828       6.68848112      -0.02338311       0.00584354       0.00719658
Ga       1.54306231       3.89869368       0.42612679       0.01319794       0.02168176      -0.02983746
Sn       2.05090872       4.43620407       4.64006211      -0.00229914      -0.01237546      -0.02526407
Sn       3.36872280       5.82832998       1.96794293      -0.00033136       0.02295024       0.02222261
5
Lattice="3.723707012933253 0.012649686055696214 1.6740161440688262 1.8088911442484732 4.943412551634452 0.9255542132924411 -0.023753327723175933 -0.14379488359036607 5.040418578317851" Properties=species:S:1:pos:R:3:forces:R:3 structure_index=7 total_energy=-14.606480598449707 stress="-0.0174680408090353 0.027361974120140076 -0.003099920926615596 0.027361897751688957 -0.03907990828156471 -0.030647404491901398 -0.0031000287272036076 -0.030647341161966324 0.022696558386087418" pbc="T T T"
Li       1.66331973       3.46707812       3.85178137      -0.02070070       0.00277982       0.04360656
Li       3.16169209       1.43529482       5.51035160       0.01995019      -0.00348133      -0.04377054
Ga       2.04590376       0.46023329       3.01536858       0.00606645      -0.00406655      -0.00884610
Ga       2.77864864       4.44132338       6.34649621      -0.00565266       0.00413013       0.00908632
Sn       4.28600031       2.52876933       2.99787193       0.00033671       0.00063794      -0.00007622
10
Lattice="3.304628094735435 -0.00020960138162402208 0.00024143084613750508 0.00030463447629355204 3.304635841551349 0.0008483904658174976 -0.0009908694446412105 -0.006329600741741386 19.727140681112786" Properties=species:S:1:pos:R:3:forces:R:3 structure_index=8 total_energy=-32.11564254760742 stress="0.013655629940330982 0.00015834388614166528 -0.0001325504999840632 0.00015833802171982825 0.013737390749156475 -0.0006034350371919572 -0.0001325808116234839 -0.0006035156548023224 -0.03494954854249954" pbc="T T T"
Li       1.68977413       1.19749987      14.51364181       0.00009151      -0.00008442       0.00487171
Li       1.69059287       1.19876875      10.79470335      -0.00021406       0.00015864      -0.00316547
Li       1.69076257       1.20024991       7.02045916       0.00009539      -0.00025088       0.00486552
Li       1.69108730       1.20059781       3.30869563       0.00005048      -0.00002460      -0.00776281
Ga       1.69037813       1.19515821      18.77412077      -0.00011364       0.00001449      -0.00001080
Sn       0.03856875       2.85203097       8.90712695      -0.00008861      -0.00015765       0.00195999
Sn       0.03745636       2.84884585      16.55704353       0.00025058       0.00008923       0.01010516
Sn       0.03919422       2.85300357       1.26467830      -0.00015710       0.00041995      -0.00937609
Sn       0.03877580       2.85288000       5.15096939      -0.00001234      -0.00008892       0.02335113
Sn       0.03795275       2.85059842      12.66908232       0.00009776      -0.00007583      -0.02483834
11
Lattice="4.375225989838661 0.0005967784281511197 -0.7501837655824646 -0.11588846301777082 4.051462140494335 -0.6726441872007587 -0.07467086808907838 0.018827918165568246 12.678026344857512" Properties=species:S:1:pos:R:3:forces:R:3 structure_index=9 total_energy=-32.850799560546875 stress="-0.0065471818670630455 -1.939047251653392e-05 0.0005514828953891993 -1.9322695152368397e-05 -0.0034723887220025063 -0.00042475713416934013 0.0005514011718332767 -0.0004248028271831572 -0.005441366694867611" pbc="T T T"
Li       1.23174143       1.12915326      12.07065812       0.00186122       0.00414473       0.01059792
Li       3.04119533       0.75625983       9.50563997       0.00554107       0.00453227       0.02614656
Li       1.58213252       3.46961190       0.98945057       0.00254408       0.00252223       0.03045613
Li       2.32346782       0.04507004       5.32629313      -0.00223592      -0.00624206      -0.02879557
Ga       3.79298772       1.40857134       0.75417445      -0.00725176      -0.00748316      -0.04162282
Ga       0.08698239       2.07409555       5.40483348       0.00400099       0.00767046       0.03598440
Ga       0.51341290       0.41878771       7.89720383       0.00492534       0.00479304       0.02216478
Ga       3.36384558       3.15978800      11.38023481      -0.00606676      -0.00792246      -0.04232580
Sn       4.07454329       3.77182971       2.39812558       0.00116132       0.00317974       0.00923781
Sn       2.60889948       2.41140913       6.98137380       0.00058385      -0.00253943       0.00639276
Sn       0.84240500       2.82665138       9.81326285      -0.00506345      -0.00265539      -0.02823620
4
Lattice="4.3258046572574615 -0.0005196699366179184 2.4995785001908652 1.4371496266566315 4.077233517715246 2.496635535597049 0.00015209177695161484 -0.00047374316415121686 4.99659491785924" Properties=species:S:1:pos:R:3:forces:R:3 structure_index=10 total_energy=-11.803934097290039 stress="0.043959617614746094 0.0040895831771194935 -0.002488213824108243 0.004089745227247477 0.02874038927257061 0.004511698614805937 -0.002488375874236226 0.004511577542871237 0.024410825222730637" pbc="T T T"
Li       0.22079782       0.32980926       2.20766352       0.00004119       0.00032157       0.00062712
Ga       1.66151115       1.34970950       4.70648623      -0.00125654      -0.00080540      -0.00231305
Ga       4.54315696       3.38753316       4.70680217       0.00012285      -0.00121748      -0.00274164
Sn       3.10185110       2.36751619       7.20269839       0.00109249       0.00170129       0.00442758
8
Lattice="4.014872758564093 -0.00032277310464708646 -0.0004492964715966301 0.00032505916405128427 4.485371264241191 -0.00029036075696088674 0.0008401297338372338 0.0005751508485241371 8.059121457888176" Properties=species:S:1:pos:R:3:forces:R:3 structure_index=11 total_energy=-23.668880462646484 stress="0.027628425508737564 -0.00013231404591351748 -0.00015315396012738347 -0.0001322706084465608 0.043304163962602615 7.591768371639773e-05 -0.00015309432637877762 7.597371586598456e-05 -0.0012253796448931098" pbc="T T T"
Li       2.80006138       2.15153774       1.69840175      -0.00131014      -0.00001157      -0.01891486
Li       0.79357426       2.15194868       7.74460345      -0.00159840      -0.00000460      -0.01759854
Li       2.79972281       2.15153970       5.85772297       0.00051297       0.00028815       0.01650903
Li       0.79156375       2.15209901       3.84265692       0.00155735      -0.00051905       0.02163285
Ga       2.80054985       4.39426292       7.71327310      -0.00133374       0.00036213       0.01582269
Ga       0.79227078       4.39452150       5.88842818       0.00157676       0.00003504      -0.01599771
Sn       2.79971687       4.39447745       3.84023928      -0.00094542      -0.00005811       0.02503909
Sn       0.79203498       4.39441274       1.70272362       0.00154063      -0.00009200      -0.02649256
18
Lattice="5.0159695582961765 -0.00210216306261058 -1.5272935704530104 -0.6412885868754868 7.51891168707181 -2.134458138337534 -0.05798888784173491 -0.16579938234609498 9.395410793871447" Properties=species:S:1:pos:R:3:forces:R:3 structure_index=12 total_energy=-54.150569915771484 stress="0.00960665661841631 -0.000269553653197363 7.374850247288123e-05 -0.000269594369456172 0.006378909107297659 0.00047043259837664664 7.380545139312744e-05 0.00047039525816217065 0.008488821797072887" pbc="T T T"
Li       4.43656698       5.85266604       1.27210624      -0.00467432       0.00903905       0.00950107
Li       0.82309556       2.39744999       7.69833356       0.00382148      -0.02219777       0.01666066
Li       0.67786154       3.72050338       1.09866129       0.00617335       0.01929438       0.00064704
Li       3.01020232       3.22402539       5.74966137      -0.03486960      -0.02791052       0.01621068
Li       4.43092546       0.07497152       1.14047199       0.02725700      -0.01096171      -0.00256715
Li       4.28236496       7.02848549       4.10632576       0.00427547       0.02796574      -0.01945681
Li       2.13358346       0.35162473       5.72806944       0.01672879       0.00450758       0.00248345
Li       2.13376021       6.19273891       6.11150749       0.01028680       0.01327781      -0.01882744
Li       1.42823373       2.03613552       3.38899838      -0.00277025       0.00837892      -0.00598884
Ga       3.48910206       2.89336828       1.44094256      -0.00916711      -0.00146091      -0.02160818
Ga       1.55467617       0.90295210       0.71028300       0.01744024      -0.02258120       0.01228747
Ga       1.53919592       6.78803812       0.94042203       0.01276772      -0.00939555       0.00403509
Sn      -0.00110304       5.52978460      -1.33067841      -0.00088318       0.00696478      -0.04442741
Sn       0.12754959       4.14764652       5.26200788      -0.03277379      -0.01394965       0.02056346
Sn       2.85130828       4.72734927      -0.86042507       0.00421179      -0.00111493       0.02448849
Sn       4.31211285       1.17212051       3.84969201       0.00260553       0.01134945      -0.00427438
Sn       3.73015837       1.59774518      -1.30726484      -0.00064848      -0.00661074       0.00541610
Sn       2.23443260       5.01072671       3.29469908      -0.01978145       0.01540528       0.00485671
4
Lattice="4.274263580081281 6.567012717423936e-05 -0.000931731988901326 -0.00016034124518203016 4.274724518430802 -0.000892912600683241 0.0006614532058292526 0.0006327769088328729 4.356586563391596" Properties=species:S:1:pos:R:3:forces:R:3 structure_index=13 total_energy=-12.15864372253418 stress="-0.06388339400291443 -0.00028213096084073186 -0.001417136169038713 -0.00028216521604917943 -0.06054522469639778 -0.0013518745545297861 -0.0014170784270390868 -0.0013518595369532704 -0.055101003497838974" pbc="T T T"
Li       3.27715372       3.07848827       0.84289624       0.00060270      -0.00017227      -0.00112663
Ga       1.14055092       3.07897497       3.02073840       0.00020565      -0.00063510       0.00219048
Ga       3.27821889       0.94138008       3.02082277      -0.00057269       0.00025521       0.00192412
Sn       1.14055753       0.94101597       0.84385764      -0.00023568       0.00055215      -0.00298797
4
Lattice="4.256103102822039 -0.0002159709494344419 2.4620797823686456 1.4206504828315296 4.01138739815362 2.4628832005149803 -0.0010876243486672263 -0.0006021379429810559 4.9156086460831565" Properties=species:S:1:pos:R:3:forces:R:3 structure_index=14 total_energy=-11.844108581542969 stress="0.013911197893321514 -0.002702094614505768 0.009769001975655556 -0.0027020806446671486 0.011161638423800468 0.004193831235170364 0.009769042022526264 0.004193760920315981 0.023620683699846268" pbc="T T T"
Li       1.94839432       2.09425137       2.80079961       0.00029037      -0.00060783      -0.00081501
Ga       3.36624563       0.08835035       5.25887512      -0.00007271      -0.00033098      -0.00010251
Ga       3.36900113       3.09757258       5.26235336      -0.00160206      -0.00068190      -0.00115089
Sn       0.52805157       1.09017243       5.25530970       0.00138440       0.00162071       0.00206841
20
Lattice="7.997396081839835 0.03700054783716603 -2.873728763078318 -4.3073660473610005 6.840628191159482 -2.7483258536179784 0.1135201305998352 -0.012998401648781029 8.308648758353165" Properties=species:S:1:pos:R:3:forces:R:3 structure_index=15 total_energy=-63.4026985168457 stress="0.0045901136472821236 -0.000640709069557488 -0.00033995931153185666 -0.0006406177999451756 0.005583569407463074 -0.0003549968241713941 -0.0003398497647140175 -0.0003549889661371708 0.006345187779515982" pbc="T T T"
Li      -1.62523540       5.22836586      -1.03902072      -0.00779385       0.00380041       0.00357166
Ga      -2.44194371       4.89298361       1.63186886      -0.02843822       0.03217435       0.01786849
Ga      -1.25442183       2.43977334       6.11377009       0.01449772      -0.01671857       0.01943127
Ga       4.34601738       0.18900826       0.17858642       0.03103736      -0.02268716       0.00275404
Ga       3.18913747       5.44349642      -3.28249054      -0.02068802       0.00866257       0.00753535
Ga      -0.57520437       2.77757276       0.62889337      -0.02103884      -0.00766395       0.03920436
Ga       4.74494983       2.98281893      -3.03193073      -0.02217317       0.01316964       0.02497235
Ga       6.70229812       1.70004545       0.37328575      -0.00799793       0.01663479       0.01899590
Ga       1.29114945       0.45570929       3.17246330      -0.01371080       0.02608830      -0.03641231
Ga       4.37986124       4.17194297       2.77797069       0.01980891      -0.00667511      -0.00689727
Ga       4.07779667       1.18544591       2.78926109       0.02647866       0.00344036       0.01285641
Ga       0.35765097       5.42941304       0.95710443      -0.03370640      -0.00551701       0.00666035
Sn       5.87816721       0.17659975       5.85008936       0.01670747       0.00131308      -0.03503662
Sn       1.55356206       3.33960593       2.78742792       0.03051171       0.02443877      -0.01814183
Sn       3.12116089       6.47858406      -0.00197447      -0.01666144      -0.01102407      -0.01642795
Sn       1.12766298       4.18295921      -1.67521228       0.00315224      -0.02470062       0.00978170
Sn       3.65582820       3.08036795       0.10813438       0.00960378      -0.01812468      -0.00316242
Sn       1.12249141       0.35419450       0.12880759       0.00068476       0.00303490      -0.01695700
Sn       2.56568752       1.25138647       5.69444956       0.00682096      -0.01672209      -0.01761391
Sn      -1.03307064       4.74845611       4.17557472       0.01290511      -0.00292389      -0.01298254
4
Lattice="3.734612734753214 -0.00042962939356588003 0.00017714777814447266 0.00012187385305709395 3.7407324747240005 -3.661700103978547e-05 -0.0008346475410225457 -8.66416247084153e-05 6.51445312291049" Properties=species:S:1:pos:R:3:forces:R:3 structure_index=16 total_energy=-12.953404426574707 stress="0.011822684668004513 -0.0018439702689647675 -0.0005281110643409193 -0.0018439990235492587 -0.02348674088716507 -9.760276589076966e-05 -0.0005279977340251207 -9.760287503013387e-05 -0.07701858133077621" pbc="T T T"
Li       2.75495573       3.45403084       5.11402117       0.00034742       0.00027046      -0.00083572
Ga       2.75613799       3.45410404       1.85654376      -0.00084922       0.00039316      -0.00158082
Sn       0.88831520       1.58422815       3.45792057       0.00000442      -0.00052267      -0.02112380
Sn       0.88838236       1.58402828       0.25328941       0.00049739      -0.00014095       0.02354033
8
Lattice="4.733442077241285 -0.0016115566984889786 0.0013725452267227699 0.00428694913185938 5.011997351560033 -2.8895115078813203 -0.0014552518190939885 -0.0008833629765139764 5.785929257899891" Properties=species:S:1:pos:R:3:forces:R:3 structure_index=17 total_energy=-20.484027862548828 stress="0.010614345781505108 0.0018827584572136402 0.0012974899727851152 0.0018828465836122632 0.0018898347625508904 0.0007955979672260582 0.001297674374654889 0.0007955163018777966 -0.0011528697796165943" pbc="T T T"
Li       2.97461608       2.08374035       0.44485840       0.00184935       0.02553769       0.04220435
Li       2.97830945       4.68402125       1.94650510      -0.00251598      -0.04994640       0.00008294
Li       0.60940688       3.82052047       3.45003696      -0.00060017       0.01768156       0.03800178
Li       0.61125287       3.81815606       0.44623897      -0.00214152       0.02393937      -0.04064793
Li       2.97340972       2.08455418       3.44419359       0.00216128       0.02420962      -0.04149209
Li       0.60834418       1.21497032       1.94375702      -0.00296010      -0.04309352       0.00481140
Ga       2.97687115       4.62057388      -0.94631015       0.00269739       0.00077756       0.00132784
Sn       0.60648453       1.28094709       4.83797990       0.00150978       0.00089415      -0.00428828
12
Lattice="5.331665158894593 0.006544549513956837 -0.00835214935323268 -0.00860851840587118 6.289437851371659 -0.014003442356545992 0.011220715302681416 0.008021535806902635 7.0567611136317385" Properties=species:S:1:pos:R:3:forces:R:3 structure_index=18 total_energy=-36.34834289550781 stress="0.014012305065989494 -0.0011987731559202075 0.00022777904814574867 -0.0011987643083557487 0.03032495826482773 0.00013448618119582534 0.00022790010552853346 0.0001345542841590941 0.0176275372505188" pbc="T T T"
Li       1.49110434       2.22592432       1.17790911       0.00191984       0.00996186       0.00115972
Li       4.15834451       5.37158338       4.68979658       0.00122267      -0.00990544      -0.00076633
Li       4.15739215       2.22859854       1.17346933      -0.00212763       0.01017622       0.00080502
Li       1.49262941       5.36833597       4.69407739      -0.00114846      -0.01024761      -0.00156866
Ga       0.16414460       0.12292787       2.51143418      -0.00047995      -0.03703248       0.00346537
Ga       2.83561840       0.13509398       6.89948423       0.00090831      -0.03446002      -0.00233032
Ga       0.16755169       1.17667636       6.04383768      -0.00053855       0.03520082       0.00190895
Ga       2.82966214       1.18105297       3.37349921      -0.00085035       0.03704318      -0.00272027
Sn       0.16082203       2.93517424       3.69915647       0.00064873      -0.04515348       0.02195179
Sn       2.82297963       4.65810218       2.17349123      -0.00032649       0.04498039      -0.02315268
Sn       0.15321391       4.64350055       0.15738415       0.00016417       0.04537389       0.02153851