7
Lattice="4.160538863510083 -0.0015334279560646482 -0.0021272114295743712 -2.0779077346065957 4.865007921962422 -0.5257355794379863 0.0025905526949822075 0.028340719814818675 7.036607685430275" Properties=species:S:1:pos:R:3:forces:R:3 structure_index=0 total_energy=-21.351627349853516 stress="-0.006548846606165171 0.0001470305141992867 -0.00014372140867635608 0.000147048311191611 0.020222654566168785 0.03551085293292999 -0.00014380361244548112 0.03551097214221954 0.007382080890238285" pbc="T T T"
Li      -0.39129655       4.66745508       5.79278405       0.00049816       0.01833031      -0.00629531
Li       1.68643216       1.23278821       2.31870607       0.00007576      -0.00840085       0.00527895
Ga       3.76697007       0.46969937       4.31547446      -0.00008113      -0.02337182       0.00759340
Ga      -0.39292373       1.90793062       0.23310028      -0.00280208       0.00605640       0.00414962
Ga      -0.39251061       3.27660636       3.00367816      -0.00035414       0.03542660       0.01665614
Sn       1.68818772       2.53222174       5.08929853       0.00053344      -0.00573446      -0.01750502
Sn       1.68696056       4.05419452       1.00744004       0.00212999      -0.02230620      -0.00987777
8
Lattice="4.731643920507158 0.00039895115252585613 -0.00035825232086432544 0.00032172337193562867 5.0117808544229705 -2.8977661512951194 -0.0009519000063179502 0.004835085329711529 5.791309982284948" Properties=species:S:1:pos:R:3:forces:R:3 structure_index=1 total_energy=-20.484973907470703 stress="-0.0022139274515211582 0.00040469199302606285 -0.0009134623105637729 0.0004046368703711778 0.039167363196611404 0.002641813363879919 -0.0009134977008216083 0.002641945844516158 0.04193960502743721" pbc="T T T"
Li       4.64507673       2.63227481       2.64832296      -0.00031973      -0.01377684      -0.02126596
Li       2.28014664       4.36809483       2.65924772      -0.00234214      -0.01682836       0.03316638
Li       4.64483004       2.63066979      -0.12526626      -0.00050796      -0.01400298       0.02411129
Li       2.27866423       4.36664761      -0.13309194       0.00082528      -0.01855428      -0.03291729
Li       4.64456079       0.22912359       1.26419517       0.00066690       0.02693746      -0.00097476
Li       2.27862526       1.77520735       4.15906449       0.00026303       0.03529572       0.00100998
Ga       2.27829864       1.83093756       1.26429873       0.00127520      -0.00054497      -0.00203660
Sn       4.64478477       0.16179185       4.15992343       0.00013942       0.00147423      -0.00109302
12
Lattice="4.079865278356922 -0.0012189440307739253 1.0481616849163613 1.3251525539217235 7.371357562268922 3.3144064594699327 0.07070642745402059 -0.24122996671612243 8.187834461599147" Properties=species:S:1:pos:R:3:forces:R:3 structure_index=2 total_energy=-36.45991134643555 stress="-0.01653672382235527 -0.00019181908282916993 -0.0034089842811226845 -0.00019176627392880619 -0.004239642061293125 0.00036098199780099094 -0.003408881137147546 0.00036114524118602276 -0.0045859902165830135" pbc="T T T"
Li       2.04024488       5.58161130       7.96649406      -0.00121194      -0.00428156       0.00019694
Li       1.36721420       2.16775803       2.11471809       0.00043884       0.00842237      -0.00245679
Ga       1.23086293       5.02073615       2.64780831       0.00596468       0.02025199      -0.02318786
Ga       0.58574747       1.38812814       5.15383490       0.00361612      -0.04534443      -0.01347908
Ga       2.14475373       2.54373991       7.55241940       0.00186606       0.02641434      -0.00765996
Ga       3.90955300       0.80191500       9.14458962      -0.00111172       0.01613765       0.00375897
Ga       2.97942711       3.32505475       4.30415957       0.00510577       0.00259080      -0.01904828
Ga       2.81796140       6.35412037       4.93476089      -0.01166711      -0.00866250       0.04800689
Ga       3.76441417       3.66710170       9.71373988       0.00080239       0.00722477      -0.00315190
Sn       3.61015621       6.83297592      10.31576035       0.00139752      -0.02352487      -0.00157736
Sn       4.55032601       4.33837990       6.65575305      -0.00617725      -0.00612840       0.02378917
Sn       3.10401527       0.33373288       3.81602025       0.00097666       0.00689983      -0.00519076
10
Lattice="3.0107713489904033 -0.004043827918940802 0.0033534335178538647 0.008533709596694033 7.916177749696952 0.00036633189925245723 -0.010737139271885904 -0.00023992785709040402 7.910894204479651" Properties=species:S:1:pos:R:3:forces:R:3 structure_index=3 total_energy=-28.90941047668457 stress="-0.016194235533475876 -0.006042961031198502 -0.005581365432590246 -0.006042990833520889 0.029483284801244736 -0.000400092190830037 -0.0055814688093960285 -0.00040008386713452637 0.02738345041871071" pbc="T T T"
Li       1.28540997       3.49058039       3.79503199       0.00052387       0.01800163       0.01752149
Li       1.28775691       7.44373295       4.91737057       0.00158144       0.02155255      -0.01615643
Li       1.28152188       4.61752985       7.74867327       0.00042757      -0.02094962       0.02169793
Li       1.28684723       0.66227493       0.96385271       0.00002732      -0.02242500      -0.01788815
Ga       2.79397994       3.00142213       1.45350233      -0.00051335      -0.01229453       0.01491946
Ga       2.79040669       5.10121705       5.40986258       0.00011201       0.01430737       0.01280421
Ga       2.79086567       6.95861762       7.26549705      -0.00177941      -0.01137323      -0.01418710
Ga       2.78930665       1.14470982       3.31040697      -0.00057068       0.01424960      -0.01465199
Sn       2.78592838       2.07193914       6.33687713       0.00026023      -0.00189468      -0.00221332
Sn       2.79587996       6.03014763       2.38061369      -0.00006903       0.00082591      -0.00184611
20
Lattice="6.892922537864344 -0.08905648026647828 -1.879023492069788 -3.7039149160897225 6.518487980897961 -1.645168461692937 0.0045719814670553156 -0.02673046279215435 8.074109347723214" Properties=species:S:1:pos:R:3:forces:R:3 structure_index=4 total_energy=-57.1848030090332 stress="-0.008471527136862278 0.0012523707700893283 -0.0008760084747336805 0.0012521997559815645 -0.004307890776544809 0.00031328972545452416 -0.0008758923504501581 0.0003131793928332627 -0.009278839454054832" pbc="T T T"
Li       4.98484762       0.38130378       4.54625764       0.00119061       0.01900272      -0.00522697
Li      -0.00620302       4.43017848       1.58289308       0.02141545      -0.01156130      -0.00863007
Li       0.95592929       4.28724539      -1.48794549      -0.01011091       0.00710043       0.01842568
Li       4.03477390       4.41777421      -1.07700853      -0.01741816       0.00598646       0.01029957
Li       3.51177277       1.90180646       2.70719046      -0.00506977       0.01023923      -0.00289845
Li       0.87084258       0.35439559       6.56967505      -0.00128526       0.01634455       0.00967192
Li       0.65574728       1.62553873       2.29795626       0.03629804      -0.03122307       0.00915605
Li      -2.26041066       4.15017174       6.24613635      -0.00404153      -0.01230440       0.00004345
Li       4.65758771       1.73030416       0.09202050      -0.00561599      -0.00361493      -0.00843661
Li      -0.32660597       5.61047508       4.62163409       0.00704691       0.02565974       0.00811848
Ga       2.15702813       2.87966673       0.45593039       0.01120171      -0.02056964       0.00338859
Ga       2.50932040       6.17903934      -2.82179260       0.01922227       0.01014505       0.01290182
Ga       2.12073121      -0.03864364       4.00965986       0.00452991      -0.00709242      -0.00013819
Ga       4.25985380       4.24629712       1.66047088      -0.02607584       0.01069426       0.00746492
Ga       1.98849140       4.17578517       3.52540389      -0.02340723      -0.01494120      -0.00453479
Ga      -0.56397734       2.38926067      -0.10847195      -0.02619021      -0.00968544      -0.01331191
Sn       2.19890664       6.16121361       0.30826581       0.00002461       0.01288962       0.01418009
Sn       2.97664251       2.15520304       5.62837364      -0.01971973       0.00148439      -0.01854312
Sn      -1.14226038       6.35003585      -0.60801035       0.01809388       0.00031779       0.00279400
Sn      -0.45417634       2.65595342       4.72936342       0.01991130      -0.00887176      -0.03472448
16
Lattice="3.279315715569745 1.9158641332264017e-06 -0.0006296245455856196 -1.6396922298031298 5.457896754996065 -0.005662245785164878 0.001686218078374799 -0.026803391403858633 17.731997785897793" Properties=species:S:1:pos:R:3:forces:R:3 structure_index=5 total_energy=-44.28285217285156 stress="0.0004790039383806288 0.0004639701219275594 -6.600964115932584e-05 0.0004639493126887828 0.009466846473515034 -0.00033204519422724843 -6.587306415895e-05 -0.0003324514254927635 -0.0015315001364797354" pbc="T T T"
Li       2.30965656       1.60758945      16.61657813      -0.00013515      -0.00572666       0.01885800
Li       0.66796482       4.30809444       3.13737377      -0.00051381       0.00034417      -0.01033401
Li       2.30540815       1.80734183       7.69762574       0.00134313      -0.02161526       0.00323967
Li       0.66956000       4.26099962      12.02369723      -0.00167488      -0.01244165       0.02540779
Li       0.66843158       0.70463045      10.08996521      -0.00094998       0.01936037       0.00957341
Li       0.66787325       4.17414740       8.32591314      -0.00147628       0.01836472      -0.02067178
Li       2.30549228       1.73865314       3.59476951       0.00036864      -0.00031416       0.00765161
Li       0.66578202      -0.05103763       5.72792756       0.00068136      -0.01591769       0.00128140
Li       2.30847298       1.60209249      12.58735057       0.00054635      -0.02158391      -0.01908657
Li       0.66948507       4.32644423      17.06310690      -0.00045199       0.00299771      -0.04240949
Ga       2.30752656       3.08789171       1.26085771      -0.00002138       0.01963660      -0.01823501
Ga       2.30680993       3.00784989      10.14213793       0.00281139      -0.02735169       0.04083700
Sn       0.66998509       2.88703955      14.56183601      -0.00281826       0.02991081      -0.03032429
Sn      -0.97137668       5.40081957      14.56330002       0.00289585       0.01989173       0.00550473
Sn       0.66615536       2.95296748       5.67629148      -0.00069339       0.00577946      -0.00089327
Sn       0.66753835       0.59241901       1.27202157       0.00008842      -0.01133457       0.02960083
12
Lattice="4.585238207598511 0.0019480738597848386 -0.0036610580839272224 -2.293802671632532 3.969728417863777 -0.0015112676209863565 0.009440913827952093 0.008147528792993831 11.13246265785574" Properties=species:S:1:pos:R:3:forces:R:3 structure_index=6 total_energy=-31.6055850982666 stress="0.02101507969200611 0.0013098967028781772 0.0005786291440017521 0.0013103350065648556 0.01904793083667755 0.0003104561474174261 0.000578621169552207 0.00031061292975209653 0.007090291474014521" pbc="T T T"
Li      -0.64298894       3.48305229       9.44268694      -0.00050167      -0.00045428      -0.01524709
Li       3.93643718       0.83118404       2.98832798      -0.00035851       0.00001835      -0.00892954
Li       1.64515177       2.15583555       4.93377970      -0.00025901      -0.00026885       0.01632133
Li      -0.64620668       3.48026704       6.71077757       0.00056088       0.00048281      -0.01721105
Li      -0.65034890       3.47514239       1.09370179      -0.00003214       0.00048316      -0.04390734
Li       1.65096324       2.16036918      10.55143087      -0.00009509      -0.00021995       0.04112509
Li       3.94190838       0.83707730       8.65307091       0.00065723       0.00046711       0.00871268
Li       1.64291933       2.15276003       2.20203172       0.00005630       0.00075797       0.01534785
Li       3.93907954       0.83395348       5.82105831      -0.00014150       0.00026727      -0.00043570
Ga       3.93538603       0.82978173       0.25365827      -0.00041278      -0.00004203       0.00126606
Sn       1.64821279       2.15921383       7.79473889      -0.00100252      -0.00186399      -0.04384397
Sn      -0.64913422       3.47720738       3.84944779       0.00152879       0.00037241       0.04680164
9
Lattice="4.936163825627423 0.008768292752228074 -0.0008164543728494179 -2.464534214724015 4.249159394465696 -0.0016272423969838617 -0.002970811556076327 -0.0035206294433233636 8.782656416636378" Properties=species:S:1:pos:R:3:forces:R:3 structure_index=7 total_energy=-27.635923385620117 stress="-0.027298549190163612 -0.0003259129880461842 -4.834241735807154e-06 -0.0003260019002482295 -0.026752805337309837 -2.749956547631882e-05 -4.622034339263337e-06 -2.7550950107979588e-05 -0.025487029924988747" pbc="T T T"
Li       2.18280355       1.91986778       3.89913312       0.00070440       0.00092415       0.01458087
Li       2.18265274       1.92092547       6.85879866      -0.00044198      -0.00118309      -0.02032819
Li       2.18284972       1.91928192       0.98769008      -0.00006796      -0.00009876      -0.00890529
Ga      -0.28953233       0.49090386       2.55504450      -0.00047091      -0.00029513      -0.02358082
Ga      -0.28998565       0.49093082       5.37040451      -0.00039003      -0.00020763       0.03835385
Ga      -0.28362743       3.33607428       8.23909458       0.00060078       0.00068947       0.02431496
Sn      -0.28855588       0.49533279       8.36909155       0.00025390       0.00060637      -0.04231747
Sn      -0.28451775       3.33177190       2.35542891      -0.00020312      -0.00044632       0.01214416
Sn      -0.28484045       3.33206755       5.36414144       0.00001493       0.00001096       0.00573793
12
Lattice="4.277121310823244 0.0024196400575323437 -0.0014572365535013296 -2.141469982686675 4.763350943796348 -0.7601211359543972 0.00551454384688604 -2.1596687190393054 11.903745910094342" Properties=species:S:1:pos:R:3:forces:R:3 structure_index=8 total_energy=-36.119895935058594 stress="-0.019210243597626686 7.760676089674234e-05 8.539414557162672e-05 7.759907748550177e-05 -0.009850220754742622 -0.006426465231925249 8.526397141395137e-05 -0.006426455453038216 -0.017217695713043213" pbc="T T T"
Li       0.37250302       1.95184102       4.19250169       0.00042159      -0.01897587      -0.01752220
Li      -1.76797598       4.45340479       0.07569702      -0.00050346       0.01325106       0.01674429
Li       2.51294816       0.24562148       5.49034684      -0.00037414      -0.01716420      -0.02518856
Li       2.51133140       0.73055057       2.55104751       0.00026399      -0.01635748      -0.00629700
Li      -1.76459160       2.80046648       9.00167342       0.00071908       0.01005824       0.02580355
Li       0.37605286       1.07564464      10.35469808      -0.00037722       0.01172648      -0.01974220
Ga       0.37162326       2.59496749       1.32350670       0.00000672      -0.00305285      -0.00034025
Ga      -1.76580319       3.18777838       5.86075706      -0.00014696       0.00040602      -0.00766764
Sn       0.37416184       1.54507914       7.18165210       0.00000944      -0.00675174      -0.01533253
Sn       2.51610164      -0.73014565      11.57165684      -0.00052739       0.03340416       0.04634715
Sn      -1.76733514       3.73254133       2.99237829       0.00038917      -0.02286230      -0.02857566
Sn       2.51422322      -0.19217728       8.54201227       0.00011917       0.01631846       0.03177102
8
Lattice="4.392423196569306 0.007500831482692392 -0.010602814419814281 -0.007603522860712942 4.514747948595433 -0.00637337753072835 0.0187712185281187 0.007740900755577865 8.348353855607943" Properties=species:S:1:pos:R:3:forces:R:3 structure_index=9 total_energy=-24.798076629638672 stress="0.04310915246605873 0.0005533142248168588 0.0030435381922870874 0.0005533191724680364 0.02211771160364151 -0.002257546642795205 0.003043762408196926 -0.0022576318588107824 -0.022207675501704216" pbc="T T T"
Li       3.77357355       3.06770881       0.29821897       0.00245373       0.00255920       0.00004458
Li       1.58497386       3.06725070       2.34001460      -0.00099657       0.00020667       0.00048677
Li       3.78742580       3.07438463       4.37115383       0.00054446      -0.00086046       0.00277789
Ga       1.59573759       0.80875060       4.33184791      -0.00885567       0.00470655       0.01427075
Ga       1.58206026       0.80861964       0.35800891       0.00186213      -0.00133887      -0.02039399
Sn       3.79150280       0.81833875       6.51175461       0.00855228      -0.00189616       0.00194900
Sn       3.78417080       0.81490355       2.33743953       0.00285250      -0.00331437       0.00545776
Sn       1.59416354       3.07135385       6.51781605      -0.00641284      -0.00006256      -0.00459277
8
Lattice="2.862565343467181 0.00015013289108986434 -0.0019544485203698094 -0.00023992426459944528 4.792884827012262 -0.0007729000113292473 0.007036018690441737 0.002145532737841968 10.59987184252659" Properties=species:S:1:pos:R:3:forces:R:3 structure_index=10 total_energy=-23.582786560058594 stress="0.05439578369259834 4.216803063172847e-05 0.0002930430928245187 4.2223466152790934e-05 -0.054197583347558975 7.290974463103339e-05 0.00029290051315911114 7.29379607946612e-05 -0.025952650234103203" pbc="T T T"
Li       2.68211082       3.90536901       4.93693763      -0.00011362       0.00017298       0.00456896
Li       2.67913826       1.50790699       1.17508501       0.00009671       0.00027792      -0.01260146
Li       2.68587230       3.90699652      10.11136593      -0.00007504      -0.00039910       0.01299583
Li       2.68304644       1.50944874       6.35039843       0.00006840      -0.00016717      -0.00529467
Ga       1.24990074       1.50821024       3.93054045       0.00020972       0.00030240      -0.00636483
Ga       1.25266362       3.90646553       7.35925580      -0.00026155      -0.00027917       0.00294518
Sn       1.25373963       1.51037001       9.03855670       0.00006532      -0.00022530       0.04034398
Sn       1.24871483       3.90432081       2.24944283       0.00001005       0.00031742      -0.03659303
19
Lattice="6.821656185921348 0.029538437040572723 -2.102324008821659 -3.3728381343829623 6.302290701924246 -2.6686837327233177 -0.024844693843462502 -0.07708460236010084 7.617564328824342" Properties=species:S:1:pos:R:3:forces:R:3 structure_index=11 total_energy=-52.630767822265625 stress="0.007618318311870098 0.0032334995921701193 0.010508548468351364 0.0032331664115190506 -0.0014166198670864105 0.006442881654947996 0.010508563369512558 0.0064428141340613365 -0.0025218261871486902" pbc="T T T"
Li       0.10081145       6.01836427      -2.73095030       0.01099051       0.00209751      -0.00808574
Li       1.85327507       5.33882314       2.68028866       0.01109419      -0.00237138       0.00205484
Li      -1.26798307       4.07849902       0.46763773      -0.01478539       0.00391792       0.00237732
Li       3.78638798       4.74013604       0.57041412      -0.00063551       0.01091185      -0.00174081
Li       0.80477934       0.72693386      -0.59126170       0.02774814       0.00423965      -0.03038117
Li       3.22551530       2.35594200      -1.27218111       0.00631991      -0.02724292       0.00852259
Li       4.15079645       2.10025890       1.57307277      -0.01682806       0.00515394      -0.00785217
Li       2.31002892       2.72731304       3.72034929      -0.01097449      -0.00141270       0.00820109
Li      -0.04017936       1.06116312       4.21895179      -0.03155511       0.00561185       0.03291067
Li       0.42095639       3.43842414      -1.73726038       0.01565616      -0.02458789       0.00869978
Ga      -0.47165956       3.77316633       3.20123531      -0.01482997      -0.01674512      -0.02001571
Ga      -2.14343468       4.23013376       5.32899829       0.02750560       0.02074098       0.00965881
Ga       2.58282334       0.08672267       4.83771251       0.01021649      -0.01548504       0.00370430
Ga       5.74360018       1.52677416      -0.61753090       0.01008133      -0.01244590       0.00243422
Ga       1.84127760       0.31539196       2.10258817      -0.00971384       0.01304124       0.00699830
Ga       4.97255459       1.68821027       4.30394009      -0.01880326       0.00871366      -0.00320456
Ga       1.01495421       5.83798064       0.03845925      -0.01848213       0.02961542      -0.00500805
Sn       2.79570249       5.11945773      -2.19866132       0.03372874      -0.01428779      -0.00323039
Sn       1.47374883       2.98608549       0.97505451      -0.01673340       0.01053476      -0.00604339
4
Lattice="4.439843539377097 0.000279415148494001 -0.0005771200175805621 -0.00020901083878123873 4.061122312668515 -0.002037779105673875 0.0006572550151824059 0.0012626667853061816 4.0611180891924485" Properties=species:S:1:pos:R:3:forces:R:3 structure_index=12 total_energy=-11.800243377685547 stress="0.03882915526628494 0.0001539045333629474 0.00044543060357682407 0.00015393576177302748 0.09929332137107849 -0.007166252471506596 0.00044549209997057915 -0.007166117429733276 0.09927993267774582" pbc="T T T"
Li       2.77901942       3.30954161       1.63684004      -0.00020450       0.00029051      -0.00040463
Li       2.77957640       1.27979991       3.66811979      -0.00044381      -0.00023394       0.00040164
Ga       0.55950023       3.31018087       3.66757695      -0.00004264      -0.00020282      -0.00030257
Sn       0.55903973       1.27892427       1.63793223       0.00069096       0.00014624       0.00030556
8
Lattice="4.732831029303143 -0.001510218077047074 0.0006438782226586478 0.003148657902414371 5.008065734292267 -2.886921612238626 -0.000807735114593761 -0.0006730994138077723 5.781840958250329" Properties=species:S:1:pos:R:3:forces:R:3 structure_index=13 total_energy=-20.484363555908203 stress="0.0017151240026578307 0.00251045566983521 0.0010764673352241516 0.0025104579981416464 -0.031242743134498596 0.0011352464789524674 0.0010765151819214225 0.001135071273893118 -0.03139188885688782" pbc="T T T"
Li       0.25637961       1.48189233       4.79893843      -0.00139085      -0.04012448       0.00416115
Li       0.25694168       3.89726307       3.41116898       0.00035047       0.02187607      -0.03682517
Li       2.62186279       0.62052400       3.30074007       0.00097573       0.02202572      -0.03811922
Li       0.25816419       3.90043800       0.41527562      -0.00074452       0.01682663       0.03514934
Li       2.62136047       0.62075372       0.52464557       0.00195505       0.01898474       0.03641720
Li       2.62348280       3.02912111       1.91492213       0.00002259      -0.04488572       0.00164357
Ga       0.25642759       1.42609809       1.90808387      -0.00112712      -0.00091402       0.00246621
Sn       2.62412544       3.08978218      -0.97448218      -0.00004134       0.00621102      -0.00489312
12
Lattice="4.871493391319899 0.014875423283555327 -0.0013751414942460246 -2.4435413304346847 4.210600716199028 -0.0025804503462805873 0.0060806113010375565 0.010827154901136083 12.054010112091754" Properties=species:S:1:pos:R:3:forces:R:3 structure_index=14 total_energy=-36.8487548828125 stress="0.0011191533412784338 -0.00030662838253192604 0.0003063054755330086 -0.0003065533237531781 0.0013237710809335113 0.0002281355409650132 0.00030637759482488036 0.00022815864940639585 0.005397098604589701" pbc="T T T"
Li      -1.09700470       3.64476844       8.57936348      -0.00016699       0.00000522      -0.00486821
Li      -1.10034150       3.64164341       5.56387492      -0.00020152       0.00000568       0.00008805
Li      -1.10146617       3.63897641       2.54685532       0.00004030       0.00005382       0.00114756
Li      -1.09527048       3.64749729      11.58662160       0.00022925       0.00004549       0.00140540
Ga       3.78087708       0.84891262      10.23708252       0.00133039       0.00018062       0.02390351
Ga       3.77661558       0.84107668       0.88404915       0.00053628       0.00003100      -0.01105528
Ga       1.33567637       2.24130747       4.21248716      -0.00032777      -0.00008207       0.01206198
Ga       1.33969766       2.24488517       6.91421936      -0.00143076      -0.00028262      -0.02204404
Sn       1.33729274       2.23976179       1.23330390      -0.00059379      -0.00032254      -0.02542563
Sn       3.77497980       0.84258823       3.86234071       0.00065315       0.00038026       0.02729040
Sn       1.34153375       2.24702838       9.88565522      -0.00055184       0.00019146       0.04149739
Sn       3.77910585       0.84677016       7.26815810       0.00048329      -0.00020634      -0.04400112
4
Lattice="4.055245432000389 0.00481600090844311 -0.0059429958010805 -0.005276071189479578 4.05518054623959 -0.0035884700429999854 0.0072263876467930374 0.004365906814489284 4.449349655832632" Properties=species:S:1:pos:R:3:forces:R:3 structure_index=15 total_energy=-11.800253868103027 stress="0.01992201618850231 -0.004268058575689793 0.0023088562302291393 -0.004268154967576265 0.019547678530216217 0.0013700169511139393 0.0023088210728019476 0.0013700415147468448 0.10368925333023071" pbc="T T T"
Li       1.80003398       3.55101942       3.90042824       0.00031594      -0.00039504       0.00063170
Li       3.83036740       1.52562620       3.89967461       0.00019631       0.00019377      -0.00018096
Ga       3.82435532       3.55097383       1.67287051      -0.00020754       0.00045002       0.00021577
Sn       1.79936374       1.52109642       1.67796127      -0.00030472      -0.00024875      -0.00066652
18
Lattice="5.916181060308298 -0.032386541630124804 -1.1438051383024816 -1.8089862890948964 7.170747841735715 -2.0421042739027913 -0.08556032755026274 -0.22493098425328364 7.64629417677076" Properties=species:S:1:pos:R:3:forces:R:3 structure_index=16 total_energy=-51.27964401245117 stress="-0.005679841618984938 0.00019127708219457418 0.0017629703506827354 0.0001913076121127233 -0.02365155704319477 0.004146263003349304 0.0017629116773605347 0.004146290943026543 -0.023061739280819893" pbc="T T T"
Li      -0.39643378       5.61012491       1.64936266      -0.01386478       0.01265530       0.01223984
Li       4.70352171       2.83961433       4.81201938       0.00271018       0.01923476      -0.00117984
Li       4.03909737       0.67666555       1.59562781       0.02042721       0.01810323      -0.00401131
Li       0.85357700       2.99933905       0.58859348      -0.00637073      -0.02498354      -0.00068899
Li       3.70753919       2.97990341      -0.02804729       0.00989498      -0.00092551      -0.01999792
Li       1.49703863       5.39530649       3.93512830      -0.00084338      -0.00686795      -0.00308177
Li      -1.45751438       5.47140309       4.42746497      -0.00193931      -0.02316167       0.00182263
Ga       2.12509562       0.71209732      -0.58416442       0.00749667      -0.02502393       0.02325505
Ga       5.05867994       0.80426852      -1.20908802      -0.00357749      -0.00707463       0.01862396
Ga       2.45564997       5.42192381       1.19719745       0.00668949       0.01593686       0.00223380
Ga       0.07766740       0.52972755       4.92686273       0.00342548      -0.01310840      -0.01357221
Ga       1.21502613       0.73869004       2.16128095      -0.01466063       0.00579077       0.01081837
Ga       0.63301011       5.46854736      -0.99024976      -0.00038342      -0.01010908      -0.00177615
Ga       1.73831276       2.81178696       5.47670846       0.00475710       0.01748523       0.01056679
Ga       2.76369002       3.03457130       2.77396606      -0.00429957       0.02381713      -0.01755130
Ga       3.07874995       0.57348048       4.32226952      -0.02071660       0.00379863      -0.00277641
Sn      -0.23696279       3.09148283       3.28789146       0.00983731       0.02288503      -0.01359463
Sn       3.59198450       5.47974894      -1.61813359       0.00141750      -0.02845224      -0.00132986
4
Lattice="4.054946488956569 0.0008637755285130626 -0.0008408538863117449 -0.000935997433230652 4.054899202016848 -1.916706116891081e-05 0.0010044790315083334 2.5115724860225177e-05 4.449282201221904" Properties=species:S:1:pos:R:3:forces:R:3 structure_index=17 total_energy=-11.800254821777344 stress="0.013358081690967083 -0.0006795920780859888 0.00026777898892760277 -0.0006795864901505411 0.013109956867992878 1.0485324310138822e-05 0.00026786120724864304 1.0548170394031331e-05 0.09988673776388168" pbc="T T T"
Li       0.43620539       3.02115613       2.70224566       0.00094575      -0.00004034       0.00118596
Li       2.46480228       0.99383803       2.70165772      -0.00069845       0.00057158       0.00152430
Ga       2.46351787       3.02156182       0.47776385       0.00085364       0.00076706      -0.00082566
Sn       0.43681874       0.99396959       0.47818307      -0.00110093      -0.00129830      -0.00188460
15
Lattice="5.0306087404205035 0.10809705723169838 1.4442240036724066 -0.23493418363129834 7.3352316397348405 0.160116107230903 0.4462995941054284 -0.1667199529123726 7.995420577740447" Properties=species:S:1:pos:R:3:forces:R:3 structure_index=18 total_energy=-43.07404708862305 stress="0.005113971419632435 0.009184224531054497 0.002184103475883603 0.009184125810861588 -0.0032526503782719374 0.0030980969313532114 0.0021840808913111687 0.003098232438787818 0.005544198676943779" pbc="T T T"
Li       0.06457719       3.96423202       1.95153750       0.01616139      -0.00243017      -0.01070930
Ga       4.70749783       1.70108953       1.70338895       0.02712601       0.00440139      -0.00216614
Ga       0.99979454       1.48504395       5.22145945      -0.02382602       0.00051272       0.00540130