14
Lattice="10.45562225782999 -1.0380075050463653e-07 -3.2267450133627226e-09 -1.0380074882324426e-07 10.455622295879007 1.4159383662045145e-08 -9.850944550744376e-10 4.3227236416766345e-09 3.1728800985483154" Properties=species:S:1:pos:R:3:forces:R:3 structure_index=0 total_energy=-48.15561294555664 stress="0.018698442727327347 3.785643443166009e-08 8.300776954683897e-08 5.162241123457534e-08 0.018703006207942963 1.634709718700833e-07 1.3490952710526471e-07 2.2233929541926045e-07 0.016746794804930687" pbc="T T T"
Li       3.39813977       8.62595097       1.58644006      -0.02695651      -0.02695738       0.00000004
Li       8.62595091       7.05748235       1.58644006      -0.02695778       0.02695838       0.00000004
Li       1.82967125       3.39813984       1.58644005       0.02695773      -0.02695717       0.00000002
Li       7.05748238       1.82967122       1.58644005       0.02695886       0.02695735      -0.00000009
Sn       0.71336056       8.31414031       0.00000001       0.01820170      -0.00264787      -0.00000004
Sn       9.74226159       2.14148190      -0.00000000      -0.01820244       0.00264552      -0.00000001
Sn       8.31414018       9.74226152       0.00000001      -0.00264711      -0.01819933       0.00000001
Sn       2.14148198       0.71336067       0.00000000       0.00264610       0.01820057      -0.00000007
Sn       5.22781113      -0.00000007      -0.00000000       0.00000061      -0.00000189       0.00000005
Sn      -0.00000007       5.22781114       0.00000001       0.00000090       0.00000069       0.00000002
Sn       5.94117174       7.36929310       0.00000001       0.01819989       0.00264737      -0.00000000
Sn       7.36929307       4.51445043       0.00000000       0.00264723      -0.01820167      -0.00000005
Sn       3.08632907       5.94117179       0.00000001      -0.00264722       0.01820261       0.00000003
Sn       4.51445042       3.08632909       0.00000000      -0.01820194      -0.00264719       0.00000004
4
Lattice="4.012461178692041 8.970312638174786e-10 2.3165955337876736 1.3374870927916522 3.78298466930997 2.3165954777005604 2.4022378632996966e-08 -5.170601711599791e-08 4.633191025967366" Properties=species:S:1:pos:R:3:forces:R:3 structure_index=1 total_energy=-11.110981941223145 stress="-0.10054399818181992 9.007919743453385e-07 -3.1180678661257843e-07 7.932235348562244e-07 -0.1005389541387558 -4.2901342567347456e-07 -1.7967037990729295e-07 -4.325644056279998e-07 -0.10053860396146774" pbc="T T T"
Li       1.33748707       0.94574615       2.31659551       0.00000008       0.00000016      -0.00000001
Li       4.01246123       2.83723846       6.94978654      -0.00000016       0.00000004      -0.00000005
Li       2.67497415       1.89149231       4.63319102      -0.00000001       0.00000011      -0.00000002
Sn      -0.00000000       0.00000000      -0.00000000       0.00000009      -0.00000030       0.00000010
3
Lattice="4.8274006694642315 -1.6591667160306835e-08 1.239642073879767e-08 -2.4137003315890477 4.1806514423024055 -2.130916381908235e-08 7.301474908805045e-09 -1.0277217525141638e-08 2.874752479128045" Properties=species:S:1:pos:R:3:forces:R:3 structure_index=2 total_energy=-5.646907806396484 stress="0.0051940144039690495 -4.775941420120944e-07 -6.098346716498781e-08 -5.802901910101355e-07 0.005195037927478552 3.678022331143893e-09 -7.021140646656931e-08 -1.9062262879288028e-09 -0.1090376004576683" pbc="T T T"
Li       0.00000001      -0.00000001       0.00000000      -0.00000014      -0.00000003       0.00000004
Li       2.41370033       1.39355047       1.43737624       0.00000016      -0.00000013      -0.00000001
Li       0.00000001       2.78710096       1.43737623      -0.00000003       0.00000016      -0.00000003
12
Lattice="8.201573257449974 0.12988477274114435 -4.0005100602741373e-07 -6.363462940353991 5.175811452316378 2.1538518050419248e-07 -2.5400012351860603e-07 -1.0153139823044168e-07 5.377121180882218" Properties=species:S:1:pos:R:3:forces:R:3 structure_index=3 total_energy=-22.123178482055664 stress="0.019730357453227043 -0.006242607720196247 3.7960523968649795e-07 -0.006242489907890558 0.003875523107126355 -1.4363440925535542e-07 2.8213901259732665e-07 6.155759990633669e-08 -0.0029366053640842438" pbc="T T T"
Li       1.39061822       4.01401303       3.16521599      -0.00130686      -0.00377282      -0.04646413
Li       0.44749185       1.29168309       2.21190494       0.00130708       0.00377262       0.04646440
Li       1.36654702       3.94453122       0.47665548       0.00130713       0.00377367      -0.04646423
Li       0.47156298       1.36116492       4.90046561      -0.00130738      -0.00377347       0.04646425
Li       3.51359535       2.41451463       4.05013268      -0.02031381      -0.02939127      -0.00496044
Li       3.10497493       1.23503378       1.32698815       0.00222255       0.03565926       0.00496030
Li      -4.17754316       3.75799712       1.36157242       0.00222274       0.03565930      -0.00495950
Li      -3.76892284       4.93747789       4.01554898      -0.02031415      -0.02939228       0.00495965
Li      -1.67548522       2.89118154       1.32698830       0.02031345       0.02939152       0.00496020
Li      -1.26686488       4.07066238       4.05013287      -0.00222316      -0.03565944      -0.00496024
Li       6.01565321       1.54769894       4.01554856      -0.00222204      -0.03565929       0.00495983
Li       5.60703290       0.36821818       1.36157199       0.02031446       0.02939223      -0.00496010
46
Lattice="12.490934806003406 1.4592927472079602e-07 -6.598037111751659e-08 1.4592927672949183e-07 12.490935007029114 8.501816149886401e-08 -6.598037188236576e-08 8.501816073401481e-08 12.490934827788253" Properties=species:S:1:pos:R:3:forces:R:3 structure_index=4 total_energy=-174.9522247314453 stress="0.0006478298455476761 2.6460585900167644e-07 -2.2436304334405577e-06 2.4662702458044805e-07 0.0006499785813502967 -1.8213673911304795e-06 -2.24078962673957e-06 -1.8081399275615695e-06 0.0006478562136180699" pbc="T T T"
Sn       6.24546746       4.78179669       2.40224953      -0.00000527      -0.01154844      -0.02539995
Sn       6.24546749       7.70913852      10.08868533      -0.00000567       0.01155042       0.02540099
Sn       4.78179645       2.40224965       6.24546739      -0.01154717      -0.02540115      -0.00000439
Sn       7.70913834       2.40224966       6.24546740       0.01155309      -0.02539169       0.00000573
Sn       2.40224957       6.24546758       4.78179652      -0.02539483      -0.00000029      -0.01154920
Sn      10.08868534       6.24546770       4.78179651       0.02540025       0.00000089      -0.01155154
Sn       0.00000012       8.64771703       1.46367095       0.00000047      -0.02539980       0.01155110
Sn       0.00000001       3.84321802      11.02726403       0.00000170       0.02539986      -0.01155325
Sn       3.12273372       0.00000009       6.24546741       0.00000032      -0.00000281      -0.00000032
Sn       9.36820103       0.00000019       6.24546738       0.00000128       0.00000084       0.00000088
Sn       0.00000008       6.24546757       3.12273376      -0.00000318       0.00000106       0.00000069
Sn       0.00000009       6.24546757       9.36820112      -0.00000059      -0.00000281       0.00000157
Sn       6.24546753       9.36820130       0.00000009       0.00000645       0.00000365      -0.00000115
Sn       6.24546747       3.12273382      -0.00000000      -0.00000151       0.00000035      -0.00000055
Sn       2.29249055       2.29249062       2.29249053      -0.00483639      -0.00483834      -0.00483763
Sn       8.53795787       3.95297710       8.53795790      -0.00484360       0.00482858      -0.00484128
Sn       8.53795797       8.53795810       3.95297690      -0.00484072      -0.00483288       0.00484289
Sn       3.95297693       8.53795815       8.53795792       0.00483704      -0.00483789      -0.00483673
Sn      10.19844438      10.19844462       2.29249048       0.00483296       0.00483323      -0.00484035
Sn       2.29249054      10.19844455      10.19844438      -0.00484102       0.00484277       0.00482689
Sn      10.19844427       2.29249067      10.19844424       0.00483909      -0.00483551       0.00483057
Sn       3.95297690       3.95297699       3.95297691       0.00483572       0.00483913       0.00483568
Sn      10.19844438      10.19844465      10.19844438       0.00483213       0.00484880       0.00482747
Sn       3.95297697       8.53795805       3.95297692       0.00483509      -0.00484126       0.00483230
Sn       3.95297692       3.95297706       8.53795792       0.00483063       0.00483891      -0.00483187
Sn       8.53795789       3.95297709       3.95297688      -0.00483136       0.00483027       0.00483781
Sn       2.29249044       2.29249063      10.19844427      -0.00483442      -0.00482958       0.00483686
Sn      10.19844429       2.29249066       2.29249043       0.00483537      -0.00483067      -0.00483095
Sn       2.29249060      10.19844448       2.29249052      -0.00483686       0.00483269      -0.00483389
Sn       8.53795793       8.53795816       8.53795791      -0.00483481      -0.00483268      -0.00483308
Sn       0.00000005       3.84321794       1.46367087       0.00000147       0.02539757       0.01155234
Sn       6.24546740       4.78179675      10.08868530       0.00000394      -0.01155146       0.02539844
Sn       6.24546750       7.70913853       2.40224952       0.00000082       0.01155137      -0.02539656
Sn       7.70913835      10.08868560       6.24546747       0.01154953       0.02539456      -0.00001099
Sn       4.78179661      10.08868559       6.24546751      -0.01154893       0.02540248       0.00000503
Sn       2.40224951       6.24546760       7.70913838      -0.02539597       0.00000029       0.01154944
Sn      10.08868531       6.24546772       7.70913828       0.02540430      -0.00000141       0.01154674
Sn       1.46367083       0.00000007       3.84321790       0.01155171       0.00000475       0.02539945
Sn       3.84321792       1.46367092       0.00000003       0.02539717       0.01155224       0.00000260
Sn       8.64771707      11.02726418       0.00000004      -0.02540448      -0.01155581       0.00000221
Sn       1.46367082       0.00000009       8.64771694       0.01155207      -0.00001106      -0.02539625
Sn       8.64771693       1.46367104      -0.00000001      -0.02540270       0.01154650       0.00000069
Sn      11.02726394       0.00000015       3.84321784      -0.01154931       0.00000290       0.02540288
Sn      11.02726390       0.00000024       8.64771690      -0.01155429      -0.00000614      -0.02539345
Sn       3.84321801      11.02726417       0.00000006       0.02540303      -0.01154900      -0.00000044
Sn       0.00000005       8.64771718      11.02726402       0.00000745      -0.02540341      -0.01154742
7
Lattice="4.444112304785957 4.050277860404887e-07 1.5552591885780729 1.9499169597922288 3.9934894376250982 1.5552591894548442 -0.03594235653559145 -0.022448353051712996 7.229800653099511" Properties=species:S:1:pos:R:3:forces:R:3 structure_index=5 total_energy=-19.99755859375 stress="0.0027468428015708923 0.002110882196575403 -0.009664090350270271 0.002111002802848816 0.0006825273740105331 -0.00603586807847023 -0.009663848206400871 -0.0060358354821801186 0.026976237073540688" pbc="T T T"
Li       3.17904344       1.98552074       5.17015951      -0.00000042       0.00000063       0.00000035
Li       2.22557714       1.39001861       7.89466444      -0.00910132      -0.00568359       0.02600695
Li       4.13250978       2.58102288       2.44565457       0.00910085       0.00568342      -0.02600658
Li       1.35209625       0.84447261       3.26351689      -0.00872673      -0.00545118       0.02493765
Li       5.00599070       3.12656889       7.07680211       0.00872711       0.00545013      -0.02493740
Sn       0.43677969       0.27279752       5.87900982      -0.01195013      -0.00746414       0.03414724
Sn       5.92130719       3.69824396       4.46130925       0.01195065       0.00746474      -0.03414821
8
Lattice="5.5272909277052 -4.133725188940485e-08 -1.9541923816492732 -2.763645509854754 4.786774415856436 -1.9541924131071204 1.6066171119584318e-08 -1.0700412472362884e-08 5.862577191689455" Properties=species:S:1:pos:R:3:forces:R:3 structure_index=6 total_energy=-15.141242980957031 stress="-0.047666285187006 1.2113526963730692e-06 9.53600419961731e-07 1.2078277222826728e-06 -0.04766657203435898 1.2149388339821598e-06 1.038939899444813e-06 1.2698153568635462e-06 -0.0476699024438858" pbc="T T T"
Li      -1.31582936       2.39338721      -1.00042840      -0.01875409      -0.00000085       0.00663044
Li      -0.03299669       0.05715196       2.90795640       0.00937657      -0.01624181       0.00663084
Li       2.73064873       4.72962240       1.93086022       0.00937678       0.01624169       0.00663012
Li      -1.41481945       2.45053917       1.93086021       0.00937606      -0.01624167       0.00663044
Li       1.44781612       2.39338719      -1.97752459      -0.01875366      -0.00000008       0.00663070
Li       1.34882601       2.33623522       0.95376400       0.00937735       0.01624109       0.00663044
Li       2.76364546      -0.00000002      -0.90709963       0.00000027       0.00000082      -0.01989099
Li       2.76364547      -0.00000003       2.02418898       0.00000073       0.00000082      -0.01989200
1
Lattice="3.212115090452989 0.08014368286006934 -0.9136332125840516 -1.8144079445349588 2.651798660317757 -0.9136337679711812 -0.0410025317734891 -0.08014374894779246 3.339270703965685" Properties=species:S:1:pos:R:3:forces:R:3 structure_index=7 total_energy=-3.7625951766967773 stress="0.206568643450737 -0.15844547748565674 0.10597764700651169 -0.15844546258449554 -0.022068273276090622 0.20714479684829712 0.10597763955593109 0.20714479684829712 0.14906658232212067" pbc="T T T"
Sn       0.00000000       0.00000000       0.00000000      -0.00000000      -0.00000000      -0.00000000
1
Lattice="3.141801760164901 -0.19838070090690882 -1.0848578506497148 -1.3155158741688424 2.698637854817343 -1.4401234162424614 -0.04670634593890234 0.19838025751833585 3.3234999558791545" Properties=species:S:1:pos:R:3:forces:R:3 structure_index=8 total_energy=-3.7649688720703125 stress="-0.048429619520902634 0.11276333034038544 -0.04942120984196663 0.11276333779096603 -0.06555035710334778 -0.1559155434370041 -0.04942120984196663 -0.15591555833816528 -0.015858767554163933" pbc="T T T"
Sn       0.00000000       0.00000000       0.00000000      -0.00000000      -0.00000000      -0.00000000
4
Lattice="4.216856994553066 -0.06459407333801608 -3.9084972272401615 -0.8470935877322686 4.1314028003691545 -3.908497134949427 0.05352266952998619 0.0645941167367609 5.749380020175434" Properties=species:S:1:pos:R:3:forces:R:3 structure_index=9 total_energy=-13.954949378967285 stress="-0.05120884254574776 0.018454954028129578 -0.035472236573696136 0.018455050885677338 -0.044230278581380844 -0.042810551822185516 -0.03547219559550285 -0.04281039163470268 0.015783995389938354" pbc="T T T"
Li      -0.00000000      -0.00000002      -0.00000002       0.00000006       0.00000012      -0.00000022
Sn       2.97763068       1.01670220      -1.03380720      -0.00000020       0.00000002       0.00000082
Sn       0.44565541       3.11470066      -1.03380713       0.00000024       0.00000031      -0.00000022
Sn       1.68488169       2.03340437      -3.90849718      -0.00000009      -0.00000045      -0.00000038
18
Lattice="8.476536911486255 0.026761512072789654 -8.746817660290594e-08 -2.7865312265168365 8.005475080737865 3.825550888594681e-08 -4.861100965203842e-08 5.444086466918436e-09 4.702198711237146" Properties=species:S:1:pos:R:3:forces:R:3 structure_index=10 total_energy=-48.44610595703125 stress="0.0016479265177622437 0.010726340115070343 -6.913352876836143e-07 0.010726564563810825 0.009190327487885952 -7.847589955645162e-08 -6.643081746915414e-07 -1.531955291511622e-07 -0.0030225918162614107" pbc="T T T"
Li       0.00000015       0.00000023       0.00000014       0.00000124       0.00000183      -0.00000052
Li       2.84500311       4.01611876       2.35109928      -0.00000002      -0.00000038      -0.00000025
Li       3.72571324       5.25936381      -0.00000006       0.01425941       0.02012888       0.00000064
Li       1.96429352       2.77287414      -0.00000005      -0.01426047      -0.02013047       0.00000045
Li       6.51595341       1.41563209       2.35109936      -0.02225593       0.01576568      -0.00000003
Li      -0.82594708       6.61660544       2.35109930       0.02225560      -0.01576461       0.00000022
Li       2.87120316       7.81239185      -0.00000009       0.00155108       0.03002551       0.00000032
Li       2.81880275       0.21984669       0.00000008      -0.00155131      -0.03003050      -0.00000005
Li       6.41764192       5.30010840       0.00000001       0.02780985       0.01142291       0.00000012
Li      -0.72763454       2.73212901      -0.00000002      -0.02781501      -0.01142488       0.00000035
Li       1.92904078       6.57881833       2.35109940       0.02316789       0.00039616      -0.00000053
Li       3.76096618       1.45341933       2.35109934      -0.02316973      -0.00039653       0.00000014
Li       5.56644021       4.00209866       2.35109932      -0.00731247       0.02198828      -0.00000013
Li       0.12356580       4.03013952       2.35109937       0.00731074      -0.02199001      -0.00000057
Sn       4.77142344       6.73552967       2.35109924      -0.00564189      -0.00796559      -0.00000001
Sn       0.91858335       1.29670867       2.35109923       0.00563927       0.00795859       0.00000010
Sn       4.87026171       2.58143130      -0.00000002      -0.01053836       0.00747655      -0.00000021
Sn       0.81974267       5.45080319      -0.00000007       0.01055011      -0.00746150      -0.00000007
2
Lattice="3.0392168078973123 2.1721243486121414e-07 2.274426800833071e-09 -1.5196089949413054 2.632038655677278 4.919523145173262e-09 3.638258502287627e-09 1.118741560058238e-08 4.919439481224355" Properties=species:S:1:pos:R:3:forces:R:3 structure_index=11 total_energy=-3.7699804306030273 stress="0.11679711192846298 -1.475827957619913e-06 1.586166291644986e-07 -1.4743427527719177e-06 0.11679520457983017 7.300807851606805e-07 1.7569205112977215e-07 8.331856520271685e-07 -0.06584008783102036" pbc="T T T"
Li      -0.00000037       1.75469251       3.68957961       0.00000019      -0.00000005      -0.00000037
Li       1.51960818       0.87734637       1.22985988      -0.00000020       0.00000006       0.00000036
6
Lattice="3.222002734627495 -1.11891867093288e-08 4.0685903974260845e-09 -1.5532530780998037e-08 4.990064767084551 1.360443044175326 9.849818011239517e-09 -0.07379216711700204 7.812923775266942" Properties=species:S:1:pos:R:3:forces:R:3 structure_index=12 total_energy=-19.05204200744629 stress="0.023096324875950813 -1.6944635206073144e-07 2.1491312907073734e-07 -1.7897141901812574e-07 -0.014385664835572243 0.049216799437999725 2.14537962506256e-07 0.049216896295547485 0.019551627337932587" pbc="T T T"
Li       1.61100137       1.26018716       5.59556418       0.00000004      -0.03999985       0.00692597
Li       1.61100135       2.49503237       0.68022158       0.00000003      -0.00000025      -0.00000009
Li       1.61100135       3.65608538       3.57780257       0.00000008       0.03999979      -0.00692612
Sn       0.00000000       1.18430713       2.95676298      -0.00000012       0.02745356      -0.00078677
Sn       0.00000001       3.73196555       6.21660385       0.00000002      -0.02745328       0.00078708
Sn      -0.00000001      -0.00000003       0.00000002      -0.00000003       0.00000005      -0.00000008
1
Lattice="2.974455781424444 1.663848856142552e-07 1.7173029058763223 0.9914854147183063 2.804344149473617 1.7173029104241384 3.772705499501579e-10 5.836685241145381e-09 3.434605811099192" Properties=species:S:1:pos:R:3:forces:R:3 structure_index=13 total_energy=-3.758810043334961 stress="-0.023051701486110687 -1.940190259119845e-06 -2.802215249175788e-06 -1.9440324194874847e-06 -0.02304881624877453 3.2845800888026133e-06 -2.801116579576046e-06 3.2835330330271972e-06 -0.023051755502820015" pbc="T T T"
Sn       0.00000000       0.00000000       0.00000000      -0.00000000      -0.00000000      -0.00000000
108
Lattice="12.071289017836607 -3.434899994296934e-08 6.969361061423218 4.023762624986909 11.380918917308517 6.969361665171191 -6.963450915157913e-07 2.4704689202771045e-07 13.938723328951584" Properties=species:S:1:pos:R:3:forces:R:3 structure_index=14 total_energy=-278.75390625 stress="-0.0031857446301728487 -1.6790502286312403e-06 -3.01960881188279e-06 -1.8844929172701086e-06 -0.0031961873173713684 -7.21863557373581e-07 -2.5722067675815197e-06 -6.379501087394601e-07 -0.003189065959304571" pbc="T T T"
Li      14.86942334      10.51426960      25.75459672      -0.01737098      -0.01228595      -0.03009044
Li       6.47501745      10.51426960      20.90808487       0.03474393      -0.01228479       0.00000052
Li      12.07128827       2.59994883      20.90808449       0.00000041       0.03685388       0.00000041
Li      14.86942376      10.51426942      16.06157220      -0.01737268      -0.01228508       0.03008739
Li       2.70847707       1.91518241       4.69121987      -0.00030268      -0.00021349      -0.00052265
Li       6.65433421       1.91518241       6.96936141       0.00060531      -0.00021396       0.00000012
Li       4.02376266       5.63537181       6.96936158       0.00000070       0.00064266      -0.00000016
Li       2.70847688       1.91518251       9.24750311      -0.00030287      -0.00021330       0.00052425
Li       9.35783072       6.61698520      16.20823833      -0.00657535      -0.00464983      -0.01138977
Li       5.42691473       6.61698527      13.93872314       0.01314965      -0.00464926      -0.00000079
Li       8.04752552       2.91088262      13.93872304       0.00000017       0.01394674       0.00000101
Li       9.35783091       6.61698518      11.66920770      -0.00657565      -0.00464989       0.01138943
Li      10.90062448       7.70790514      18.88043553       0.00802440       0.00567301       0.01389699
Li      14.41261596       7.70790507      20.90808448      -0.01604810       0.00567330      -0.00000198
Li      12.07128813      11.01904196      20.90808455       0.00000022      -0.01702121      -0.00000088
Li      10.90062430       7.70790516      22.93573379       0.00802376       0.00567325      -0.01389787
Li      13.35381091       9.44256939      13.93872284      -0.01605135      -0.01135054       0.00000147
Li       2.74123998       1.93834980      13.93872327       0.01605087       0.01134997      -0.00000006
Li      10.70066804       1.93834972      18.53410061      -0.00802595       0.01135019      -0.01390168
Li       5.39438290       9.44256936       9.34334543       0.00802589      -0.01135021       0.01389940
Li       5.39438240       9.44256961      18.53410107       0.00802446      -0.01135002      -0.01390098
Li      10.70066864       1.93834957       9.34334501      -0.00802422       0.01135004       0.01390110
Li       0.00000001      -0.00000002      -0.00000010       0.00000027      -0.00000169       0.00000117
Li      12.14897874      11.33631625      25.52634415      -0.00459114      -0.00867181      -0.01681070
Li       8.03291228      11.33631628      23.14993246       0.01685218      -0.00867144      -0.00443043
Li      13.36561972       3.79473048      18.66623673      -0.00255770       0.01877811       0.00442974
Li      16.03197312      11.33631608      23.28449644      -0.01226265      -0.00867116      -0.01237802
Li      14.73764212       7.67539445      16.28982474      -0.00970483      -0.00143559       0.01680660
Li      16.03197334      11.33631608      18.53167238      -0.01226197      -0.00867240       0.01238149
Li       6.73858104       7.67539468      20.90808490       0.01940942      -0.00143549      -0.00000012
Li       9.48262548       3.79473053      20.90808464       0.00511704       0.01877867       0.00000009
Li      14.73764164       7.67539462      25.52634398      -0.00970393      -0.00143511      -0.01681020
Li      12.14897911      11.33631604      16.28982491      -0.00458917      -0.00867110       0.01680770
Li       8.03291252      11.33631609      18.66623725       0.01685209      -0.00867166       0.00443025
Li      13.36561956       3.79473051      23.14993203      -0.00255840       0.01877825      -0.00443169
Li      14.84261214      10.49531094      20.90808455       0.01046481       0.00739987      -0.00000197
Li       9.29996426       6.57606777      20.90808469      -0.01046540      -0.00740093      -0.00000030
Li      13.45695006       6.57606775      23.30812124       0.00523340      -0.00740091       0.00906481
Li      10.68562632      10.49531093      18.50804786      -0.00523286       0.00740035      -0.00906168
Li      10.68562611      10.49531102      23.30812145      -0.00523279       0.00740060       0.00906557
Li      13.45695024       6.57606762      18.50804767       0.00523265      -0.00740000      -0.00906163
Li       4.02376275       2.84522972       6.96936154       0.00000006       0.00000009      -0.00000043
Li       7.96097915       2.76913574       9.11825315       0.02435343      -0.00246562       0.01003363
Li      12.26544865       2.76913572      11.60343933      -0.02086609      -0.00246578      -0.01607423
Li       6.69924870      10.64092946      16.27400651      -0.00928078      -0.01885025       0.01607521
Li       3.91614926       2.76913584      11.45353668      -0.00348815      -0.00246619       0.02610662
Li       5.26442545       6.58263732      18.75919305       0.00579368       0.02378306      -0.01003373
Li       3.91614896       2.76913586      16.42390965      -0.00348709      -0.00246654      -0.02610798
Li      13.61372502       6.58263716      13.93872281      -0.01158537       0.02378295       0.00000105
Li      10.74407862      10.64092934      13.93872307       0.01856082      -0.01885048       0.00000044
Li       5.26442597       6.58263722       9.11825329       0.00579229       0.02378239       0.01003279
Li       7.96097869       2.76913591      18.75919288       0.02435425      -0.00246658      -0.01003429
Li      12.26544834       2.76913585      16.27400613      -0.02086566      -0.00246600       0.01607468
Li       6.69924898      10.64092934      11.60343981      -0.00928050      -0.01885046      -0.01607463
Li       5.28880377       3.73974877       9.16047673       0.02049907       0.01449551       0.03550462
Li       1.49368049       3.73974885       6.96936163      -0.04099688       0.01449402      -0.00000029
Li       4.02376278       0.16167280       6.96936149      -0.00000046      -0.04348336      -0.00000020
Li       5.28880397       3.73974876       4.77824611       0.02049808       0.01449485      -0.03550285
Li       3.99381153       8.48062075      16.15462502       0.01615668      -0.00248518       0.00527117
Li       8.15535484       8.48062078      18.55729302      -0.01264203      -0.00248498      -0.01135764
Li      10.71405842       4.86206847       9.32015316      -0.00655837      -0.01109155       0.01135854
Li      11.99340986       8.48062057      11.53605483      -0.00351490      -0.00248483       0.01662811
Li       9.32687720       0.93852838      11.72282119       0.00304179       0.01606244      -0.00526964
Li      11.99340960       8.48062066      16.34139090      -0.00351436      -0.00248485      -0.01662800
Li       5.48882239       0.93852849      13.93872308      -0.00608503       0.01606225      -0.00000005
Li       2.71446010       4.86206867      13.93872333       0.01311413      -0.01109097       0.00000052
Li       9.32687702       0.93852849      16.15462472       0.00304340       0.01606248       0.00526951
Li       3.99381172       8.48062067      11.72282156       0.01615657      -0.00248466      -0.00526873
Li       8.15535523       8.48062052       9.32015327      -0.01264276      -0.00248479       0.01135751
Li      10.71405803       4.86206866      18.55729281      -0.00655743      -0.01109122      -0.01135784
Li       4.24940856       5.61411061      11.62120210       0.00081691      -0.02420234      -0.03905005
Li      11.95361613       5.61411059      16.06922787       0.03341007      -0.02420224      -0.02023134
Li       9.27757323       9.39860616      11.80821796      -0.01168158       0.03956552       0.02023180
Li       7.93955191       5.61411051       9.49069687      -0.03422630      -0.02420180      -0.01881758
Li       6.70950389       2.13501082      16.25624400      -0.02254602       0.00883851       0.03904893
Li       7.93955151       5.61411066      18.38674912      -0.03422661      -0.02420142       0.01881654
Li      10.72356847       2.13501072      13.93872287       0.04509006       0.00883776       0.00000060
Li       5.58742989       9.39860632      13.93872326       0.02336277       0.03956483      -0.00000037
Li       6.70950413       2.13501071      11.62120191      -0.02254519       0.00883711      -0.03904935
Li       4.24940835       5.61411071      16.25624429       0.00081726      -0.02420149       0.03904940
Li      11.95361630       5.61411051      11.80821775       0.03341061      -0.02420196       0.02023161
Li       9.27757308       9.39860628      16.06922805      -0.01168126       0.03956599      -0.02023082
Li       8.04752549       5.69045957      13.93872301       0.00000132       0.00000007       0.00000017
Li      12.07128820       8.53568935      20.90808449       0.00000086      -0.00000012      -0.00000130
Li       6.80773017       4.81379197      11.79133462       0.00202446       0.00143202       0.00350872
Li      10.52711632       4.81379192      13.93872294      -0.00405225       0.00143330       0.00000043