phonopy:
  version: "2.37.1"
  frequency_unit_conversion_factor: 15.633302
  symmetry_tolerance: 1.00000e-05

space_group:
  type: "P1"
  number: 1
  Hall_symbol: "P 1"

primitive_matrix:
- [ -1.000000000000000,  0.000000000000000,  0.000000000000000 ]
- [  0.000000000000000, -0.000000000000000,  1.000000000000000 ]
- [  0.000000000000000,  1.000000000000000,  0.000000000000000 ]

supercell_matrix:
- [   2,   0,   0 ]
- [   0,   2,   0 ]
- [   0,   0,   2 ]

primitive_cell:
  lattice:
  - [    -5.658735702863927,     0.000000000000000,     0.000000000000000 ] # a
  - [     0.000200551133060,    -0.271496367785317,     7.023666306951655 ] # b
  - [     0.000618334872104,     7.238012346304885,     0.000000000000000 ] # c
  points:
  - symbol: Sn # 1
    coordinates: [  0.206367109262602,  0.388847365522318,  0.071492000628162 ]
    mass: 118.710000
  - symbol: Sn # 2
    coordinates: [  0.205766539167651,  0.188127738508859,  0.471875274802432 ]
    mass: 118.710000
  - symbol: Sn # 3
    coordinates: [  0.705528062945152,  0.288581890531097,  0.272983448334554 ]
    mass: 118.710000
  - symbol: Sn # 4
    coordinates: [  0.705835146323216,  0.887922919251327,  0.073095819575281 ]
    mass: 118.710000
  - symbol: Sn # 5
    coordinates: [  0.206015002904058,  0.988543034561415,  0.872080327280905 ]
    mass: 118.710000
  - symbol: Sn # 6
    coordinates: [  0.706003594522392,  0.487741963755021,  0.872900530498923 ]
    mass: 118.710000
  - symbol: Sn # 7
    coordinates: [  0.706144938824948,  0.688318310075174,  0.472883192975214 ]
    mass: 118.710000
  - symbol: Sn # 8
    coordinates: [  0.205930692540050,  0.789442004369525,  0.272241709758169 ]
    mass: 118.710000
  - symbol: Sn # 9
    coordinates: [  0.705520800521260,  0.087470369192421,  0.673110925078318 ]
    mass: 118.710000
  - symbol: Sn # 10
    coordinates: [  0.206350719892751,  0.588119025264490,  0.672061257537167 ]
    mass: 118.710000
  reciprocal_lattice: # without 2pi
  - [    -0.176717919427460,     0.000015096803774,     0.000005629496709 ] # a*
  - [    -0.000000000000000,     0.000000000000000,     0.142375784426184 ] # b*
  - [    -0.000000000000000,     0.138159476960621,     0.005340486653360 ] # c*

unit_cell:
  lattice:
  - [     5.658735702863926,     0.000000000000000,     0.000000000000000 ] # a
  - [     0.000618334872103,     7.238012346304883,     0.000000000000000 ] # b
  - [     0.000200551133059,    -0.271496367785317,     7.023666306951653 ] # c
  points:
  - symbol: Sn # 1
    coordinates: [  0.793632890737398,  0.071492000628162,  0.388847365522318 ]
    mass: 118.710000
    reduced_to: 1
  - symbol: Sn # 2
    coordinates: [  0.794233460832349,  0.471875274802432,  0.188127738508859 ]
    mass: 118.710000
    reduced_to: 2
  - symbol: Sn # 3
    coordinates: [  0.294471937054848,  0.272983448334554,  0.288581890531097 ]
    mass: 118.710000
    reduced_to: 3
  - symbol: Sn # 4
    coordinates: [  0.294164853676784,  0.073095819575281,  0.887922919251327 ]
    mass: 118.710000
    reduced_to: 4
  - symbol: Sn # 5
    coordinates: [  0.793984997095943,  0.872080327280906,  0.988543034561415 ]
    mass: 118.710000
    reduced_to: 5
  - symbol: Sn # 6
    coordinates: [  0.293996405477608,  0.872900530498923,  0.487741963755021 ]
    mass: 118.710000
    reduced_to: 6
  - symbol: Sn # 7
    coordinates: [  0.293855061175052,  0.472883192975214,  0.688318310075174 ]
    mass: 118.710000
    reduced_to: 7
  - symbol: Sn # 8
    coordinates: [  0.794069307459950,  0.272241709758169,  0.789442004369525 ]
    mass: 118.710000
    reduced_to: 8
  - symbol: Sn # 9
    coordinates: [  0.294479199478740,  0.673110925078318,  0.087470369192421 ]
    mass: 118.710000
    reduced_to: 9
  - symbol: Sn # 10
    coordinates: [  0.793649280107249,  0.672061257537168,  0.588119025264490 ]
    mass: 118.710000
    reduced_to: 10

supercell:
  lattice:
  - [    11.317471405727852,     0.000000000000000,     0.000000000000000 ] # a
  - [     0.001236669744207,    14.476024692609766,     0.000000000000000 ] # b
  - [     0.000401102266119,    -0.542992735570634,    14.047332613903306 ] # c
  points:
  - symbol: Sn # 1
    coordinates: [  0.396816445368699,  0.035746000314081,  0.194423682761159 ]
    mass: 118.710000
    reduced_to: 1
  - symbol: Sn # 2
    coordinates: [  0.896816445368699,  0.035746000314081,  0.194423682761159 ]
    mass: 118.710000
    reduced_to: 1
  - symbol: Sn # 3
    coordinates: [  0.396816445368699,  0.535746000314081,  0.194423682761159 ]
    mass: 118.710000
    reduced_to: 1
  - symbol: Sn # 4
    coordinates: [  0.896816445368699,  0.535746000314081,  0.194423682761159 ]
    mass: 118.710000
    reduced_to: 1
  - symbol: Sn # 5
    coordinates: [  0.396816445368699,  0.035746000314081,  0.694423682761159 ]
    mass: 118.710000
    reduced_to: 1
  - symbol: Sn # 6
    coordinates: [  0.896816445368699,  0.035746000314081,  0.694423682761159 ]
    mass: 118.710000
    reduced_to: 1
  - symbol: Sn # 7
    coordinates: [  0.396816445368699,  0.535746000314081,  0.694423682761159 ]
    mass: 118.710000
    reduced_to: 1
  - symbol: Sn # 8
    coordinates: [  0.896816445368699,  0.535746000314081,  0.694423682761159 ]
    mass: 118.710000
    reduced_to: 1
  - symbol: Sn # 9
    coordinates: [  0.397116730416174,  0.235937637401216,  0.094063869254430 ]
    mass: 118.710000
    reduced_to: 9
  - symbol: Sn # 10
    coordinates: [  0.897116730416174,  0.235937637401216,  0.094063869254430 ]
    mass: 118.710000
    reduced_to: 9
  - symbol: Sn # 11
    coordinates: [  0.397116730416174,  0.735937637401216,  0.094063869254430 ]
    mass: 118.710000
    reduced_to: 9
  - symbol: Sn # 12
    coordinates: [  0.897116730416174,  0.735937637401216,  0.094063869254430 ]
    mass: 118.710000
    reduced_to: 9
  - symbol: Sn # 13
    coordinates: [  0.397116730416174,  0.235937637401216,  0.594063869254430 ]
    mass: 118.710000
    reduced_to: 9
  - symbol: Sn # 14
    coordinates: [  0.897116730416174,  0.235937637401216,  0.594063869254430 ]
    mass: 118.710000
    reduced_to: 9
  - symbol: Sn # 15
    coordinates: [  0.397116730416174,  0.735937637401216,  0.594063869254430 ]
    mass: 118.710000
    reduced_to: 9
  - symbol: Sn # 16
    coordinates: [  0.897116730416174,  0.735937637401216,  0.594063869254430 ]
    mass: 118.710000
    reduced_to: 9
  - symbol: Sn # 17
    coordinates: [  0.147235968527424,  0.136491724167277,  0.144290945265548 ]
    mass: 118.710000
    reduced_to: 17
  - symbol: Sn # 18
    coordinates: [  0.647235968527424,  0.136491724167277,  0.144290945265548 ]
    mass: 118.710000
    reduced_to: 17
  - symbol: Sn # 19
    coordinates: [  0.147235968527424,  0.636491724167277,  0.144290945265548 ]
    mass: 118.710000
    reduced_to: 17
  - symbol: Sn # 20
    coordinates: [  0.647235968527424,  0.636491724167277,  0.144290945265548 ]
    mass: 118.710000
    reduced_to: 17
  - symbol: Sn # 21
    coordinates: [  0.147235968527424,  0.136491724167277,  0.644290945265548 ]
    mass: 118.710000
    reduced_to: 17
  - symbol: Sn # 22
    coordinates: [  0.647235968527424,  0.136491724167277,  0.644290945265548 ]
    mass: 118.710000
    reduced_to: 17
  - symbol: Sn # 23
    coordinates: [  0.147235968527424,  0.636491724167277,  0.644290945265548 ]
    mass: 118.710000
    reduced_to: 17
  - symbol: Sn # 24
    coordinates: [  0.647235968527424,  0.636491724167277,  0.644290945265548 ]
    mass: 118.710000
    reduced_to: 17
  - symbol: Sn # 25
    coordinates: [  0.147082426838392,  0.036547909787641,  0.443961459625663 ]
    mass: 118.710000
    reduced_to: 25
  - symbol: Sn # 26
    coordinates: [  0.647082426838392,  0.036547909787641,  0.443961459625663 ]
    mass: 118.710000
    reduced_to: 25
  - symbol: Sn # 27
    coordinates: [  0.147082426838392,  0.536547909787641,  0.443961459625663 ]
    mass: 118.710000
    reduced_to: 25
  - symbol: Sn # 28
    coordinates: [  0.647082426838392,  0.536547909787641,  0.443961459625663 ]
    mass: 118.710000
    reduced_to: 25
  - symbol: Sn # 29
    coordinates: [  0.147082426838392,  0.036547909787641,  0.943961459625663 ]
    mass: 118.710000
    reduced_to: 25
  - symbol: Sn # 30
    coordinates: [  0.647082426838392,  0.036547909787641,  0.943961459625663 ]
    mass: 118.710000
    reduced_to: 25
  - symbol: Sn # 31
    coordinates: [  0.147082426838392,  0.536547909787641,  0.943961459625663 ]
    mass: 118.710000
    reduced_to: 25
  - symbol: Sn # 32
    coordinates: [  0.647082426838392,  0.536547909787641,  0.943961459625663 ]
    mass: 118.710000
    reduced_to: 25
  - symbol: Sn # 33
    coordinates: [  0.396992498547971,  0.436040163640453,  0.494271517280708 ]
    mass: 118.710000
    reduced_to: 33
  - symbol: Sn # 34
    coordinates: [  0.896992498547971,  0.436040163640453,  0.494271517280708 ]
    mass: 118.710000
    reduced_to: 33
  - symbol: Sn # 35
    coordinates: [  0.396992498547971,  0.936040163640453,  0.494271517280708 ]
    mass: 118.710000
    reduced_to: 33
  - symbol: Sn # 36
    coordinates: [  0.896992498547971,  0.936040163640453,  0.494271517280708 ]
    mass: 118.710000
    reduced_to: 33
  - symbol: Sn # 37
    coordinates: [  0.396992498547971,  0.436040163640453,  0.994271517280708 ]
    mass: 118.710000
    reduced_to: 33
  - symbol: Sn # 38
    coordinates: [  0.896992498547971,  0.436040163640453,  0.994271517280708 ]
    mass: 118.710000
    reduced_to: 33
  - symbol: Sn # 39
    coordinates: [  0.396992498547971,  0.936040163640453,  0.994271517280708 ]
    mass: 118.710000
    reduced_to: 33
  - symbol: Sn # 40
    coordinates: [  0.896992498547971,  0.936040163640453,  0.994271517280708 ]
    mass: 118.710000
    reduced_to: 33
  - symbol: Sn # 41
    coordinates: [  0.146998202738804,  0.436450265249462,  0.243870981877511 ]
    mass: 118.710000
    reduced_to: 41
  - symbol: Sn # 42
    coordinates: [  0.646998202738804,  0.436450265249462,  0.243870981877511 ]
    mass: 118.710000
    reduced_to: 41
  - symbol: Sn # 43
    coordinates: [  0.146998202738804,  0.936450265249462,  0.243870981877511 ]
    mass: 118.710000
    reduced_to: 41
  - symbol: Sn # 44
    coordinates: [  0.646998202738804,  0.936450265249462,  0.243870981877511 ]
    mass: 118.710000
    reduced_to: 41
  - symbol: Sn # 45
    coordinates: [  0.146998202738804,  0.436450265249462,  0.743870981877511 ]
    mass: 118.710000
    reduced_to: 41
  - symbol: Sn # 46
    coordinates: [  0.646998202738804,  0.436450265249462,  0.743870981877511 ]
    mass: 118.710000
    reduced_to: 41
  - symbol: Sn # 47
    coordinates: [  0.146998202738804,  0.936450265249462,  0.743870981877511 ]
    mass: 118.710000
    reduced_to: 41
  - symbol: Sn # 48
    coordinates: [  0.646998202738804,  0.936450265249462,  0.743870981877511 ]
    mass: 118.710000
    reduced_to: 41
  - symbol: Sn # 49
    coordinates: [  0.146927530587526,  0.236441596487607,  0.344159155037587 ]
    mass: 118.710000
    reduced_to: 49
  - symbol: Sn # 50
    coordinates: [  0.646927530587526,  0.236441596487607,  0.344159155037587 ]
    mass: 118.710000
    reduced_to: 49
  - symbol: Sn # 51
    coordinates: [  0.146927530587526,  0.736441596487607,  0.344159155037587 ]
    mass: 118.710000
    reduced_to: 49
  - symbol: Sn # 52
    coordinates: [  0.646927530587526,  0.736441596487607,  0.344159155037587 ]
    mass: 118.710000
    reduced_to: 49
  - symbol: Sn # 53
    coordinates: [  0.146927530587526,  0.236441596487607,  0.844159155037587 ]
    mass: 118.710000
    reduced_to: 49
  - symbol: Sn # 54
    coordinates: [  0.646927530587526,  0.236441596487607,  0.844159155037587 ]
    mass: 118.710000
    reduced_to: 49
  - symbol: Sn # 55
    coordinates: [  0.146927530587526,  0.736441596487607,  0.844159155037587 ]
    mass: 118.710000
    reduced_to: 49
  - symbol: Sn # 56
    coordinates: [  0.646927530587526,  0.736441596487607,  0.844159155037587 ]
    mass: 118.710000
    reduced_to: 49
  - symbol: Sn # 57
    coordinates: [  0.397034653729975,  0.136120854879085,  0.394721002184762 ]
    mass: 118.710000
    reduced_to: 57
  - symbol: Sn # 58
    coordinates: [  0.897034653729975,  0.136120854879085,  0.394721002184762 ]
    mass: 118.710000
    reduced_to: 57
  - symbol: Sn # 59
    coordinates: [  0.397034653729975,  0.636120854879085,  0.394721002184762 ]
    mass: 118.710000
    reduced_to: 57
  - symbol: Sn # 60
    coordinates: [  0.897034653729975,  0.636120854879085,  0.394721002184762 ]
    mass: 118.710000
    reduced_to: 57
  - symbol: Sn # 61
    coordinates: [  0.397034653729975,  0.136120854879085,  0.894721002184762 ]
    mass: 118.710000
    reduced_to: 57
  - symbol: Sn # 62
    coordinates: [  0.897034653729975,  0.136120854879085,  0.894721002184762 ]
    mass: 118.710000
    reduced_to: 57
  - symbol: Sn # 63
    coordinates: [  0.397034653729975,  0.636120854879085,  0.894721002184762 ]
    mass: 118.710000
    reduced_to: 57
  - symbol: Sn # 64
    coordinates: [  0.897034653729975,  0.636120854879085,  0.894721002184762 ]
    mass: 118.710000
    reduced_to: 57
  - symbol: Sn # 65
    coordinates: [  0.147239599739370,  0.336555462539159,  0.043735184596211 ]
    mass: 118.710000
    reduced_to: 65
  - symbol: Sn # 66
    coordinates: [  0.647239599739370,  0.336555462539159,  0.043735184596211 ]
    mass: 118.710000
    reduced_to: 65
  - symbol: Sn # 67
    coordinates: [  0.147239599739370,  0.836555462539159,  0.043735184596211 ]
    mass: 118.710000
    reduced_to: 65
  - symbol: Sn # 68
    coordinates: [  0.647239599739370,  0.836555462539159,  0.043735184596211 ]
    mass: 118.710000
    reduced_to: 65
  - symbol: Sn # 69
    coordinates: [  0.147239599739370,  0.336555462539159,  0.543735184596211 ]
    mass: 118.710000
    reduced_to: 65
  - symbol: Sn # 70
    coordinates: [  0.647239599739370,  0.336555462539159,  0.543735184596211 ]
    mass: 118.710000
    reduced_to: 65
  - symbol: Sn # 71
    coordinates: [  0.147239599739370,  0.836555462539159,  0.543735184596211 ]
    mass: 118.710000
    reduced_to: 65
  - symbol: Sn # 72
    coordinates: [  0.647239599739370,  0.836555462539159,  0.543735184596211 ]
    mass: 118.710000
    reduced_to: 65
  - symbol: Sn # 73
    coordinates: [  0.396824640053625,  0.336030628768584,  0.294059512632245 ]
    mass: 118.710000
    reduced_to: 73
  - symbol: Sn # 74
    coordinates: [  0.896824640053625,  0.336030628768584,  0.294059512632245 ]
    mass: 118.710000
    reduced_to: 73
  - symbol: Sn # 75
    coordinates: [  0.396824640053625,  0.836030628768584,  0.294059512632245 ]
    mass: 118.710000
    reduced_to: 73
  - symbol: Sn # 76
    coordinates: [  0.896824640053625,  0.836030628768584,  0.294059512632245 ]
    mass: 118.710000
    reduced_to: 73
  - symbol: Sn # 77
    coordinates: [  0.396824640053625,  0.336030628768584,  0.794059512632245 ]
    mass: 118.710000
    reduced_to: 73
  - symbol: Sn # 78
    coordinates: [  0.896824640053625,  0.336030628768584,  0.794059512632245 ]
    mass: 118.710000
    reduced_to: 73
  - symbol: Sn # 79
    coordinates: [  0.396824640053625,  0.836030628768584,  0.794059512632245 ]
    mass: 118.710000
    reduced_to: 73
  - symbol: Sn # 80
    coordinates: [  0.896824640053625,  0.836030628768584,  0.794059512632245 ]
    mass: 118.710000
    reduced_to: 73

displacements:
- atom:    1
  displacement:
    [   0.0100000000000000,  0.0000000000000000,  0.0000000000000000 ]
  forces:
  - [  -0.0127321854233742,  0.0126632861793041, -0.0032782796770334 ]
  - [   0.0068678483366966,  0.0126162022352219, -0.0032508061267436 ]
  - [   0.0048500681295991,  0.0126162189990282, -0.0032486943528056 ]
  - [   0.0047776307910681,  0.0126160634681582, -0.0032480079680681 ]
  - [   0.0048078168183565,  0.0126163735985756, -0.0032523917034268 ]
  - [   0.0048228837549686,  0.0126162087544799, -0.0032518561929464 ]
  - [   0.0048057287931442,  0.0126140052452683, -0.0032512929756194 ]
  - [   0.0048224865458906,  0.0126143377274275, -0.0032503865659237 ]
  - [  -0.0003017834969796,  0.0058300765231252,  0.0106038600206375 ]
  - [   0.0026110187172890,  0.0058284280821681,  0.0106048742309213 ]
  - [   0.0008779179770499,  0.0058248764835298,  0.0106071261689067 ]
  - [   0.0006264589028433,  0.0058263093233109,  0.0106047969311476 ]
  - [   0.0007373620755970,  0.0058224461972713,  0.0106062907725573 ]
  - [   0.0007477888138965,  0.0058226585388184,  0.0106064826250076 ]
  - [   0.0007594980997965,  0.0058235200121999,  0.0106063932180405 ]
  - [   0.0007329040672630,  0.0058235768228769,  0.0106061073020101 ]
  - [  -0.0015033364761621, -0.0047587696462870, -0.0081403562799096 ]
  - [  -0.0014891747850925, -0.0007160538807511, -0.0100227193906903 ]
  - [  -0.0042544095776975, -0.0028014909476042, -0.0090951230376959 ]
  - [  -0.0042557073757052, -0.0027024920564145, -0.0090562300756574 ]
  - [  -0.0042537506669760, -0.0028016197029501, -0.0091707399114966 ]
  - [  -0.0042550228536129, -0.0027025758754462, -0.0089779896661639 ]
  - [  -0.0042530009523034, -0.0027887341566384, -0.0090942187234759 ]
  - [  -0.0042541101574898, -0.0027157505974174, -0.0090591767802835 ]
  - [  -0.0010036588646472, -0.0042730211280286,  0.0039264000952244 ]
  - [  -0.0010027573443949, -0.0044943229295313,  0.0041041420772672 ]
  - [  -0.0013212637277320, -0.0043464116752148,  0.0040321364067495 ]
  - [  -0.0013194337952882, -0.0044075697660446,  0.0040191002190113 ]
  - [  -0.0010161953978240, -0.0044770091772079,  0.0041305087506771 ]
  - [  -0.0010142868850380, -0.0042779832147062,  0.0039232154376805 ]
  - [  -0.0013195907231420, -0.0044055916368961,  0.0040174666792154 ]
  - [  -0.0013201942201704, -0.0043475637212396,  0.0040335007943213 ]
  - [   0.0023536384105682,  0.0005032804328948, -0.0021622069180012 ]
  - [   0.0023575650993735,  0.0005019726231694, -0.0021626190282404 ]
  - [   0.0024825972504914,  0.0005049237515777, -0.0021636947058141 ]
  - [   0.0022385683842003,  0.0005052995402366, -0.0021616301964968 ]
  - [   0.0023922687396407,  0.0005030052270740, -0.0021632737480104 ]
  - [   0.0023221594747156,  0.0005031621549278, -0.0021625137887895 ]
  - [   0.0027664736844599,  0.0005069146864116, -0.0021503148600459 ]
  - [   0.0021515423431993,  0.0004997672513127, -0.0021616076119244 ]
  - [  -0.0020555704832077, -0.0024238822516054,  0.0065111336298287 ]
  - [  -0.0020539830438793, -0.0025248462334275,  0.0064722322858870 ]
  - [   0.0008949862094596, -0.0003940593451262,  0.0055096456781030 ]
  - [   0.0009994582505897, -0.0046359589323401,  0.0075121298432350 ]
  - [  -0.0020542708225548, -0.0024427666794509,  0.0065093822777271 ]
  - [  -0.0020542149432003, -0.0025124284438789,  0.0064763296395540 ]
  - [  -0.0020548778120428, -0.0024338394869119,  0.0065798535943031 ]
  - [  -0.0020566429011524, -0.0025222746189684,  0.0064052254892886 ]
  - [   0.0008955192752182, -0.0024048520717770, -0.0044832704588771 ]
  - [   0.0008985396707430, -0.0021230259444565, -0.0045135901309550 ]
  - [   0.0004414797294885, -0.0016660313121974, -0.0047854520380497 ]
  - [   0.0004330035299063, -0.0028555467724800, -0.0042150262743235 ]
  - [   0.0005891076871194, -0.0022099530324340, -0.0045380438677967 ]
  - [   0.0005914655048400, -0.0023104981519282, -0.0044612586498260 ]
  - [   0.0005877998191863, -0.0022224511485547, -0.0044227140024304 ]
  - [   0.0005892151966691, -0.0023000144865364, -0.0045829946175218 ]
  - [   0.0001297608832829, -0.0030286600813270, -0.0209490619599819 ]
  - [  -0.0004832810373046, -0.0030242465436459, -0.0209382679313421 ]
  - [  -0.0002358253696002, -0.0030203959904611, -0.0209381822496653 ]
  - [  -0.0003117505984847, -0.0030253396835178, -0.0209354124963284 ]
  - [  -0.0001482728985138, -0.0030267061665654, -0.0209308639168739 ]
  - [  -0.0003934684209526, -0.0030244509689510, -0.0209326334297657 ]
  - [  -0.0002797116176225, -0.0030271722935140, -0.0209335237741470 ]
  - [  -0.0002736268506851, -0.0030261091887951, -0.0209328196942806 ]
  - [  -0.0036431401968002, -0.0053427186794579,  0.0122992275282741 ]
  - [  -0.0036431034095585, -0.0041123027913272,  0.0117079159244895 ]
  - [  -0.0031880170572549, -0.0045800264924765,  0.0119889155030251 ]
  - [  -0.0031837588176131, -0.0048564895987511,  0.0120396660640836 ]
  - [  -0.0035017644986510, -0.0047615543007851,  0.0119303837418556 ]
  - [  -0.0034991810098290, -0.0046935444697738,  0.0120730716735125 ]
  - [  -0.0035014641471207, -0.0047745723277330,  0.0120386881753802 ]
  - [  -0.0035008066333830, -0.0046768672764301,  0.0119623318314552 ]
  - [   0.0030329762957990,  0.0006716825300828,  0.0067948633804917 ]
  - [   0.0027814088389277,  0.0006741853430867,  0.0067949970252812 ]
  - [   0.0018104827031493,  0.0006781468400732,  0.0067953579127789 ]
  - [   0.0048026661388576,  0.0006577204912901,  0.0068042008206248 ]
  - [   0.0029122573323548,  0.0006784707074985,  0.0067964782938361 ]
  - [   0.0028877372387797,  0.0006785001605749,  0.0067969695664942 ]
  - [   0.0028901342302561,  0.0006807509344071,  0.0068003647029400 ]
  - [   0.0029063699766994,  0.0006781780393794,  0.0067974794656038 ]
- atom:    1
  displacement:
    [  -0.0100000000000000,  0.0000000000000000,  0.0000000000000000 ]
  forces:
  - [   0.0223675258457661,  0.0125725846737623, -0.0032252660021186 ]
  - [   0.0027606426738203,  0.0126163614913821, -0.0032500238157809 ]
  - [   0.0047805048525333,  0.0126153733581305, -0.0032494324259460 ]
  - [   0.0048471381887794,  0.0126151144504547, -0.0032482922542840 ]
  - [   0.0048233754932880,  0.0126164061948657, -0.0032519141677767 ]
  - [   0.0048073092475533,  0.0126162003725767, -0.0032513574697077 ]
  - [   0.0048221061006188,  0.0126143628731370, -0.0032510785385966 ]
  - [   0.0048059951514006,  0.0126139475032687, -0.0032507218420506 ]
  - [   0.0017944339197129,  0.0058532305993140,  0.0105928294360638 ]
  - [  -0.0011195244733244,  0.0058487644419074,  0.0105945225805044 ]
  - [   0.0006150563131087,  0.0058331633917987,  0.0106065627187490 ]
  - [   0.0008676853030920,  0.0058286511339247,  0.0106079997494817 ]
  - [   0.0007540005026385,  0.0058228867128491,  0.0106069054454565 ]
  - [   0.0007432334241457,  0.0058229500427842,  0.0106069985777140 ]
  - [   0.0007339804433286,  0.0058249989524484,  0.0106066949665546 ]
  - [   0.0007577252108604,  0.0058235176838934,  0.0106062665581703 ]
  - [  -0.0071856654249132, -0.0006166137754917, -0.0100694401189685 ]
  - [  -0.0068446574732661, -0.0046648611314595, -0.0081851752474904 ]
  - [  -0.0042529138736427, -0.0026999302208424, -0.0090568847954273 ]
  - [  -0.0042568957433105, -0.0028003291226923, -0.0090945940464735 ]
  - [  -0.0042533599771559, -0.0027013190556318, -0.0089766662567854 ]
  - [  -0.0042556682601571, -0.0028012092225254, -0.0091702733188868 ]
  - [  -0.0042534829117358, -0.0027166246436536, -0.0090611726045609 ]
  - [  -0.0042534051463008, -0.0027872361242771, -0.0090921148657799 ]
  - [  -0.0016327645862475, -0.0044958605431020,  0.0040962379425764 ]
  - [  -0.0016409996896982, -0.0042740460485220,  0.0039188582450151 ]
  - [  -0.0013212861958891, -0.0044076889753342,  0.0040186587721109 ]
  - [  -0.0013191641774029, -0.0043469937518239,  0.0040324036963284 ]
  - [  -0.0016223348211497, -0.0042684506624937,  0.0039456845261157 ]
  - [  -0.0016290461644530, -0.0044675888493657,  0.0041501913219690 ]
  - [  -0.0013196966610849, -0.0043460940942168,  0.0040332162752748 ]
  - [  -0.0013201269321144, -0.0044038216583431,  0.0040161898359656 ]
  - [   0.0023603895679116,  0.0005021912511438, -0.0021636639721692 ]
  - [   0.0023515075445175,  0.0005019685486332, -0.0021624523214996 ]
  - [   0.0022266134619713,  0.0005093114450574, -0.0021692360751331 ]
  - [   0.0024750609882176,  0.0005052973283455, -0.0021657547913492 ]
  - [   0.0023181580472738,  0.0005025765858591, -0.0021631303243339 ]
  - [   0.0023941202089190,  0.0005048103630543, -0.0021631550043821 ]
  - [   0.0019400548189878,  0.0005255737341940, -0.0021100617013872 ]
  - [   0.0025632290635258,  0.0005033325869590, -0.0021573831327260 ]
  - [  -0.0020548165775836, -0.0025267803575844,  0.0064738360233605 ]
  - [  -0.0020550519693643, -0.0024272247683257,  0.0065095038153231 ]
  - [  -0.0051973336376250, -0.0046905772760510,  0.0075371600687504 ]
  - [  -0.0049230139702559, -0.0004462657961994,  0.0055348835885525 ]
  - [  -0.0020542282145470, -0.0025128165725619,  0.0064762402325869 ]
  - [  -0.0020537471864372, -0.0024427750613540,  0.0065097524784505 ]
  - [  -0.0020549907349050, -0.0025259975809604,  0.0064012133516371 ]
  - [  -0.0020561218261719, -0.0024348788429052,  0.0065759797580540 ]
  - [   0.0002837973297574, -0.0021354134660214, -0.0045348699204624 ]
  - [   0.0002798973291647, -0.0024152419064194, -0.0045048501342535 ]
  - [   0.0007363238837570, -0.0028628786094487, -0.0042117182165384 ]
  - [   0.0007325764745474, -0.0016730648931116, -0.0047821141779423 ]
  - [   0.0005897495429963, -0.0023127675522119, -0.0044597606174648 ]
  - [   0.0005903487908654, -0.0022108843550086, -0.0045349104329944 ]
  - [   0.0005877686198801, -0.0022999949287623, -0.0045842472463846 ]
  - [   0.0005894436035305, -0.0022231300827116, -0.0044236048124731 ]
  - [  -0.0006825279560871, -0.0030479033011943, -0.0209898315370083 ]
  - [  -0.0000694743648637, -0.0030257201287895, -0.0209444351494312 ]
  - [  -0.0003125240618829, -0.0030243855435401, -0.0209361985325813 ]
  - [  -0.0002395986230113, -0.0030244290828705, -0.0209360420703888 ]
  - [  -0.0004052922013216, -0.0030313609167933, -0.0209264028817415 ]
  - [  -0.0001566891151015, -0.0030263201333582, -0.0209323950111866 ]
  - [  -0.0002741435600910, -0.0030267958063632, -0.0209326837211847 ]
  - [  -0.0002793065505102, -0.0030259164050221, -0.0209328271448612 ]
  - [  -0.0033558832947165, -0.0041022361256182,  0.0117034856230021 ]
  - [  -0.0033644575159997, -0.0053346664644778,  0.0122951697558165 ]
  - [  -0.0038108602166176, -0.0048507284373045,  0.0120453499257565 ]
  - [  -0.0038175969384611, -0.0045787142589688,  0.0119926370680332 ]
  - [  -0.0035013710148633, -0.0046917125582695,  0.0120771415531635 ]
  - [  -0.0034998995251954, -0.0047604506835341,  0.0119350329041481 ]
  - [  -0.0035005859099329, -0.0046750642359257,  0.0119596859440207 ]
  - [  -0.0035016012843698, -0.0047742556780577,  0.0120383799076080 ]
  - [   0.0027701044455171,  0.0006666808621958,  0.0067964699119329 ]
  - [   0.0030216858722270,  0.0006722358521074,  0.0067960815504193 ]
  - [   0.0039964909665287,  0.0006361281266436,  0.0068153804168105 ]
  - [   0.0010033063590527,  0.0006594250444323,  0.0068033575080335 ]
  - [   0.0028879554010928,  0.0006764606805518,  0.0067974328994751 ]
  - [   0.0029118605889380,  0.0006784104043618,  0.0067982450127602 ]
  - [   0.0029097702354193,  0.0006788454484195,  0.0067968647927046 ]
  - [   0.0029011799488217,  0.0006782686104998,  0.0067966273054481 ]
- atom:    1
  displacement:
    [   0.0000008542882220,  0.0099999999635096,  0.0000000000000000 ]
  forces:
  - [   0.0048576323315501, -0.0065908147953451, -0.0068658040836453 ]
  - [   0.0048146396875381,  0.0116276480257511, -0.0027359584346414 ]
  - [   0.0048157181590796,  0.0125965196639299, -0.0030892062932253 ]
  - [   0.0048128133639693,  0.0124899297952652, -0.0032361885532737 ]
  - [   0.0048155128024518,  0.0123805431649089, -0.0034845839254558 ]
  - [   0.0048151081427932,  0.0126271545886993, -0.0032364707440138 ]
  - [   0.0048138657584786,  0.0124911563470960, -0.0033249091356993 ]
  - [   0.0048141097649932,  0.0126379178836942, -0.0032542082481086 ]
  - [   0.0007644577999599,  0.0092729954048991,  0.0091812405735254 ]
  - [   0.0007359581068158,  0.0063785687088966,  0.0103342141956091 ]
  - [   0.0007485484238714,  0.0062286043539643,  0.0106146978214383 ]
  - [   0.0007479597115889,  0.0058794985525310,  0.0106574911624193 ]
  - [   0.0007472321740352,  0.0062394393607974,  0.0114576630294323 ]
  - [   0.0007456456078216,  0.0058088833466172,  0.0105880051851273 ]
  - [   0.0007467311806977,  0.0058153020218015,  0.0108415111899376 ]
  - [   0.0007455650484189,  0.0057982001453638,  0.0106516210362315 ]
  - [  -0.0063159372657537, -0.0024849334731698, -0.0089554050937295 ]
  - [  -0.0022848621010780, -0.0025073008146137, -0.0089431814849377 ]
  - [  -0.0043055745773017, -0.0029198352713138, -0.0091104796156287 ]
  - [  -0.0042068818584085, -0.0029208769556135, -0.0091102104634047 ]
  - [  -0.0043056197464466, -0.0028136088512838, -0.0091509511694312 ]
  - [  -0.0042044473811984, -0.0028136989567429, -0.0091513050720096 ]
  - [  -0.0042892661876976, -0.0027819660026580, -0.0090943854302168 ]
  - [  -0.0042177634313703, -0.0027805478312075, -0.0090924184769392 ]
  - [  -0.0012147580273449, -0.0041522090323269,  0.0040958430618048 ]
  - [  -0.0014227675274014, -0.0041543687693775,  0.0040933447889984 ]
  - [  -0.0012902434682474, -0.0043960204347968,  0.0040072910487652 ]
  - [  -0.0013501294888556, -0.0043961978517473,  0.0040082060731947 ]
  - [  -0.0014218140859157, -0.0041481899097562,  0.0040903394110501 ]
  - [  -0.0012164702638984, -0.0041512558236718,  0.0040807188488543 ]
  - [  -0.0013491054996848, -0.0044008027762175,  0.0040070936083794 ]
  - [  -0.0012909539509565, -0.0044011576101184,  0.0040077334269881 ]
  - [   0.0023567317984998,  0.0006252080202103, -0.0021691988222301 ]
  - [   0.0023547876626253,  0.0004815786378458, -0.0021704300306737 ]
  - [   0.0023561445996165,  0.0009101664181799, -0.0022047488018870 ]
  - [   0.0023565781302750,  0.0004228198667988, -0.0022034205030650 ]
  - [   0.0023553739301860,  0.0014797078911215, -0.0026585883460939 ]
  - [   0.0023585031740367,  0.0005509953480214, -0.0021762242540717 ]
  - [   0.0023521902039647,  0.0023076012730598,  0.0007821986218914 ]
  - [   0.0023586861789227,  0.0006050202064216, -0.0022169880103320 ]
  - [  -0.0020027740392834, -0.0026436620391905,  0.0064562037587166 ]