phonopy:
  version: "2.37.1"
  frequency_unit_conversion_factor: 15.633302
  symmetry_tolerance: 1.00000e-05

space_group:
  type: "P1"
  number: 1
  Hall_symbol: "P 1"

primitive_matrix:
- [  1.000000000000000,  0.000000000000000, -0.000000000000000 ]
- [  0.000000000000000, -1.000000000000000,  0.000000000000000 ]
- [  0.000000000000000,  0.000000000000000, -1.000000000000000 ]

supercell_matrix:
- [   3,   0,   0 ]
- [   0,   2,   0 ]
- [   0,   0,   1 ]

primitive_cell:
  lattice:
  - [     4.387821433952674,     0.000000000000000,     0.000000000000000 ] # a
  - [     0.000004218889873,    -6.804476997461775,     0.000000000000000 ] # b
  - [     0.000026302128861,    -2.718605135354851,   -11.654568837387789 ] # c
  points:
  - symbol: Li # 1
    coordinates: [  0.980555820463057,  0.010295571614267,  0.371737860420479 ]
    mass: 6.940000
  - symbol: Li # 2
    coordinates: [  0.480555563447899,  0.031472119008944,  0.996650675163483 ]
    mass: 6.940000
  - symbol: Li # 3
    coordinates: [  0.480537447139712,  0.932643318137977,  0.764303571742711 ]
    mass: 6.940000
  - symbol: Li # 4
    coordinates: [  0.980552796190398,  0.427420846940532,  0.272234858010147 ]
    mass: 6.940000
  - symbol: Li # 5
    coordinates: [  0.980544993481749,  0.756089555996461,  0.941430209486417 ]
    mass: 6.940000
  - symbol: Li # 6
    coordinates: [  0.480552813553971,  0.711505441919199,  0.324718021660567 ]
    mass: 6.940000
  - symbol: Li # 7
    coordinates: [  0.480533649772598,  0.379816027203609,  0.653110800238904 ]
    mass: 6.940000
  - symbol: Li # 8
    coordinates: [  0.480544269455521,  0.455130234396195,  0.887717742534371 ]
    mass: 6.940000
  - symbol: Li # 9
    coordinates: [  0.480557456337172,  0.137725005540858,  0.209929506948658 ]
    mass: 6.940000
  - symbol: Li # 10
    coordinates: [  0.980543643651120,  0.107695310656500,  0.587429320358521 ]
    mass: 6.940000
  - symbol: Li # 11
    coordinates: [  0.480550873945777,  0.583415440364228,  0.111631290150048 ]
    mass: 6.940000
  - symbol: Li # 12
    coordinates: [  0.980541314012630,  0.544596860353771,  0.488029736740856 ]
    mass: 6.940000
  - symbol: Sn # 13
    coordinates: [  0.980537045557544,  0.656462409128865,  0.715805016576060 ]
    mass: 118.710000
  - symbol: Sn # 14
    coordinates: [  0.980553674554377,  0.301864235369462,  0.055199419090040 ]
    mass: 118.710000
  - symbol: Sn # 15
    coordinates: [  0.980539983362202,  0.196874801636819,  0.816194621685281 ]
    mass: 118.710000
  - symbol: Sn # 16
    coordinates: [  0.480545505810126,  0.834528201955104,  0.536205476455338 ]
    mass: 118.710000
  - symbol: Sn # 17
    coordinates: [  0.980555076326863,  0.851099321296553,  0.169472600390701 ]
    mass: 118.710000
  - symbol: Sn # 18
    coordinates: [  0.480550257627213,  0.280778138214868,  0.423298502732592 ]
    mass: 118.710000
  reciprocal_lattice: # without 2pi
  - [     0.227903531411298,     0.000000141304012,     0.000000481373298 ] # a*
  - [     0.000000000000000,    -0.146962066353229,     0.034281133336186 ] # b*
  - [     0.000000000000000,    -0.000000000000000,    -0.085803259987792 ] # c*

unit_cell:
  lattice:
  - [     4.387821433952674,     0.000000000000000,     0.000000000000000 ] # a
  - [    -0.000004218889873,     6.804476997461776,     0.000000000000000 ] # b
  - [    -0.000026302128861,     2.718605135354852,    11.654568837387789 ] # c
  points:
  - symbol: Li # 1
    coordinates: [  0.980555820463057,  0.989704428385733,  0.628262139579521 ]
    mass: 6.940000
    reduced_to: 1
  - symbol: Li # 2
    coordinates: [  0.480555563447899,  0.968527880991056,  0.003349324836517 ]
    mass: 6.940000
    reduced_to: 2
  - symbol: Li # 3
    coordinates: [  0.480537447139713,  0.067356681862023,  0.235696428257289 ]
    mass: 6.940000
    reduced_to: 3
  - symbol: Li # 4
    coordinates: [  0.980552796190398,  0.572579153059467,  0.727765141989853 ]
    mass: 6.940000
    reduced_to: 4
  - symbol: Li # 5
    coordinates: [  0.980544993481749,  0.243910444003539,  0.058569790513583 ]
    mass: 6.940000
    reduced_to: 5
  - symbol: Li # 6
    coordinates: [  0.480552813553971,  0.288494558080801,  0.675281978339433 ]
    mass: 6.940000
    reduced_to: 6
  - symbol: Li # 7
    coordinates: [  0.480533649772598,  0.620183972796391,  0.346889199761096 ]
    mass: 6.940000
    reduced_to: 7
  - symbol: Li # 8
    coordinates: [  0.480544269455521,  0.544869765603805,  0.112282257465630 ]
    mass: 6.940000
    reduced_to: 8
  - symbol: Li # 9
    coordinates: [  0.480557456337172,  0.862274994459141,  0.790070493051342 ]
    mass: 6.940000
    reduced_to: 9
  - symbol: Li # 10
    coordinates: [  0.980543643651120,  0.892304689343499,  0.412570679641479 ]
    mass: 6.940000
    reduced_to: 10
  - symbol: Li # 11
    coordinates: [  0.480550873945777,  0.416584559635772,  0.888368709849952 ]
    mass: 6.940000
    reduced_to: 11
  - symbol: Li # 12
    coordinates: [  0.980541314012630,  0.455403139646229,  0.511970263259144 ]
    mass: 6.940000
    reduced_to: 12
  - symbol: Sn # 13
    coordinates: [  0.980537045557544,  0.343537590871135,  0.284194983423940 ]
    mass: 118.710000
    reduced_to: 13
  - symbol: Sn # 14
    coordinates: [  0.980553674554377,  0.698135764630538,  0.944800580909960 ]
    mass: 118.710000
    reduced_to: 14
  - symbol: Sn # 15
    coordinates: [  0.980539983362202,  0.803125198363181,  0.183805378314719 ]
    mass: 118.710000
    reduced_to: 15
  - symbol: Sn # 16
    coordinates: [  0.480545505810126,  0.165471798044896,  0.463794523544662 ]
    mass: 118.710000
    reduced_to: 16
  - symbol: Sn # 17
    coordinates: [  0.980555076326863,  0.148900678703447,  0.830527399609299 ]
    mass: 118.710000
    reduced_to: 17
  - symbol: Sn # 18
    coordinates: [  0.480550257627213,  0.719221861785132,  0.576701497267408 ]
    mass: 118.710000
    reduced_to: 18

supercell:
  lattice:
  - [    13.163464301858021,     0.000000000000000,     0.000000000000000 ] # a
  - [    -0.000008437779746,    13.608953994923553,     0.000000000000000 ] # b
  - [    -0.000026302128861,     2.718605135354852,    11.654568837387789 ] # c
  points:
  - symbol: Li # 1
    coordinates: [  0.326851940154352,  0.494852214192867,  0.628262139579521 ]
    mass: 6.940000
    reduced_to: 1
  - symbol: Li # 2
    coordinates: [  0.660185273487686,  0.494852214192867,  0.628262139579521 ]
    mass: 6.940000
    reduced_to: 1
  - symbol: Li # 3
    coordinates: [  0.993518606821019,  0.494852214192867,  0.628262139579521 ]
    mass: 6.940000
    reduced_to: 1
  - symbol: Li # 4
    coordinates: [  0.326851940154352,  0.994852214192867,  0.628262139579521 ]
    mass: 6.940000
    reduced_to: 1
  - symbol: Li # 5
    coordinates: [  0.660185273487686,  0.994852214192867,  0.628262139579521 ]
    mass: 6.940000
    reduced_to: 1
  - symbol: Li # 6
    coordinates: [  0.993518606821019,  0.994852214192867,  0.628262139579521 ]
    mass: 6.940000
    reduced_to: 1
  - symbol: Li # 7
    coordinates: [  0.160185187815966,  0.484263940495528,  0.003349324836517 ]
    mass: 6.940000
    reduced_to: 7
  - symbol: Li # 8
    coordinates: [  0.493518521149300,  0.484263940495528,  0.003349324836517 ]
    mass: 6.940000
    reduced_to: 7
  - symbol: Li # 9
    coordinates: [  0.826851854482633,  0.484263940495528,  0.003349324836517 ]
    mass: 6.940000
    reduced_to: 7
  - symbol: Li # 10
    coordinates: [  0.160185187815966,  0.984263940495528,  0.003349324836517 ]
    mass: 6.940000
    reduced_to: 7
  - symbol: Li # 11
    coordinates: [  0.493518521149300,  0.984263940495528,  0.003349324836517 ]
    mass: 6.940000
    reduced_to: 7
  - symbol: Li # 12
    coordinates: [  0.826851854482633,  0.984263940495528,  0.003349324836517 ]
    mass: 6.940000
    reduced_to: 7
  - symbol: Li # 13
    coordinates: [  0.160179149046571,  0.033678340931011,  0.235696428257289 ]
    mass: 6.940000
    reduced_to: 13
  - symbol: Li # 14
    coordinates: [  0.493512482379904,  0.033678340931011,  0.235696428257289 ]
    mass: 6.940000
    reduced_to: 13
  - symbol: Li # 15
    coordinates: [  0.826845815713237,  0.033678340931011,  0.235696428257289 ]
    mass: 6.940000
    reduced_to: 13
  - symbol: Li # 16
    coordinates: [  0.160179149046571,  0.533678340931012,  0.235696428257289 ]
    mass: 6.940000
    reduced_to: 13
  - symbol: Li # 17
    coordinates: [  0.493512482379904,  0.533678340931012,  0.235696428257289 ]
    mass: 6.940000
    reduced_to: 13
  - symbol: Li # 18
    coordinates: [  0.826845815713237,  0.533678340931012,  0.235696428257289 ]
    mass: 6.940000
    reduced_to: 13
  - symbol: Li # 19
    coordinates: [  0.326850932063466,  0.286289576529734,  0.727765141989853 ]
    mass: 6.940000
    reduced_to: 19
  - symbol: Li # 20
    coordinates: [  0.660184265396799,  0.286289576529734,  0.727765141989853 ]
    mass: 6.940000
    reduced_to: 19
  - symbol: Li # 21
    coordinates: [  0.993517598730133,  0.286289576529734,  0.727765141989853 ]
    mass: 6.940000
    reduced_to: 19
  - symbol: Li # 22
    coordinates: [  0.326850932063466,  0.786289576529734,  0.727765141989853 ]
    mass: 6.940000
    reduced_to: 19
  - symbol: Li # 23
    coordinates: [  0.660184265396799,  0.786289576529734,  0.727765141989853 ]
    mass: 6.940000
    reduced_to: 19
  - symbol: Li # 24
    coordinates: [  0.993517598730133,  0.786289576529734,  0.727765141989853 ]
    mass: 6.940000
    reduced_to: 19
  - symbol: Li # 25
    coordinates: [  0.326848331160583,  0.121955222001769,  0.058569790513583 ]
    mass: 6.940000
    reduced_to: 25
  - symbol: Li # 26
    coordinates: [  0.660181664493916,  0.121955222001769,  0.058569790513583 ]
    mass: 6.940000
    reduced_to: 25
  - symbol: Li # 27
    coordinates: [  0.993514997827250,  0.121955222001769,  0.058569790513583 ]
    mass: 6.940000
    reduced_to: 25
  - symbol: Li # 28
    coordinates: [  0.326848331160583,  0.621955222001769,  0.058569790513583 ]
    mass: 6.940000
    reduced_to: 25
  - symbol: Li # 29
    coordinates: [  0.660181664493916,  0.621955222001769,  0.058569790513583 ]
    mass: 6.940000
    reduced_to: 25
  - symbol: Li # 30
    coordinates: [  0.993514997827250,  0.621955222001769,  0.058569790513583 ]
    mass: 6.940000
    reduced_to: 25
  - symbol: Li # 31
    coordinates: [  0.160184271184657,  0.144247279040401,  0.675281978339433 ]
    mass: 6.940000
    reduced_to: 31
  - symbol: Li # 32
    coordinates: [  0.493517604517990,  0.144247279040401,  0.675281978339433 ]
    mass: 6.940000
    reduced_to: 31
  - symbol: Li # 33
    coordinates: [  0.826850937851324,  0.144247279040401,  0.675281978339433 ]
    mass: 6.940000
    reduced_to: 31
  - symbol: Li # 34
    coordinates: [  0.160184271184657,  0.644247279040401,  0.675281978339433 ]
    mass: 6.940000
    reduced_to: 31
  - symbol: Li # 35
    coordinates: [  0.493517604517990,  0.644247279040401,  0.675281978339433 ]
    mass: 6.940000
    reduced_to: 31
  - symbol: Li # 36
    coordinates: [  0.826850937851324,  0.644247279040401,  0.675281978339433 ]
    mass: 6.940000
    reduced_to: 31
  - symbol: Li # 37
    coordinates: [  0.160177883257533,  0.310091986398196,  0.346889199761096 ]
    mass: 6.940000
    reduced_to: 37
  - symbol: Li # 38
    coordinates: [  0.493511216590866,  0.310091986398196,  0.346889199761096 ]
    mass: 6.940000
    reduced_to: 37
  - symbol: Li # 39
    coordinates: [  0.826844549924199,  0.310091986398196,  0.346889199761096 ]
    mass: 6.940000
    reduced_to: 37
  - symbol: Li # 40
    coordinates: [  0.160177883257533,  0.810091986398196,  0.346889199761096 ]
    mass: 6.940000
    reduced_to: 37
  - symbol: Li # 41
    coordinates: [  0.493511216590866,  0.810091986398196,  0.346889199761096 ]
    mass: 6.940000
    reduced_to: 37
  - symbol: Li # 42
    coordinates: [  0.826844549924199,  0.810091986398196,  0.346889199761096 ]
    mass: 6.940000
    reduced_to: 37
  - symbol: Li # 43
    coordinates: [  0.160181423151840,  0.272434882801902,  0.112282257465630 ]
    mass: 6.940000
    reduced_to: 43
  - symbol: Li # 44
    coordinates: [  0.493514756485174,  0.272434882801902,  0.112282257465630 ]
    mass: 6.940000
    reduced_to: 43
  - symbol: Li # 45
    coordinates: [  0.826848089818507,  0.272434882801902,  0.112282257465630 ]
    mass: 6.940000
    reduced_to: 43
  - symbol: Li # 46
    coordinates: [  0.160181423151840,  0.772434882801902,  0.112282257465630 ]
    mass: 6.940000
    reduced_to: 43
  - symbol: Li # 47
    coordinates: [  0.493514756485174,  0.772434882801902,  0.112282257465630 ]
    mass: 6.940000
    reduced_to: 43
  - symbol: Li # 48
    coordinates: [  0.826848089818507,  0.772434882801902,  0.112282257465630 ]
    mass: 6.940000
    reduced_to: 43
  - symbol: Li # 49
    coordinates: [  0.160185818779057,  0.431137497229571,  0.790070493051342 ]
    mass: 6.940000
    reduced_to: 49
  - symbol: Li # 50
    coordinates: [  0.493519152112391,  0.431137497229571,  0.790070493051342 ]
    mass: 6.940000
    reduced_to: 49
  - symbol: Li # 51
    coordinates: [  0.826852485445724,  0.431137497229571,  0.790070493051342 ]
    mass: 6.940000
    reduced_to: 49
  - symbol: Li # 52
    coordinates: [  0.160185818779057,  0.931137497229571,  0.790070493051342 ]
    mass: 6.940000
    reduced_to: 49
  - symbol: Li # 53
    coordinates: [  0.493519152112391,  0.931137497229571,  0.790070493051342 ]
    mass: 6.940000
    reduced_to: 49
  - symbol: Li # 54
    coordinates: [  0.826852485445724,  0.931137497229571,  0.790070493051342 ]
    mass: 6.940000
    reduced_to: 49
  - symbol: Li # 55
    coordinates: [  0.326847881217040,  0.446152344671750,  0.412570679641479 ]
    mass: 6.940000
    reduced_to: 55
  - symbol: Li # 56
    coordinates: [  0.660181214550373,  0.446152344671750,  0.412570679641479 ]
    mass: 6.940000
    reduced_to: 55
  - symbol: Li # 57
    coordinates: [  0.993514547883707,  0.446152344671750,  0.412570679641479 ]
    mass: 6.940000
    reduced_to: 55
  - symbol: Li # 58
    coordinates: [  0.326847881217040,  0.946152344671750,  0.412570679641479 ]
    mass: 6.940000
    reduced_to: 55
  - symbol: Li # 59
    coordinates: [  0.660181214550373,  0.946152344671750,  0.412570679641479 ]
    mass: 6.940000
    reduced_to: 55
  - symbol: Li # 60
    coordinates: [  0.993514547883707,  0.946152344671750,  0.412570679641479 ]
    mass: 6.940000
    reduced_to: 55
  - symbol: Li # 61
    coordinates: [  0.160183624648592,  0.208292279817886,  0.888368709849952 ]
    mass: 6.940000
    reduced_to: 61
  - symbol: Li # 62
    coordinates: [  0.493516957981926,  0.208292279817886,  0.888368709849952 ]
    mass: 6.940000
    reduced_to: 61
  - symbol: Li # 63
    coordinates: [  0.826850291315259,  0.208292279817886,  0.888368709849952 ]
    mass: 6.940000
    reduced_to: 61
  - symbol: Li # 64
    coordinates: [  0.160183624648592,  0.708292279817886,  0.888368709849952 ]
    mass: 6.940000
    reduced_to: 61
  - symbol: Li # 65
    coordinates: [  0.493516957981926,  0.708292279817886,  0.888368709849952 ]
    mass: 6.940000
    reduced_to: 61
  - symbol: Li # 66
    coordinates: [  0.826850291315259,  0.708292279817886,  0.888368709849952 ]
    mass: 6.940000
    reduced_to: 61
  - symbol: Li # 67
    coordinates: [  0.326847104670877,  0.227701569823114,  0.511970263259144 ]
    mass: 6.940000
    reduced_to: 67
  - symbol: Li # 68
    coordinates: [  0.660180438004210,  0.227701569823114,  0.511970263259144 ]
    mass: 6.940000
    reduced_to: 67
  - symbol: Li # 69
    coordinates: [  0.993513771337543,  0.227701569823114,  0.511970263259144 ]
    mass: 6.940000
    reduced_to: 67
  - symbol: Li # 70
    coordinates: [  0.326847104670877,  0.727701569823114,  0.511970263259144 ]
    mass: 6.940000
    reduced_to: 67
  - symbol: Li # 71
    coordinates: [  0.660180438004210,  0.727701569823114,  0.511970263259144 ]
    mass: 6.940000
    reduced_to: 67
  - symbol: Li # 72
    coordinates: [  0.993513771337543,  0.727701569823114,  0.511970263259144 ]
    mass: 6.940000
    reduced_to: 67
  - symbol: Sn # 73
    coordinates: [  0.326845681852515,  0.171768795435567,  0.284194983423940 ]
    mass: 118.710000
    reduced_to: 73
  - symbol: Sn # 74
    coordinates: [  0.660179015185848,  0.171768795435567,  0.284194983423940 ]
    mass: 118.710000
    reduced_to: 73
  - symbol: Sn # 75
    coordinates: [  0.993512348519181,  0.171768795435567,  0.284194983423940 ]
    mass: 118.710000
    reduced_to: 73
  - symbol: Sn # 76
    coordinates: [  0.326845681852515,  0.671768795435567,  0.284194983423940 ]
    mass: 118.710000
    reduced_to: 73
  - symbol: Sn # 77
    coordinates: [  0.660179015185848,  0.671768795435567,  0.284194983423940 ]
    mass: 118.710000
    reduced_to: 73
  - symbol: Sn # 78
    coordinates: [  0.993512348519181,  0.671768795435567,  0.284194983423940 ]
    mass: 118.710000
    reduced_to: 73
  - symbol: Sn # 79
    coordinates: [  0.326851224851459,  0.349067882315269,  0.944800580909960 ]
    mass: 118.710000
    reduced_to: 79
  - symbol: Sn # 80
    coordinates: [  0.660184558184792,  0.349067882315269,  0.944800580909960 ]
    mass: 118.710000
    reduced_to: 79
  - symbol: Sn # 81
    coordinates: [  0.993517891518126,  0.349067882315269,  0.944800580909960 ]
    mass: 118.710000
    reduced_to: 79
  - symbol: Sn # 82
    coordinates: [  0.326851224851459,  0.849067882315269,  0.944800580909960 ]
    mass: 118.710000
    reduced_to: 79
  - symbol: Sn # 83
    coordinates: [  0.660184558184792,  0.849067882315269,  0.944800580909960 ]
    mass: 118.710000
    reduced_to: 79
  - symbol: Sn # 84
    coordinates: [  0.993517891518126,  0.849067882315269,  0.944800580909960 ]
    mass: 118.710000
    reduced_to: 79
  - symbol: Sn # 85
    coordinates: [  0.326846661120734,  0.401562599181590,  0.183805378314719 ]
    mass: 118.710000
    reduced_to: 85
  - symbol: Sn # 86
    coordinates: [  0.660179994454067,  0.401562599181590,  0.183805378314719 ]
    mass: 118.710000
    reduced_to: 85
  - symbol: Sn # 87
    coordinates: [  0.993513327787401,  0.401562599181590,  0.183805378314719 ]
    mass: 118.710000
    reduced_to: 85
  - symbol: Sn # 88
    coordinates: [  0.326846661120734,  0.901562599181590,  0.183805378314719 ]
    mass: 118.710000
    reduced_to: 85
  - symbol: Sn # 89
    coordinates: [  0.660179994454067,  0.901562599181590,  0.183805378314719 ]
    mass: 118.710000
    reduced_to: 85
  - symbol: Sn # 90
    coordinates: [  0.993513327787401,  0.901562599181590,  0.183805378314719 ]
    mass: 118.710000
    reduced_to: 85
  - symbol: Sn # 91
    coordinates: [  0.160181835270042,  0.082735899022448,  0.463794523544662 ]
    mass: 118.710000
    reduced_to: 91
  - symbol: Sn # 92
    coordinates: [  0.493515168603375,  0.082735899022448,  0.463794523544662 ]
    mass: 118.710000
    reduced_to: 91
  - symbol: Sn # 93
    coordinates: [  0.826848501936709,  0.082735899022448,  0.463794523544662 ]
    mass: 118.710000
    reduced_to: 91
  - symbol: Sn # 94
    coordinates: [  0.160181835270042,  0.582735899022448,  0.463794523544662 ]
    mass: 118.710000
    reduced_to: 91
  - symbol: Sn # 95
    coordinates: [  0.493515168603375,  0.582735899022448,  0.463794523544662 ]
    mass: 118.710000
    reduced_to: 91
  - symbol: Sn # 96
    coordinates: [  0.826848501936709,  0.582735899022448,  0.463794523544662 ]
    mass: 118.710000
    reduced_to: 91
  - symbol: Sn # 97
    coordinates: [  0.326851692108954,  0.074450339351724,  0.830527399609299 ]
    mass: 118.710000
    reduced_to: 97
  - symbol: Sn # 98
    coordinates: [  0.660185025442288,  0.074450339351724,  0.830527399609299 ]
    mass: 118.710000
    reduced_to: 97
  - symbol: Sn # 99
    coordinates: [  0.993518358775621,  0.074450339351724,  0.830527399609299 ]
    mass: 118.710000
    reduced_to: 97
  - symbol: Sn # 100
    coordinates: [  0.326851692108954,  0.574450339351724,  0.830527399609299 ]
    mass: 118.710000
    reduced_to: 97
  - symbol: Sn # 101
    coordinates: [  0.660185025442288,  0.574450339351724,  0.830527399609299 ]
    mass: 118.710000
    reduced_to: 97
  - symbol: Sn # 102
    coordinates: [  0.993518358775621,  0.574450339351724,  0.830527399609299 ]
    mass: 118.710000
    reduced_to: 97
  - symbol: Sn # 103
    coordinates: [  0.160183419209071,  0.359610930892566,  0.576701497267408 ]
    mass: 118.710000
    reduced_to: 103
  - symbol: Sn # 104
    coordinates: [  0.493516752542404,  0.359610930892566,  0.576701497267408 ]
    mass: 118.710000
    reduced_to: 103
  - symbol: Sn # 105
    coordinates: [  0.826850085875738,  0.359610930892566,  0.576701497267408 ]
    mass: 118.710000
    reduced_to: 103
  - symbol: Sn # 106
    coordinates: [  0.160183419209071,  0.859610930892566,  0.576701497267408 ]
    mass: 118.710000
    reduced_to: 103
  - symbol: Sn # 107
    coordinates: [  0.493516752542404,  0.859610930892566,  0.576701497267408 ]
    mass: 118.710000
    reduced_to: 103
  - symbol: Sn # 108
    coordinates: [  0.826850085875738,  0.859610930892566,  0.576701497267408 ]
    mass: 118.710000
    reduced_to: 103

displacements:
- atom:    1
  displacement:
    [   0.0100000000000000,  0.0000000000000000,  0.0000000000000000 ]
  forces:
  - [  -0.0227980334311724, -0.0065550170838833,  0.0261435694992542 ]
  - [  -0.0005363598465919, -0.0067076385021210,  0.0259256511926651 ]
  - [  -0.0005167606286705, -0.0066034719347954,  0.0261328816413879 ]
  - [  -0.0000500357709825, -0.0066526886075735,  0.0260279960930347 ]
  - [  -0.0000356421805918, -0.0066413450986147,  0.0260199494659901 ]
  - [  -0.0000370936468244, -0.0066623892635107,  0.0260348767042160 ]
  - [   0.0001046028919518,  0.0159955788403749, -0.0034449659287930 ]
  - [   0.0001055053435266,  0.0158149003982544, -0.0031892862170935 ]
  - [  -0.0000408384948969,  0.0159056745469570, -0.0033159307204187 ]
  - [  -0.0000441253650934,  0.0159096214920282, -0.0033200625330210 ]
  - [  -0.0000444296747446,  0.0159037783741951, -0.0033103339374065 ]
  - [  -0.0000537578016520,  0.0159068107604980, -0.0033151619136333 ]
  - [   0.0000324514330714,  0.0102126654237509,  0.0013188906013966 ]
  - [   0.0000331937844749,  0.0101946257054806,  0.0013285391032696 ]
  - [   0.0000162506603374,  0.0102036222815514,  0.0013234950602055 ]
  - [  -0.0000724038909539,  0.0100959576666355,  0.0012725740671158 ]
  - [  -0.0000727805745555,  0.0103129688650370,  0.0013757292181253 ]
  - [   0.0001333467371296,  0.0102039556950331,  0.0013234578073025 ]
  - [  -0.0008195373229682, -0.0056129265576601, -0.0005628392100334 ]
  - [  -0.0001703510060906, -0.0056848740205169, -0.0008887387812138 ]
  - [  -0.0001648780889809, -0.0055618695914745, -0.0002342797815800 ]
  - [  -0.0000733775086701, -0.0056253205984831, -0.0005609840154648 ]
  - [  -0.0001433710567653, -0.0057542184367776, -0.0005923062562943 ]
  - [  -0.0001420984044671, -0.0054966276511550, -0.0005293413996696 ]
  - [   0.0000136796752486,  0.0071393931284547, -0.0102038308978081 ]
  - [   0.0000204379211937,  0.0071191294118762, -0.0101951751857996 ]
  - [   0.0000206786935451,  0.0071600843220949, -0.0102120507508516 ]
  - [  -0.0000524770875927,  0.0071399845182896, -0.0102010611444712 ]
  - [   0.0000146838783621,  0.0070851966738701, -0.0103067737072706 ]
  - [   0.0000152529864863,  0.0071942526847124, -0.0100975334644318 ]
  - [   0.0001445159286959,  0.0044657830148935,  0.0136036546900868 ]
  - [   0.0001450167328585,  0.0042210454121232,  0.0134607702493668 ]
  - [  -0.0000194980693777,  0.0043426230549812,  0.0135318394750357 ]
  - [   0.0012829604092985,  0.0031691482290626,  0.0133948484435678 ]
  - [   0.0012924378970638,  0.0055411029607058,  0.0136743765324354 ]
  - [   0.0000115491284305,  0.0043437331914902,  0.0135326907038689 ]
  - [   0.0001813815324567, -0.0135580748319626, -0.0087392684072256 ]
  - [   0.0001803090126486, -0.0134796947240829, -0.0080255288630724 ]
  - [   0.0000437874368799, -0.0135204046964645, -0.0083852447569370 ]
  - [   0.0000102602989500, -0.0140214338898659, -0.0080843493342400 ]
  - [   0.0000097692372947, -0.0130171179771423, -0.0086909271776676 ]
  - [   0.0000757049856475, -0.0135219395160675, -0.0083855856209993 ]
  - [   0.0000119689339044,  0.0179700665175915, -0.0162510946393013 ]
  - [   0.0000124574662550,  0.0179571956396103, -0.0162197649478912 ]
  - [  -0.0000101827527033,  0.0179636925458908, -0.0162351913750172 ]
  - [  -0.0000708251900505,  0.0179616548120975, -0.0162614472210407 ]
  - [  -0.0000703653640812,  0.0179670527577400, -0.0162083804607391 ]
  - [   0.0001538311189506,  0.0179642364382744, -0.0162360593676567 ]
  - [   0.0027439889963716,  0.0158672984689474, -0.0129611277952790 ]
  - [   0.0027712744195014,  0.0150243528187275, -0.0075779091566801 ]
  - [   0.0000392310139432,  0.0154522825032473, -0.0102973747998476 ]
  - [  -0.0000355296142516,  0.0154444091022015, -0.0103018339723349 ]
  - [  -0.0000350326154148,  0.0154583472758532, -0.0102941878139973 ]
  - [  -0.0000285877831629,  0.0154515206813812, -0.0102986982092261 ]
  - [   0.0002789543941617, -0.0190939679741859,  0.0290432758629322 ]
  - [  -0.0001393440179527, -0.0193484723567963,  0.0292514823377132 ]
  - [  -0.0001385598443449, -0.0188647881150246,  0.0288151130080223 ]
  - [  -0.0000006523914635, -0.0191051140427589,  0.0290320627391338 ]
  - [   0.0000149738043547, -0.0191052556037903,  0.0290293954312801 ]
  - [   0.0000162916257977, -0.0191047787666321,  0.0290361363440752 ]
  - [   0.0000489973135700,  0.0226077437400818, -0.0136004947125912 ]
  - [   0.0000487753604830,  0.0225485861301422, -0.0134957805275917 ]
  - [   0.0000105722629087,  0.0225768350064754, -0.0135471448302269 ]
  - [   0.0002170125953853,  0.0223298426717520, -0.0136332027614117 ]
  - [   0.0002184497134294,  0.0228262189775705, -0.0134625546634197 ]
  - [  -0.0000222117014346,  0.0225776918232441, -0.0135475285351276 ]
  - [   0.0000415076501667, -0.0449123233556747, -0.0008878123480827 ]
  - [  -0.0006272895261645, -0.0443033538758755, -0.0006299552042037 ]
  - [  -0.0006312821060419, -0.0455319844186306, -0.0011492655612528 ]
  - [  -0.0000880067236722, -0.0449226237833500, -0.0008854158222675 ]
  - [   0.0002602543681860, -0.0447541102766991, -0.0008380066137761 ]
  - [   0.0002521066926420, -0.0450656302273273, -0.0009391219355166 ]
  - [   0.0000406485050917,  0.0127948690205812, -0.0160146299749613 ]
  - [   0.0000267829746008,  0.0127812400460243, -0.0160325746983290 ]
  - [   0.0000284891575575,  0.0128081366419792, -0.0159956980496645 ]
  - [  -0.0002132616937160,  0.0127992257475853, -0.0160189233720303 ]
  - [  -0.0007187612354755,  0.0124537600204349, -0.0154811888933182 ]
  - [  -0.0007071867585182,  0.0131336534395814, -0.0165351480245590 ]
  - [   0.0000431297812611, -0.0042741112411022, -0.0060009206645191 ]
  - [  -0.0002394892508164, -0.0041426531970501, -0.0062111290171742 ]
  - [  -0.0002407536376268, -0.0044097527861595, -0.0057896766811609 ]
  - [   0.0000070496462286, -0.0042771622538567, -0.0059992205351591 ]
  - [  -0.0000198544003069, -0.0043249763548374, -0.0059334454126656 ]
  - [  -0.0000192020088434, -0.0042292140424252, -0.0060653826221824 ]
  - [   0.0000043305926738,  0.0209369771182537, -0.0098451450467110 ]
  - [   0.0000120390768643,  0.0210078377276659, -0.0098131671547890 ]
  - [   0.0000135884056363,  0.0208652969449759, -0.0098758758977056 ]
  - [   0.0000020060124371,  0.0209338925778866, -0.0098435739055276 ]
  - [   0.0000212849845411,  0.0211947914212942, -0.0099543547257781 ]
  - [   0.0000229838460655,  0.0206784438341856, -0.0097355851903558 ]
  - [  -0.0000350177797372, -0.0166496969759464,  0.0058051254600286 ]
  - [  -0.0000327521411236, -0.0169308166950941,  0.0057978946715593 ]
  - [   0.0000273787591141, -0.0167912840843201,  0.0058023948222399 ]
  - [   0.0041526593267918, -0.0177416726946831,  0.0093052787706256 ]
  - [   0.0042441710829735, -0.0157961696386337,  0.0021771267056465 ]
  - [   0.0003555457806215, -0.0167932510375977,  0.0058004930615425 ]
  - [  -0.0000698720104992,  0.0133561044931412,  0.0061549991369247 ]
  - [  -0.0000127474777400,  0.0133663192391396,  0.0061401482671499 ]
  - [  -0.0000109323300421,  0.0133469477295876,  0.0061676148325205 ]
  - [   0.0004408727400005,  0.0133312679827213,  0.0061244536191225 ]
  - [   0.0000099246390164,  0.0133621878921986,  0.0062007298693061 ]
  - [   0.0000102268531919,  0.0133486203849316,  0.0061096847057343 ]
  - [   0.0045994650572538, -0.0263476036489010,  0.0144371986389160 ]
  - [   0.0047312607057393, -0.0333782695233822,  0.0123577527701855 ]
  - [   0.0001931076403707, -0.0297870021313429,  0.0134200230240822 ]
  - [   0.0000531652476639, -0.0299624335020781,  0.0133427307009697 ]
  - [   0.0000516651198268, -0.0296174734830856,  0.0134986564517021 ]
  - [  -0.0000147300306708, -0.0297871921211481,  0.0134208574891090 ]
- atom:    1
  displacement:
    [  -0.0100000000000000,  0.0000000000000000,  0.0000000000000000 ]
  forces:
  - [   0.0227144937962294, -0.0065554734319448,  0.0261410735547543 ]
  - [   0.0004337122663856, -0.0066035110503435,  0.0261333435773849 ]
  - [   0.0004532067105174, -0.0067075118422508,  0.0259251669049263 ]
  - [  -0.0000318926759064, -0.0066526234149933,  0.0260278321802616 ]
  - [  -0.0000446545891464, -0.0066624358296394,  0.0260346755385399 ]
  - [  -0.0000460776500404, -0.0066413562744856,  0.0260200090706348 ]
  - [  -0.0002007847651839,  0.0158152654767036, -0.0031894166022539 ]
  - [  -0.0001999824307859,  0.0159952808171511, -0.0034447549842298 ]
  - [  -0.0000526197254658,  0.0159056559205055, -0.0033159586600959 ]
  - [  -0.0000503610499436,  0.0159037467092276, -0.0033100969158113 ]
  - [  -0.0000506890937686,  0.0159097798168659, -0.0033202394843102 ]
  - [  -0.0000410266220570,  0.0159067437052727, -0.0033151805400848 ]
  - [   0.0000205866890610,  0.0101944021880627,  0.0013280380517244 ]