# Thermal properties / unit cell (natom)

unit:
  temperature:   K
  free_energy:   kJ/mol
  entropy:       J/K/mol
  heat_capacity: J/K/mol

natom: 4    
cutoff_frequency: 0.00000
num_modes: 146004
num_integrated_modes: 142545

zero_point_energy:       4.3507783

thermal_properties:
- temperature:         0.0000000
  free_energy:         4.3507783
  entropy:             0.0000000
  heat_capacity:       0.0000000
  energy:              4.3507783

- temperature:        10.0000000
  free_energy:         4.3368344
  entropy:             4.7293669
  heat_capacity:      10.1000806
  energy:              4.3841281

- temperature:        20.0000000
  free_energy:         4.2287373
  entropy:            17.7458267
  heat_capacity:      30.5239044
  energy:              4.5836538

- temperature:        30.0000000
  free_energy:         3.9711296
  entropy:            34.0214717
  heat_capacity:      50.3025464
  energy:              4.9917737

- temperature:        40.0000000
  free_energy:         3.5476334
  entropy:            50.5631750
  heat_capacity:      64.4195136
  energy:              5.5701604

- temperature:        50.0000000
  free_energy:         2.9636404
  entropy:            66.0053498
  heat_capacity:      73.6705201
  energy:              6.2639079

- temperature:        60.0000000
  free_energy:         2.2323495
  entropy:            80.0119260
  heat_capacity:      79.7496013
  energy:              7.0330651

- temperature:        70.0000000
  free_energy:         1.3680279
  entropy:            92.6336793
  heat_capacity:      83.8585126
  energy:              7.8523854

- temperature:        80.0000000
  free_energy:         0.3837623
  entropy:           104.0296942
  heat_capacity:      86.7286298
  energy:              8.7061378

- temperature:        90.0000000
  free_energy:        -0.7090512
  entropy:           114.3706129
  heat_capacity:      88.7970249
  energy:              9.5843039

- temperature:       100.0000000
  free_energy:        -1.9006459
  entropy:           123.8094940
  heat_capacity:      90.3297896
  energy:             10.4803035

- temperature:       110.0000000
  free_energy:        -3.1826685
  entropy:           132.4758637
  heat_capacity:      91.4936744
  energy:             11.3896765

- temperature:       120.0000000
  free_energy:        -4.5479483
  entropy:           140.4771561
  heat_capacity:      92.3964165
  energy:             12.3093104

- temperature:       130.0000000
  free_energy:        -5.9902921
  entropy:           147.9020594
  heat_capacity:      93.1096824
  energy:             13.2369757

- temperature:       140.0000000
  free_energy:        -7.5043141
  entropy:           154.8239387
  heat_capacity:      93.6824379
  energy:             14.1710373

- temperature:       150.0000000
  free_energy:        -9.0852985
  entropy:           161.3037994
  heat_capacity:      94.1489581
  energy:             15.1102714

- temperature:       160.0000000
  free_energy:       -10.7290878
  entropy:           167.3927038
  heat_capacity:      94.5337633
  energy:             16.0537448

- temperature:       170.0000000
  free_energy:       -12.4319936
  entropy:           173.1336941
  heat_capacity:      94.8547416
  energy:             17.0007344

- temperature:       180.0000000
  free_energy:       -14.1907244
  entropy:           178.5633103
  heat_capacity:      95.1251749
  energy:             17.9506715

- temperature:       190.0000000
  free_energy:       -16.0023265
  entropy:           183.7127871
  heat_capacity:      95.3550829
  energy:             18.9031031

- temperature:       200.0000000
  free_energy:       -17.8641363
  entropy:           188.6090006
  heat_capacity:      95.5521335
  energy:             19.8576638

- temperature:       210.0000000
  free_energy:       -19.7737402
  entropy:           193.2752208
  heat_capacity:      95.7222725
  energy:             20.8140562

- temperature:       220.0000000
  free_energy:       -21.7289419
  entropy:           197.7317142
  heat_capacity:      95.8701649
  energy:             21.7720352

- temperature:       230.0000000
  free_energy:       -23.7277348
  entropy:           201.9962283
  heat_capacity:      95.9995114
  energy:             22.7313977

- temperature:       240.0000000
  free_energy:       -25.7682788
  entropy:           206.0843849
  heat_capacity:      96.1132767
  energy:             23.6919736

- temperature:       250.0000000
  free_energy:       -27.8488809
  entropy:           210.0100009
  heat_capacity:      96.2138582
  energy:             24.6536194

- temperature:       260.0000000
  free_energy:       -29.9679781
  entropy:           213.7853517
  heat_capacity:      96.3032104
  energy:             25.6162133

- temperature:       270.0000000
  free_energy:       -32.1241236
  entropy:           217.4213895
  heat_capacity:      96.3829401
  energy:             26.5796515

- temperature:       280.0000000
  free_energy:       -34.3159743
  entropy:           220.9279244
  heat_capacity:      96.4543773
  energy:             27.5438445

- temperature:       290.0000000
  free_energy:       -36.5422799
  entropy:           224.3137762
  heat_capacity:      96.5186303
  energy:             28.5087151

- temperature:       300.0000000
  free_energy:       -38.8018742
  entropy:           227.5869016
  heat_capacity:      96.5766288
  energy:             29.4741963

- temperature:       310.0000000
  free_energy:       -41.0936663
  entropy:           230.7545026
  heat_capacity:      96.6291574
  energy:             30.4402295

- temperature:       320.0000000
  free_energy:       -43.4166343
  entropy:           233.8231180
  heat_capacity:      96.6768814
  energy:             31.4067634

- temperature:       330.0000000
  free_energy:       -45.7698186
  entropy:           236.7987019
  heat_capacity:      96.7203682
  energy:             32.3737530

- temperature:       340.0000000
  free_energy:       -48.1523164
  entropy:           239.6866904
  heat_capacity:      96.7601040
  energy:             33.3411583

- temperature:       350.0000000
  free_energy:       -50.5632771
  entropy:           242.4920602
  heat_capacity:      96.7965075
  energy:             34.3089440

- temperature:       360.0000000
  free_energy:       -53.0018975
  entropy:           245.2193780
  heat_capacity:      96.8299404
  energy:             35.2770786

- temperature:       370.0000000
  free_energy:       -55.4674185
  entropy:           247.8728444
  heat_capacity:      96.8607169
  energy:             36.2455339

- temperature:       380.0000000
  free_energy:       -57.9591212
  entropy:           250.4563319
  heat_capacity:      96.8891107
  energy:             37.2142850

- temperature:       390.0000000
  free_energy:       -60.4763238
  entropy:           252.9734176
  heat_capacity:      96.9153612
  energy:             38.1833090

- temperature:       400.0000000
  free_energy:       -63.0183792
  entropy:           255.4274125
  heat_capacity:      96.9396785
  energy:             39.1525857

- temperature:       410.0000000
  free_energy:       -65.5846720
  entropy:           257.8213873
  heat_capacity:      96.9622477
  energy:             40.1220968

- temperature:       420.0000000
  free_energy:       -68.1746165
  entropy:           260.1581949
  heat_capacity:      96.9832322
  energy:             41.0918254

- temperature:       430.0000000
  free_energy:       -70.7876542
  entropy:           262.4404904
  heat_capacity:      97.0027768
  energy:             42.0617566

- temperature:       440.0000000
  free_energy:       -73.4232528
  entropy:           264.6707487
  heat_capacity:      97.0210101
  energy:             43.0318766

- temperature:       450.0000000
  free_energy:       -76.0809035
  entropy:           266.8512807
  heat_capacity:      97.0380468
  energy:             44.0021728

- temperature:       460.0000000
  free_energy:       -78.7601199
  entropy:           268.9842473
  heat_capacity:      97.0539891
  energy:             44.9726339

- temperature:       470.0000000
  free_energy:       -81.4604366
  entropy:           271.0716721
  heat_capacity:      97.0689288
  energy:             45.9432493

- temperature:       480.0000000
  free_energy:       -84.1814079
  entropy:           273.1154526
  heat_capacity:      97.0829481
  energy:             46.9140094

- temperature:       490.0000000
  free_energy:       -86.9226062
  entropy:           275.1173705
  heat_capacity:      97.0961210
  energy:             47.8849054

- temperature:       500.0000000
  free_energy:       -89.6836213
  entropy:           277.0791011
  heat_capacity:      97.1085143
  energy:             48.8559292

- temperature:       510.0000000
  free_energy:       -92.4640595
  entropy:           279.0022211
  heat_capacity:      97.1201883
  energy:             49.8270733

- temperature:       520.0000000
  free_energy:       -95.2635420
  entropy:           280.8882169
  heat_capacity:      97.1311975
  energy:             50.7983308

- temperature:       530.0000000
  free_energy:       -98.0817048
  entropy:           282.7384905
  heat_capacity:      97.1415913
  energy:             51.7696952

- temperature:       540.0000000
  free_energy:      -100.9181972
  entropy:           284.5543664
  heat_capacity:      97.1514149
  energy:             52.7411607

- temperature:       550.0000000
  free_energy:      -103.7726816
  entropy:           286.3370970
  heat_capacity:      97.1607091
  energy:             53.7127217

- temperature:       560.0000000
  free_energy:      -106.6448326
  entropy:           288.0878675
  heat_capacity:      97.1695112
  energy:             54.6843732

- temperature:       570.0000000
  free_energy:      -109.5343362
  entropy:           289.8078011
  heat_capacity:      97.1778554
  energy:             55.6561104

- temperature:       580.0000000
  free_energy:      -112.4408894
  entropy:           291.4979626
  heat_capacity:      97.1857729
  energy:             56.6279289

- temperature:       590.0000000
  free_energy:      -115.3641996
  entropy:           293.1593629
  heat_capacity:      97.1932923
  energy:             57.5998246

- temperature:       600.0000000
  free_energy:      -118.3039840
  entropy:           294.7929625
  heat_capacity:      97.2004397
  energy:             58.5717935

- temperature:       610.0000000
  free_energy:      -121.2599692
  entropy:           296.3996744
  heat_capacity:      97.2072394
  energy:             59.5438322

- temperature:       620.0000000
  free_energy:      -124.2318907
  entropy:           297.9803677
  heat_capacity:      97.2137135
  energy:             60.5159372

- temperature:       630.0000000
  free_energy:      -127.2194926
  entropy:           299.5358699
  heat_capacity:      97.2198824
  energy:             61.4881054

- temperature:       640.0000000
  free_energy:      -130.2225268
  entropy:           301.0669699
  heat_capacity:      97.2257651
  energy:             62.4603339

- temperature:       650.0000000
  free_energy:      -133.2407532
  entropy:           302.5744200
  heat_capacity:      97.2313789
  energy:             63.4326198

- temperature:       660.0000000
  free_energy:      -136.2739388
  entropy:           304.0589385
  heat_capacity:      97.2367400
  energy:             64.4049606

- temperature:       670.0000000
  free_energy:      -139.3218578
  entropy:           305.5212114
  heat_capacity:      97.2418633
  energy:             65.3773539

- temperature:       680.0000000
  free_energy:      -142.3842910
  entropy:           306.9618944
  heat_capacity:      97.2467627
  energy:             66.3497972

- temperature:       690.0000000
  free_energy:      -145.4610258
  entropy:           308.3816148
  heat_capacity:      97.2514510
  energy:             67.3222884

- temperature:       700.0000000
  free_energy:      -148.5518555
  entropy:           309.7809728
  heat_capacity:      97.2559402
  energy:             68.2948255

- temperature:       710.0000000
  free_energy:      -151.6565793
  entropy:           311.1605435
  heat_capacity:      97.2602414
  energy:             69.2674066

- temperature:       720.0000000
  free_energy:      -154.7750022
  entropy:           312.5208777
  heat_capacity:      97.2643649
  energy:             70.2400298

- temperature:       730.0000000
  free_energy:      -157.9069345
  entropy:           313.8625039
  heat_capacity:      97.2683204
  energy:             71.2126933

- temperature:       740.0000000
  free_energy:      -161.0521916
  entropy:           315.1859287
  heat_capacity:      97.2721169
  energy:             72.1853956

- temperature:       750.0000000
  free_energy:      -164.2105940
  entropy:           316.4916389
  heat_capacity:      97.2757628
  energy:             73.1581352

- temperature:       760.0000000
  free_energy:      -167.3819669
  entropy:           317.7801017
  heat_capacity:      97.2792659
  energy:             74.1309104

- temperature:       770.0000000
  free_energy:      -170.5661401
  entropy:           319.0517663
  heat_capacity:      97.2826337
  energy:             75.1037200

- temperature:       780.0000000
  free_energy:      -173.7629477
  entropy:           320.3070645
  heat_capacity:      97.2858729
  energy:             76.0765627

- temperature:       790.0000000
  free_energy:      -176.9722282
  entropy:           321.5464117
  heat_capacity:      97.2889901
  energy:             77.0494371

- temperature:       800.0000000
  free_energy:      -180.1938241
  entropy:           322.7702077
  heat_capacity:      97.2919913
  energy:             78.0223421

- temperature:       810.0000000
  free_energy:      -183.4275818
  entropy:           323.9788374
  heat_capacity:      97.2948822
  energy:             78.9952765

- temperature:       820.0000000
  free_energy:      -186.6733515
  entropy:           325.1726718
  heat_capacity:      97.2976681
  energy:             79.9682394

- temperature:       830.0000000
  free_energy:      -189.9309871
  entropy:           326.3520683
  heat_capacity:      97.3003540
  energy:             80.9412296

- temperature:       840.0000000
  free_energy:      -193.2003459
  entropy:           327.5173715
  heat_capacity:      97.3029447
  energy:             81.9142461

- temperature:       850.0000000
  free_energy:      -196.4812887
  entropy:           328.6689139
  heat_capacity:      97.3054446
  energy:             82.8872882

- temperature:       860.0000000
  free_energy:      -199.7736794
  entropy:           329.8070164
  heat_capacity:      97.3078579
  energy:             83.8603547

- temperature:       870.0000000
  free_energy:      -203.0773852
  entropy:           330.9319888
  heat_capacity:      97.3101886
  energy:             84.8334450

- temperature:       880.0000000
  free_energy:      -206.3922764
  entropy:           332.0441303
  heat_capacity:      97.3124404
  energy:             85.8065582

- temperature:       890.0000000
  free_energy:      -209.7182260
  entropy:           333.1437299
  heat_capacity:      97.3146168
  energy:             86.7796936

- temperature:       900.0000000
  free_energy:      -213.0551101
  entropy:           334.2310672
  heat_capacity:      97.3167211
  energy:             87.7528503

- temperature:       910.0000000
  free_energy:      -216.4028074
  entropy:           335.3064123
  heat_capacity:      97.3187565
  energy:             88.7260278

- temperature:       920.0000000
  free_energy:      -219.7611993
  entropy:           336.3700266
  heat_capacity:      97.3207260
  energy:             89.6992253

- temperature:       930.0000000
  free_energy:      -223.1301697
  entropy:           337.4221632
  heat_capacity:      97.3226323
  energy:             90.6724421

- temperature:       940.0000000
  free_energy:      -226.5096051
  entropy:           338.4630668
  heat_capacity:      97.3244782
  energy:             91.6456777

- temperature:       950.0000000
  free_energy:      -229.8993943
  entropy:           339.4929745
  heat_capacity:      97.3262661
  energy:             92.6189315

- temperature:       960.0000000
  free_energy:      -233.2994287
  entropy:           340.5121162
  heat_capacity:      97.3279986
  energy:             93.5922028

- temperature:       970.0000000
  free_energy:      -236.7096015
  entropy:           341.5207142
  heat_capacity:      97.3296777
  energy:             94.5654913

- temperature:       980.0000000
  free_energy:      -240.1298085
  entropy:           342.5189844
  heat_capacity:      97.3313058
  energy:             95.5387962

- temperature:       990.0000000
  free_energy:      -243.5599475
  entropy:           343.5071361
  heat_capacity:      97.3328849
  energy:             96.5121172

- temperature:      1000.0000000
  free_energy:      -246.9999182
  entropy:           344.4853720
  heat_capacity:      97.3344168
  energy:             97.4854538
