phonopy:
  version: "2.37.1"
  frequency_unit_conversion_factor: 15.633302
  symmetry_tolerance: 1.00000e-05

space_group:
  type: "P1"
  number: 1
  Hall_symbol: "P 1"

primitive_matrix:
- [ -1.000000000000000, -0.000000000000000,  1.000000000000000 ]
- [  0.000000000000000, -1.000000000000000, -0.000000000000000 ]
- [  0.000000000000000,  0.000000000000000,  1.000000000000000 ]

supercell_matrix:
- [   3,   0,   0 ]
- [   0,   3,   0 ]
- [   0,   0,   2 ]

primitive_cell:
  lattice:
  - [    -4.808701770331205,     0.000000000000000,     0.000000000000000 ] # a
  - [     0.000021927552834,    -4.813237921559088,     0.000000000000000 ] # b
  - [     2.404313859623611,     0.000024785825762,     7.176039903852895 ] # c
  points:
  - symbol: Sn # 1
    coordinates: [  0.015450741021303,  0.076837459964347,  0.131487540402339 ]
    mass: 118.710000
  - symbol: Sn # 2
    coordinates: [  0.181734050977681,  0.576776625190281,  0.463300059796032 ]
    mass: 118.710000
  - symbol: Sn # 3
    coordinates: [  0.348164866177994,  0.076808126841096,  0.797178822977047 ]
    mass: 118.710000
  - symbol: Sn # 4
    coordinates: [  0.681012904356891,  0.076820108502521,  0.461941171992688 ]
    mass: 118.710000
  - symbol: Sn # 5
    coordinates: [  0.514937161825307,  0.576804980461805,  0.129657363008410 ]
    mass: 118.710000
  - symbol: Sn # 6
    coordinates: [  0.848660142915383,  0.576426474904551,  0.797016873757764 ]
    mass: 118.710000
  reciprocal_lattice: # without 2pi
  - [    -0.207956335776490,    -0.000000947381703,     0.069675239690207 ] # a*
  - [    -0.000000000000000,    -0.207760350993845,     0.000000717597997 ] # b*
  - [    -0.000000000000000,    -0.000000000000000,     0.139352625319585 ] # c*

unit_cell:
  lattice:
  - [     4.808701770331207,     0.000000000000000,     0.000000000000000 ] # a
  - [    -0.000021927552834,     4.813237921559089,     0.000000000000000 ] # b
  - [    -2.404387910707594,     0.000024785825763,     7.176039903852897 ] # c
  points:
  - symbol: Sn # 1
    coordinates: [  0.116036799381036,  0.923162540035653,  0.131487540402339 ]
    mass: 118.710000
    reduced_to: 1
  - symbol: Sn # 2
    coordinates: [  0.281566008818351,  0.423223374809719,  0.463300059796032 ]
    mass: 118.710000
    reduced_to: 2
  - symbol: Sn # 3
    coordinates: [  0.449013956799053,  0.923191873158905,  0.797178822977046 ]
    mass: 118.710000
    reduced_to: 3
  - symbol: Sn # 4
    coordinates: [  0.780928267635796,  0.923179891497479,  0.461941171992688 ]
    mass: 118.710000
    reduced_to: 4
  - symbol: Sn # 5
    coordinates: [  0.614720201183103,  0.423195019538195,  0.129657363008410 ]
    mass: 118.710000
    reduced_to: 5
  - symbol: Sn # 6
    coordinates: [  0.948356730842381,  0.423573525095449,  0.797016873757764 ]
    mass: 118.710000
    reduced_to: 6

supercell:
  lattice:
  - [    14.426105310993620,     0.000000000000000,     0.000000000000000 ] # a
  - [    -0.000065782658502,    14.439713764677265,     0.000000000000000 ] # b
  - [    -4.808775821415188,     0.000049571651525,    14.352079807705794 ] # c
  points:
  - symbol: Sn # 1
    coordinates: [  0.038678933127012,  0.307720846678551,  0.065743770201169 ]
    mass: 118.710000
    reduced_to: 1
  - symbol: Sn # 2
    coordinates: [  0.372012266460345,  0.307720846678551,  0.065743770201169 ]
    mass: 118.710000
    reduced_to: 1
  - symbol: Sn # 3
    coordinates: [  0.705345599793679,  0.307720846678551,  0.065743770201169 ]
    mass: 118.710000
    reduced_to: 1
  - symbol: Sn # 4
    coordinates: [  0.038678933127012,  0.641054180011884,  0.065743770201169 ]
    mass: 118.710000
    reduced_to: 1
  - symbol: Sn # 5
    coordinates: [  0.372012266460345,  0.641054180011884,  0.065743770201169 ]
    mass: 118.710000
    reduced_to: 1
  - symbol: Sn # 6
    coordinates: [  0.705345599793679,  0.641054180011884,  0.065743770201169 ]
    mass: 118.710000
    reduced_to: 1
  - symbol: Sn # 7
    coordinates: [  0.038678933127012,  0.974387513345218,  0.065743770201169 ]
    mass: 118.710000
    reduced_to: 1
  - symbol: Sn # 8
    coordinates: [  0.372012266460345,  0.974387513345218,  0.065743770201169 ]
    mass: 118.710000
    reduced_to: 1
  - symbol: Sn # 9
    coordinates: [  0.705345599793679,  0.974387513345218,  0.065743770201169 ]
    mass: 118.710000
    reduced_to: 1
  - symbol: Sn # 10
    coordinates: [  0.038678933127012,  0.307720846678551,  0.565743770201170 ]
    mass: 118.710000
    reduced_to: 1
  - symbol: Sn # 11
    coordinates: [  0.372012266460345,  0.307720846678551,  0.565743770201170 ]
    mass: 118.710000
    reduced_to: 1
  - symbol: Sn # 12
    coordinates: [  0.705345599793679,  0.307720846678551,  0.565743770201170 ]
    mass: 118.710000
    reduced_to: 1
  - symbol: Sn # 13
    coordinates: [  0.038678933127012,  0.641054180011884,  0.565743770201170 ]
    mass: 118.710000
    reduced_to: 1
  - symbol: Sn # 14
    coordinates: [  0.372012266460345,  0.641054180011884,  0.565743770201170 ]
    mass: 118.710000
    reduced_to: 1
  - symbol: Sn # 15
    coordinates: [  0.705345599793679,  0.641054180011884,  0.565743770201170 ]
    mass: 118.710000
    reduced_to: 1
  - symbol: Sn # 16
    coordinates: [  0.038678933127012,  0.974387513345218,  0.565743770201170 ]
    mass: 118.710000
    reduced_to: 1
  - symbol: Sn # 17
    coordinates: [  0.372012266460345,  0.974387513345218,  0.565743770201170 ]
    mass: 118.710000
    reduced_to: 1
  - symbol: Sn # 18
    coordinates: [  0.705345599793679,  0.974387513345218,  0.565743770201170 ]
    mass: 118.710000
    reduced_to: 1
  - symbol: Sn # 19
    coordinates: [  0.093855336272784,  0.141074458269906,  0.231650029898016 ]
    mass: 118.710000
    reduced_to: 19
  - symbol: Sn # 20
    coordinates: [  0.427188669606117,  0.141074458269906,  0.231650029898016 ]
    mass: 118.710000
    reduced_to: 19
  - symbol: Sn # 21
    coordinates: [  0.760522002939450,  0.141074458269906,  0.231650029898016 ]
    mass: 118.710000
    reduced_to: 19
  - symbol: Sn # 22
    coordinates: [  0.093855336272784,  0.474407791603240,  0.231650029898016 ]
    mass: 118.710000
    reduced_to: 19
  - symbol: Sn # 23
    coordinates: [  0.427188669606117,  0.474407791603240,  0.231650029898016 ]
    mass: 118.710000
    reduced_to: 19
  - symbol: Sn # 24
    coordinates: [  0.760522002939450,  0.474407791603240,  0.231650029898016 ]
    mass: 118.710000
    reduced_to: 19
  - symbol: Sn # 25
    coordinates: [  0.093855336272784,  0.807741124936573,  0.231650029898016 ]
    mass: 118.710000
    reduced_to: 19
  - symbol: Sn # 26
    coordinates: [  0.427188669606117,  0.807741124936573,  0.231650029898016 ]
    mass: 118.710000
    reduced_to: 19
  - symbol: Sn # 27
    coordinates: [  0.760522002939450,  0.807741124936573,  0.231650029898016 ]
    mass: 118.710000
    reduced_to: 19
  - symbol: Sn # 28
    coordinates: [  0.093855336272784,  0.141074458269906,  0.731650029898016 ]
    mass: 118.710000
    reduced_to: 19
  - symbol: Sn # 29
    coordinates: [  0.427188669606117,  0.141074458269906,  0.731650029898016 ]
    mass: 118.710000
    reduced_to: 19
  - symbol: Sn # 30
    coordinates: [  0.760522002939450,  0.141074458269906,  0.731650029898016 ]
    mass: 118.710000
    reduced_to: 19
  - symbol: Sn # 31
    coordinates: [  0.093855336272784,  0.474407791603240,  0.731650029898016 ]
    mass: 118.710000
    reduced_to: 19
  - symbol: Sn # 32
    coordinates: [  0.427188669606117,  0.474407791603240,  0.731650029898016 ]
    mass: 118.710000
    reduced_to: 19
  - symbol: Sn # 33
    coordinates: [  0.760522002939450,  0.474407791603240,  0.731650029898016 ]
    mass: 118.710000
    reduced_to: 19
  - symbol: Sn # 34
    coordinates: [  0.093855336272784,  0.807741124936573,  0.731650029898016 ]
    mass: 118.710000
    reduced_to: 19
  - symbol: Sn # 35
    coordinates: [  0.427188669606117,  0.807741124936573,  0.731650029898016 ]
    mass: 118.710000
    reduced_to: 19
  - symbol: Sn # 36
    coordinates: [  0.760522002939450,  0.807741124936573,  0.731650029898016 ]
    mass: 118.710000
    reduced_to: 19
  - symbol: Sn # 37
    coordinates: [  0.149671318933018,  0.307730624386301,  0.398589411488523 ]
    mass: 118.710000
    reduced_to: 37
  - symbol: Sn # 38
    coordinates: [  0.483004652266351,  0.307730624386301,  0.398589411488523 ]
    mass: 118.710000
    reduced_to: 37
  - symbol: Sn # 39
    coordinates: [  0.816337985599684,  0.307730624386301,  0.398589411488523 ]
    mass: 118.710000
    reduced_to: 37
  - symbol: Sn # 40
    coordinates: [  0.149671318933018,  0.641063957719635,  0.398589411488523 ]
    mass: 118.710000
    reduced_to: 37
  - symbol: Sn # 41
    coordinates: [  0.483004652266351,  0.641063957719635,  0.398589411488523 ]
    mass: 118.710000
    reduced_to: 37
  - symbol: Sn # 42
    coordinates: [  0.816337985599684,  0.641063957719635,  0.398589411488523 ]
    mass: 118.710000
    reduced_to: 37
  - symbol: Sn # 43
    coordinates: [  0.149671318933018,  0.974397291052968,  0.398589411488523 ]
    mass: 118.710000
    reduced_to: 37
  - symbol: Sn # 44
    coordinates: [  0.483004652266351,  0.974397291052968,  0.398589411488523 ]
    mass: 118.710000
    reduced_to: 37
  - symbol: Sn # 45
    coordinates: [  0.816337985599684,  0.974397291052968,  0.398589411488523 ]
    mass: 118.710000
    reduced_to: 37
  - symbol: Sn # 46
    coordinates: [  0.149671318933018,  0.307730624386301,  0.898589411488523 ]
    mass: 118.710000
    reduced_to: 37
  - symbol: Sn # 47
    coordinates: [  0.483004652266351,  0.307730624386301,  0.898589411488523 ]
    mass: 118.710000
    reduced_to: 37
  - symbol: Sn # 48
    coordinates: [  0.816337985599684,  0.307730624386301,  0.898589411488523 ]
    mass: 118.710000
    reduced_to: 37
  - symbol: Sn # 49
    coordinates: [  0.149671318933018,  0.641063957719635,  0.898589411488523 ]
    mass: 118.710000
    reduced_to: 37
  - symbol: Sn # 50
    coordinates: [  0.483004652266351,  0.641063957719635,  0.898589411488523 ]
    mass: 118.710000
    reduced_to: 37
  - symbol: Sn # 51
    coordinates: [  0.816337985599684,  0.641063957719635,  0.898589411488523 ]
    mass: 118.710000
    reduced_to: 37
  - symbol: Sn # 52
    coordinates: [  0.149671318933018,  0.974397291052968,  0.898589411488523 ]
    mass: 118.710000
    reduced_to: 37
  - symbol: Sn # 53
    coordinates: [  0.483004652266351,  0.974397291052968,  0.898589411488523 ]
    mass: 118.710000
    reduced_to: 37
  - symbol: Sn # 54
    coordinates: [  0.816337985599684,  0.974397291052968,  0.898589411488523 ]
    mass: 118.710000
    reduced_to: 37
  - symbol: Sn # 55
    coordinates: [  0.260309422545265,  0.307726630499160,  0.230970585996344 ]
    mass: 118.710000
    reduced_to: 55
  - symbol: Sn # 56
    coordinates: [  0.593642755878599,  0.307726630499160,  0.230970585996344 ]
    mass: 118.710000
    reduced_to: 55
  - symbol: Sn # 57
    coordinates: [  0.926976089211932,  0.307726630499160,  0.230970585996344 ]
    mass: 118.710000
    reduced_to: 55
  - symbol: Sn # 58
    coordinates: [  0.260309422545265,  0.641059963832493,  0.230970585996344 ]
    mass: 118.710000
    reduced_to: 55
  - symbol: Sn # 59
    coordinates: [  0.593642755878599,  0.641059963832493,  0.230970585996344 ]
    mass: 118.710000
    reduced_to: 55
  - symbol: Sn # 60
    coordinates: [  0.926976089211932,  0.641059963832493,  0.230970585996344 ]
    mass: 118.710000
    reduced_to: 55
  - symbol: Sn # 61
    coordinates: [  0.260309422545265,  0.974393297165826,  0.230970585996344 ]
    mass: 118.710000
    reduced_to: 55
  - symbol: Sn # 62
    coordinates: [  0.593642755878599,  0.974393297165826,  0.230970585996344 ]
    mass: 118.710000
    reduced_to: 55
  - symbol: Sn # 63
    coordinates: [  0.926976089211932,  0.974393297165826,  0.230970585996344 ]
    mass: 118.710000
    reduced_to: 55
  - symbol: Sn # 64
    coordinates: [  0.260309422545265,  0.307726630499160,  0.730970585996344 ]
    mass: 118.710000
    reduced_to: 55
  - symbol: Sn # 65
    coordinates: [  0.593642755878599,  0.307726630499160,  0.730970585996344 ]
    mass: 118.710000
    reduced_to: 55
  - symbol: Sn # 66
    coordinates: [  0.926976089211932,  0.307726630499160,  0.730970585996344 ]
    mass: 118.710000
    reduced_to: 55
  - symbol: Sn # 67
    coordinates: [  0.260309422545265,  0.641059963832493,  0.730970585996344 ]
    mass: 118.710000
    reduced_to: 55
  - symbol: Sn # 68
    coordinates: [  0.593642755878599,  0.641059963832493,  0.730970585996344 ]
    mass: 118.710000
    reduced_to: 55
  - symbol: Sn # 69
    coordinates: [  0.926976089211932,  0.641059963832493,  0.730970585996344 ]
    mass: 118.710000
    reduced_to: 55
  - symbol: Sn # 70
    coordinates: [  0.260309422545265,  0.974393297165826,  0.730970585996344 ]
    mass: 118.710000
    reduced_to: 55
  - symbol: Sn # 71
    coordinates: [  0.593642755878599,  0.974393297165826,  0.730970585996344 ]
    mass: 118.710000
    reduced_to: 55
  - symbol: Sn # 72
    coordinates: [  0.926976089211932,  0.974393297165826,  0.730970585996344 ]
    mass: 118.710000
    reduced_to: 55
  - symbol: Sn # 73
    coordinates: [  0.204906733727701,  0.141065006512732,  0.064828681504205 ]
    mass: 118.710000
    reduced_to: 73
  - symbol: Sn # 74
    coordinates: [  0.538240067061034,  0.141065006512732,  0.064828681504205 ]
    mass: 118.710000
    reduced_to: 73
  - symbol: Sn # 75
    coordinates: [  0.871573400394368,  0.141065006512732,  0.064828681504205 ]
    mass: 118.710000
    reduced_to: 73
  - symbol: Sn # 76
    coordinates: [  0.204906733727701,  0.474398339846065,  0.064828681504205 ]
    mass: 118.710000
    reduced_to: 73
  - symbol: Sn # 77
    coordinates: [  0.538240067061034,  0.474398339846065,  0.064828681504205 ]
    mass: 118.710000
    reduced_to: 73
  - symbol: Sn # 78
    coordinates: [  0.871573400394368,  0.474398339846065,  0.064828681504205 ]
    mass: 118.710000
    reduced_to: 73
  - symbol: Sn # 79
    coordinates: [  0.204906733727701,  0.807731673179398,  0.064828681504205 ]
    mass: 118.710000
    reduced_to: 73
  - symbol: Sn # 80
    coordinates: [  0.538240067061034,  0.807731673179398,  0.064828681504205 ]
    mass: 118.710000
    reduced_to: 73
  - symbol: Sn # 81
    coordinates: [  0.871573400394368,  0.807731673179398,  0.064828681504205 ]
    mass: 118.710000
    reduced_to: 73
  - symbol: Sn # 82
    coordinates: [  0.204906733727701,  0.141065006512732,  0.564828681504205 ]
    mass: 118.710000
    reduced_to: 73
  - symbol: Sn # 83
    coordinates: [  0.538240067061034,  0.141065006512732,  0.564828681504205 ]
    mass: 118.710000
    reduced_to: 73
  - symbol: Sn # 84
    coordinates: [  0.871573400394368,  0.141065006512732,  0.564828681504205 ]
    mass: 118.710000
    reduced_to: 73
  - symbol: Sn # 85
    coordinates: [  0.204906733727701,  0.474398339846065,  0.564828681504205 ]
    mass: 118.710000
    reduced_to: 73
  - symbol: Sn # 86
    coordinates: [  0.538240067061034,  0.474398339846065,  0.564828681504205 ]
    mass: 118.710000
    reduced_to: 73
  - symbol: Sn # 87
    coordinates: [  0.871573400394368,  0.474398339846065,  0.564828681504205 ]
    mass: 118.710000
    reduced_to: 73
  - symbol: Sn # 88
    coordinates: [  0.204906733727701,  0.807731673179398,  0.564828681504205 ]
    mass: 118.710000
    reduced_to: 73
  - symbol: Sn # 89
    coordinates: [  0.538240067061034,  0.807731673179398,  0.564828681504205 ]
    mass: 118.710000
    reduced_to: 73
  - symbol: Sn # 90
    coordinates: [  0.871573400394368,  0.807731673179398,  0.564828681504205 ]
    mass: 118.710000
    reduced_to: 73
  - symbol: Sn # 91
    coordinates: [  0.316118910280794,  0.141191175031816,  0.398508436878882 ]
    mass: 118.710000
    reduced_to: 91
  - symbol: Sn # 92
    coordinates: [  0.649452243614127,  0.141191175031816,  0.398508436878882 ]
    mass: 118.710000
    reduced_to: 91
  - symbol: Sn # 93
    coordinates: [  0.982785576947460,  0.141191175031816,  0.398508436878882 ]
    mass: 118.710000
    reduced_to: 91
  - symbol: Sn # 94
    coordinates: [  0.316118910280794,  0.474524508365150,  0.398508436878882 ]
    mass: 118.710000
    reduced_to: 91
  - symbol: Sn # 95
    coordinates: [  0.649452243614127,  0.474524508365150,  0.398508436878882 ]
    mass: 118.710000
    reduced_to: 91
  - symbol: Sn # 96
    coordinates: [  0.982785576947460,  0.474524508365150,  0.398508436878882 ]
    mass: 118.710000
    reduced_to: 91
  - symbol: Sn # 97
    coordinates: [  0.316118910280794,  0.807857841698483,  0.398508436878882 ]
    mass: 118.710000
    reduced_to: 91
  - symbol: Sn # 98
    coordinates: [  0.649452243614127,  0.807857841698483,  0.398508436878882 ]
    mass: 118.710000
    reduced_to: 91
  - symbol: Sn # 99
    coordinates: [  0.982785576947460,  0.807857841698483,  0.398508436878882 ]
    mass: 118.710000
    reduced_to: 91
  - symbol: Sn # 100
    coordinates: [  0.316118910280794,  0.141191175031816,  0.898508436878882 ]
    mass: 118.710000
    reduced_to: 91
  - symbol: Sn # 101
    coordinates: [  0.649452243614127,  0.141191175031816,  0.898508436878882 ]
    mass: 118.710000
    reduced_to: 91
  - symbol: Sn # 102
    coordinates: [  0.982785576947460,  0.141191175031816,  0.898508436878882 ]
    mass: 118.710000
    reduced_to: 91
  - symbol: Sn # 103
    coordinates: [  0.316118910280794,  0.474524508365150,  0.898508436878882 ]
    mass: 118.710000
    reduced_to: 91
  - symbol: Sn # 104
    coordinates: [  0.649452243614127,  0.474524508365150,  0.898508436878882 ]
    mass: 118.710000
    reduced_to: 91
  - symbol: Sn # 105
    coordinates: [  0.982785576947460,  0.474524508365150,  0.898508436878882 ]
    mass: 118.710000
    reduced_to: 91
  - symbol: Sn # 106
    coordinates: [  0.316118910280794,  0.807857841698483,  0.898508436878882 ]
    mass: 118.710000
    reduced_to: 91
  - symbol: Sn # 107
    coordinates: [  0.649452243614127,  0.807857841698483,  0.898508436878882 ]
    mass: 118.710000
    reduced_to: 91
  - symbol: Sn # 108
    coordinates: [  0.982785576947460,  0.807857841698483,  0.898508436878882 ]
    mass: 118.710000
    reduced_to: 91

displacements:
- atom:    1
  displacement:
    [   0.0100000000000000,  0.0000000000000000,  0.0000000000000000 ]
  forces:
  - [  -0.0125504303723574,  0.0006697243079543, -0.0154357403516769 ]
  - [  -0.0007977006025612,  0.0006698877550662, -0.0154074132442474 ]
  - [  -0.0010654305806383,  0.0006697764620185, -0.0154004795476794 ]
  - [  -0.0015843375585973,  0.0006716353818774, -0.0154045298695564 ]
  - [  -0.0012104131747037,  0.0007634949870408, -0.0154043342918158 ]
  - [  -0.0012127642985433,  0.0005791289731860, -0.0154045820236206 ]
  - [  -0.0015843663131818,  0.0006664339452982, -0.0154046341776848 ]
  - [  -0.0012105720816180,  0.0005754297599196, -0.0154043240472674 ]
  - [  -0.0012125076027587,  0.0007590493187308, -0.0154044926166534 ]
  - [  -0.0013000197941437,  0.0006698668003082, -0.0153689468279481 ]
  - [  -0.0013195269275457,  0.0006705005653203, -0.0154218003153801 ]
  - [  -0.0013182112015784,  0.0006705695996061, -0.0154235800728202 ]
  - [  -0.0013161194510758,  0.0006696758791804, -0.0153937209397554 ]
  - [  -0.0013112006708980,  0.0006628962000832, -0.0154104502871633 ]
  - [  -0.0013114848406985,  0.0006766790756956, -0.0154111832380295 ]
  - [  -0.0013161054812372,  0.0006692577153444, -0.0153941493481398 ]
  - [  -0.0013115291949362,  0.0006761068943888, -0.0154109373688698 ]
  - [  -0.0013115236070007,  0.0006626517861150, -0.0154116619378328 ]
  - [  -0.0006616741884500, -0.0002030864270637,  0.0096212113276124 ]
  - [   0.0004711383371614, -0.0003928714140784,  0.0098042963072658 ]
  - [   0.0004677745746449, -0.0000195377069758,  0.0094422837719321 ]
  - [  -0.0006596643943340, -0.0002079957484966,  0.0096211377531290 ]
  - [   0.0004712263471447, -0.0000198613051907,  0.0098041528835893 ]
  - [   0.0004675235832110, -0.0003933921107091,  0.0094427838921547 ]
  - [   0.0000878793653101, -0.0002044994616881,  0.0096236849203706 ]
  - [   0.0000580829364480, -0.0002056956873275,  0.0096082752570510 ]
  - [   0.0000564851943636, -0.0002059774124064,  0.0096376203000546 ]
  - [   0.0000901279126992, -0.0003975650761276,  0.0094393054023385 ]
  - [   0.0000275787897408, -0.0002071025082842,  0.0096242371946573 ]
  - [   0.0000945590436459, -0.0000110187029350,  0.0098059922456741 ]
  - [   0.0000911538445507, -0.0000155762973009,  0.0094385351985693 ]
  - [   0.0000274623744190, -0.0002055882359855,  0.0096232714131474 ]
  - [   0.0000940123572946, -0.0003960049652960,  0.0098049379885197 ]
  - [   0.0000643119274173, -0.0002051605260931,  0.0096348598599434 ]
  - [   0.0000754995271564, -0.0002054915821645,  0.0096233198419213 ]
  - [   0.0000624898821115, -0.0002039534883806,  0.0096098985522985 ]
  - [  -0.0024254135787487,  0.0009361281991005, -0.0067608226090670 ]
  - [  -0.0020474453922361,  0.0009362706914544, -0.0066557852551341 ]
  - [  -0.0020523695275187,  0.0009356969967484, -0.0068595507182181 ]
  - [  -0.0021339096128941,  0.0009368835017085, -0.0067609641700983 ]
  - [  -0.0021703292150050,  0.0009130663238466, -0.0067785913124681 ]
  - [  -0.0021709664724767,  0.0009567909874022, -0.0067396098747849 ]
  - [  -0.0021347021684051,  0.0009343000128865, -0.0067607937380672 ]
  - [  -0.0021702318917960,  0.0009585414081812, -0.0067783384583890 ]
  - [  -0.0021704910323024,  0.0009132935665548, -0.0067394450306892 ]
  - [  -0.0007998268119991,  0.0009374604560435, -0.0084068141877651 ]
  - [  -0.0022655481006950,  0.0009360341355205, -0.0067607099190354 ]
  - [  -0.0008419356308877,  0.0009349151514471, -0.0051655508577824 ]
  - [  -0.0021324513945729,  0.0011211871169508, -0.0069507877342403 ]
  - [  -0.0021938006393611,  0.0009372876957059, -0.0067600682377815 ]
  - [  -0.0021321102976799,  0.0007528252899647, -0.0065695727244020 ]
  - [  -0.0021325673442334,  0.0007513421587646, -0.0069517833180726 ]
  - [  -0.0021943133324385,  0.0009352026972920, -0.0067608077079058 ]
  - [  -0.0021320271771401,  0.0011203284375370, -0.0065704016014934 ]
  - [   0.0024265472311527,  0.0005992447258905,  0.0213746745139360 ]
  - [   0.0007842701743357,  0.0005987796466798,  0.0195432081818581 ]
  - [   0.0023555506486446,  0.0005978835397400,  0.0178006626665592 ]
  - [   0.0009195358725265,  0.0007833390263841,  0.0197359565645456 ]
  - [   0.0008578470442444,  0.0005998858250678,  0.0195443779230118 ]
  - [   0.0009201393113472,  0.0004152221663389,  0.0193545073270798 ]
  - [   0.0009193122386932,  0.0004141087702010,  0.0197364874184132 ]
  - [   0.0008576955879107,  0.0005971684586257,  0.0195450540632010 ]
  - [   0.0009207114344463,  0.0007823539199308,  0.0193551890552044 ]
  - [   0.0009973312262446,  0.0005992585793138,  0.0194474048912525 ]
  - [   0.0009970641694963,  0.0005992422811687,  0.0196406692266464 ]
  - [   0.0006261524395086,  0.0005989382043481,  0.0195444319397211 ]
  - [   0.0008826713310555,  0.0005775266326964,  0.0195647217333317 ]
  - [   0.0008819809881970,  0.0006213937886059,  0.0195265579968691 ]
  - [   0.0009172839345410,  0.0005972692742944,  0.0195447579026222 ]
  - [   0.0008824146352708,  0.0006191511638463,  0.0195646341890097 ]
  - [   0.0008813187596388,  0.0005754325538874,  0.0195266604423523 ]
  - [   0.0009182430221699,  0.0005997023545206,  0.0195448640733957 ]
  - [   0.0022764531895518, -0.0016977884806693, -0.0016888849204406 ]
  - [   0.0008637141436338, -0.0000795069718151, -0.0016740120481700 ]
  - [   0.0022122007794678,  0.0014595473185182, -0.0016621331451461 ]
  - [   0.0022745677269995,  0.0015337353106588, -0.0016901870258152 ]
  - [   0.0008637155406177, -0.0000816633764771, -0.0016741013387218 ]
  - [   0.0022106403484941, -0.0016186849679798, -0.0016606438439339 ]
  - [   0.0009863818995655, -0.0000818702610559, -0.0016746844630688 ]
  - [   0.0009414767846465, -0.0000817955224193, -0.0016745121683925 ]
  - [   0.0009855665266514, -0.0000820681161713, -0.0016749845817685 ]
  - [   0.0009764985297807, -0.0000734796340112, -0.0016626780852675 ]
  - [   0.0009612728026696, -0.0000814823288238, -0.0017019240185618 ]
  - [   0.0009769336320460, -0.0000883243337739, -0.0016618408262730 ]
  - [   0.0009768272284418, -0.0000878378559719, -0.0016625592252240 ]
  - [   0.0009613496367820, -0.0000816238389234, -0.0017019716324285 ]
  - [   0.0009766989387572, -0.0000750745384721, -0.0016614515334368 ]
  - [   0.0009708650177345, -0.0000809657794889, -0.0016784644685686 ]
  - [   0.0009726102580316, -0.0000815814491943, -0.0016685912851244 ]
  - [   0.0009709168807603, -0.0000814982267912, -0.0016787499189377 ]
  - [   0.0015628314577043, -0.0021123741753399, -0.0051428154110909 ]
  - [   0.0014960702974349, -0.0019157448550686, -0.0053274845704436 ]
  - [   0.0015605720691383, -0.0017235865816474, -0.0055160252377391 ]
  - [   0.0015623617218807, -0.0017236000858247, -0.0051427171565592 ]
  - [   0.0014960801927373, -0.0019180427771062, -0.0053267702460289 ]
  - [   0.0015609639231116, -0.0021102477330714, -0.0055150482803583 ]
  - [   0.0015319045633078, -0.0019176751375198, -0.0053420439362526 ]
  - [   0.0015440532006323, -0.0019165587145835, -0.0053281253203750 ]
  - [   0.0015336214564741, -0.0019158406648785, -0.0053151799365878 ]
  - [   0.0019368631765246, -0.0021008837502450, -0.0055090989917517 ]
  - [   0.0019334368407726, -0.0017348746769130, -0.0051483800634742 ]
  - [   0.0008265441283584, -0.0019144157413393, -0.0053247483447194 ]
  - [   0.0019364554900676, -0.0017340364865959, -0.0055092270486057 ]
  - [   0.0019325307803228, -0.0021016243845224, -0.0051479875110090 ]
  - [   0.0008297750027850, -0.0019220607355237, -0.0053251376375556 ]
  - [   0.0015271436423063, -0.0019169738516212, -0.0053130825981498 ]
  - [   0.0015262952074409, -0.0019174683839083, -0.0053427126258612 ]
  - [   0.0015564262866974, -0.0019178576767445, -0.0053283143788576 ]
- atom:    1
  displacement:
    [  -0.0100000000000000,  0.0000000000000000,  0.0000000000000000 ]
  forces:
  - [   0.0099250487983227,  0.0006704195402563, -0.0153822507709265 ]
  - [  -0.0015609153779224,  0.0006699138320982, -0.0154008520767093 ]
  - [  -0.0018291764426976,  0.0006698914803565, -0.0154079757630825 ]
  - [  -0.0010416971053928,  0.0006700931116939, -0.0154045056551695 ]
  - [  -0.0014137363759801,  0.0005794311873615, -0.0154044236987829 ]
  - [  -0.0014157886616886,  0.0007626730948687, -0.0154046015813947 ]
  - [  -0.0010418175952509,  0.0006685145199299, -0.0154045335948467 ]
  - [  -0.0014136806130409,  0.0007590432651341, -0.0154045466333628 ]
  - [  -0.0014157057739794,  0.0005756183527410, -0.0154045624658465 ]
  - [  -0.0013261127751321,  0.0006700917147100, -0.0154415816068649 ]
  - [  -0.0013062937650830,  0.0006705036503263, -0.0153887635096908 ]
  - [  -0.0013051764108241,  0.0006704094703309, -0.0153840500861406 ]
  - [  -0.0013101299991831,  0.0006696945056319, -0.0154165662825108 ]
  - [  -0.0013142524985597,  0.0006767775630578, -0.0153989717364311 ]
  - [  -0.0013145918492228,  0.0006630151765421, -0.0153996441513300 ]
  - [  -0.0013101681834087,  0.0006691552698612, -0.0154169602319598 ]
  - [  -0.0013144277036190,  0.0006622466025874, -0.0153994625434279 ]
  - [  -0.0013146332930773,  0.0006765893194824, -0.0153998062014580 ]
  - [   0.0007953953463584, -0.0002040872350335,  0.0096220392733812 ]
  - [  -0.0003332042542752, -0.0000185819881153,  0.0094421273097396 ]
  - [  -0.0003341693372931, -0.0003923673357349,  0.0098041156306863 ]
  - [   0.0007944342214614, -0.0002077979443129,  0.0096213184297085 ]
  - [  -0.0003331516345497, -0.0003942867042497,  0.0094426805153489 ]
  - [  -0.0003341665724292, -0.0000209916252061,  0.0098037067800760 ]
  - [   0.0000472853425890, -0.0002044177526841,  0.0096230478957295 ]
  - [   0.0000781822891440, -0.0002053166099358,  0.0096379909664392 ]
  - [   0.0000769016478444, -0.0002060901315417,  0.0096085797995329 ]
  - [   0.0000433090899605, -0.0000150867927005,  0.0098056420683861 ]
  - [   0.0001070601865649, -0.0002046315785265,  0.0096217095851898 ]
  - [   0.0000416026450694, -0.0003964224597439,  0.0094414371997118 ]
  - [   0.0000441156589659, -0.0003975761937909,  0.0098042013123631 ]
  - [   0.0001072050072253, -0.0002082742721541,  0.0096206488087773 ]
  - [   0.0000416678376496, -0.0000112894558697,  0.0094407908618450 ]
  - [   0.0000709502273821, -0.0002051277406281,  0.0096089048311114 ]
  - [   0.0000599157065153, -0.0002054963697447,  0.0096223568543792 ]
  - [   0.0000715171918273, -0.0002038876700681,  0.0096363928169012 ]
  - [  -0.0018891445361078,  0.0009359619580209, -0.0067594209685922 ]
  - [  -0.0022658044472337,  0.0009360723197460, -0.0068615935742855 ]
  - [  -0.0022654293570668,  0.0009359274990857, -0.0066553493961692 ]
  - [  -0.0021802410483360,  0.0009345249272883, -0.0067595667205751 ]
  - [  -0.0021438070107251,  0.0009588547982275, -0.0067409058101475 ]
  - [  -0.0021450540516526,  0.0009133014827967, -0.0067789116874337 ]
  - [  -0.0021805465221405,  0.0009366427548230, -0.0067595355212688 ]
  - [  -0.0021440240088850,  0.0009128483943641, -0.0067404094152153 ]
  - [  -0.0021447555627674,  0.0009569278918207, -0.0067787948064506 ]
  - [  -0.0034666662104428,  0.0009347475133836, -0.0051738475449383 ]
  - [  -0.0020483417902142,  0.0009360411204398, -0.0067586591467261 ]
  - [  -0.0035203699953854,  0.0009375866502523, -0.0084147714078426 ]
  - [  -0.0021826154552400,  0.0007523535750806, -0.0065699424594641 ]
  - [  -0.0021196994930506,  0.0009372052736580, -0.0067595811560750 ]
  - [  -0.0021815903019160,  0.0011215792037547, -0.0069506210274994 ]
  - [  -0.0021821851842105,  0.0011201160959899, -0.0065707173198462 ]
  - [  -0.0021202412899584,  0.0009352978086099, -0.0067604165524244 ]
  - [  -0.0021813730709255,  0.0007513314485550, -0.0069516347721219 ]