# Thermal properties / unit cell (natom)

unit:
  temperature:   K
  free_energy:   kJ/mol
  entropy:       J/K/mol
  heat_capacity: J/K/mol

natom: 8    
cutoff_frequency: 0.00000
num_modes: 139656
num_integrated_modes: 98201

zero_point_energy:       5.3470014

thermal_properties:
- temperature:         0.0000000
  free_energy:         5.3470014
  entropy:             0.0000000
  heat_capacity:       0.0000000
  energy:              5.3470014

- temperature:        10.0000000
  free_energy:         5.3172381
  entropy:             8.7981642
  heat_capacity:      17.1216014
  energy:              5.4052197

- temperature:        20.0000000
  free_energy:         5.1225707
  entropy:            31.7880734
  heat_capacity:      54.0568174
  energy:              5.7583321

- temperature:        30.0000000
  free_energy:         4.6653061
  entropy:            59.8160734
  heat_capacity:      84.1371516
  energy:              6.4597883

- temperature:        40.0000000
  free_energy:         3.9302122
  entropy:            86.8046872
  heat_capacity:     102.8007025
  energy:              7.4023997

- temperature:        50.0000000
  free_energy:         2.9384891
  entropy:           111.0571777
  heat_capacity:     114.0732804
  energy:              8.4913480

- temperature:        60.0000000
  free_energy:         1.7183803
  entropy:           132.5266591
  heat_capacity:     121.1326379
  energy:              9.6699798

- temperature:        70.0000000
  free_energy:         0.2960419
  entropy:           151.5707001
  heat_capacity:     125.7630133
  energy:             10.9059909

- temperature:        80.0000000
  free_energy:        -1.3062700
  entropy:           168.5836360
  heat_capacity:     128.9341100
  energy:             12.1804209

- temperature:        90.0000000
  free_energy:        -3.0700069
  entropy:           183.9072026
  heat_capacity:     131.1885162
  energy:             13.4816413

- temperature:       100.0000000
  free_energy:        -4.9797150
  entropy:           197.8191939
  heat_capacity:     132.8429256
  energy:             14.8022044

- temperature:       110.0000000
  free_energy:        -7.0224306
  entropy:           210.5416433
  heat_capacity:     134.0901688
  energy:             16.1371502

- temperature:       120.0000000
  free_energy:        -9.1871781
  entropy:           222.2519996
  heat_capacity:     135.0522964
  energy:             17.4830619

- temperature:       130.0000000
  free_energy:       -11.4645757
  entropy:           233.0930058
  heat_capacity:     135.8092680
  energy:             18.8375151

- temperature:       140.0000000
  free_energy:       -13.8465289
  entropy:           243.1805290
  heat_capacity:     136.4150845
  energy:             20.1987452

- temperature:       150.0000000
  free_energy:       -16.3259930
  entropy:           252.6095467
  heat_capacity:     136.9072044
  energy:             21.5654390

- temperature:       160.0000000
  free_energy:       -18.8967883
  entropy:           261.4586752
  heat_capacity:     137.3122328
  energy:             22.9365998

- temperature:       170.0000000
  free_energy:       -21.5534537
  entropy:           269.7935991
  heat_capacity:     137.6494660
  energy:             24.3114582

- temperature:       180.0000000
  free_energy:       -24.2911317
  entropy:           277.6696818
  heat_capacity:     137.9331629
  energy:             25.6894110

- temperature:       190.0000000
  free_energy:       -27.1054754
  entropy:           285.1339704
  heat_capacity:     138.1740375
  energy:             27.0699790

- temperature:       200.0000000
  free_energy:       -29.9925734
  entropy:           292.2267492
  heat_capacity:     138.3802620
  energy:             28.4527765

- temperature:       210.0000000
  free_energy:       -32.9488883
  entropy:           298.9827535
  heat_capacity:     138.5581548
  energy:             29.8374899

- temperature:       220.0000000
  free_energy:       -35.9712068
  entropy:           305.4321295
  heat_capacity:     138.7126617
  energy:             31.2238617

- temperature:       230.0000000
  free_energy:       -39.0565969
  entropy:           311.6011967
  heat_capacity:     138.8476978
  energy:             32.6116783

- temperature:       240.0000000
  free_energy:       -42.2023737
  entropy:           317.5130622
  heat_capacity:     138.9663937
  energy:             34.0007613

- temperature:       250.0000000
  free_energy:       -45.4060690
  entropy:           323.1881170
  heat_capacity:     139.0712772
  energy:             35.3909602

- temperature:       260.0000000
  free_energy:       -48.6654071
  entropy:           328.6444415
  heat_capacity:     139.1644062
  energy:             36.7821477

- temperature:       270.0000000
  free_energy:       -51.9782826
  entropy:           333.8981387
  heat_capacity:     139.2474702
  energy:             38.1742148

- temperature:       280.0000000
  free_energy:       -55.3427426
  entropy:           338.9636102
  heat_capacity:     139.3218663
  energy:             39.5670682

- temperature:       290.0000000
  free_energy:       -58.7569707
  entropy:           343.8537856
  heat_capacity:     139.3887576
  energy:             40.9606272

- temperature:       300.0000000
  free_energy:       -62.2192730
  entropy:           348.5803154
  heat_capacity:     139.4491191
  energy:             42.3548216

- temperature:       310.0000000
  free_energy:       -65.7280667
  entropy:           353.1537330
  heat_capacity:     139.5037723
  energy:             43.7495905

- temperature:       320.0000000
  free_energy:       -69.2818692
  entropy:           357.5835925
  heat_capacity:     139.5534139
  energy:             45.1448804

- temperature:       330.0000000
  free_energy:       -72.8792891
  entropy:           361.8785854
  heat_capacity:     139.5986377
  energy:             46.5406441

- temperature:       340.0000000
  free_energy:       -76.5190179
  entropy:           366.0466411
  heat_capacity:     139.6399520
  energy:             47.9368401

- temperature:       350.0000000
  free_energy:       -80.1998230
  entropy:           370.0950131
  heat_capacity:     139.6777942
  energy:             49.3334316

- temperature:       360.0000000
  free_energy:       -83.9205414
  entropy:           374.0303531
  heat_capacity:     139.7125424
  energy:             50.7303857

- temperature:       370.0000000
  free_energy:       -87.6800737
  entropy:           377.8587755
  heat_capacity:     139.7445244
  energy:             52.1276732

- temperature:       380.0000000
  free_energy:       -91.4773794
  entropy:           381.5859139
  heat_capacity:     139.7740260
  energy:             53.5252679

- temperature:       390.0000000
  free_energy:       -95.3114718
  entropy:           385.2169694
  heat_capacity:     139.8012969
  energy:             54.9231463

- temperature:       400.0000000
  free_energy:       -99.1814146
  entropy:           388.7567542
  heat_capacity:     139.8265562
  energy:             56.3212871

- temperature:       410.0000000
  free_energy:      -103.0863175
  entropy:           392.2097290
  heat_capacity:     139.8499970
  energy:             57.7196713

- temperature:       420.0000000
  free_energy:      -107.0253336
  entropy:           395.5800362
  heat_capacity:     139.8717894
  energy:             59.1182816

- temperature:       430.0000000
  free_energy:      -110.9976556
  entropy:           398.8715296
  heat_capacity:     139.8920844
  energy:             60.5171021

- temperature:       440.0000000
  free_energy:      -115.0025135
  entropy:           402.0878005
  heat_capacity:     139.9110159
  energy:             61.9161187

- temperature:       450.0000000
  free_energy:      -119.0391720
  entropy:           405.2322008
  heat_capacity:     139.9287034
  energy:             63.3153183

- temperature:       460.0000000
  free_energy:      -123.1069284
  entropy:           408.3078639
  heat_capacity:     139.9452534
  energy:             64.7146890

- temperature:       470.0000000
  free_energy:      -127.2051100
  entropy:           411.3177232
  heat_capacity:     139.9607613
  energy:             66.1142199

- temperature:       480.0000000
  free_energy:      -131.3330727
  entropy:           414.2645286
  heat_capacity:     139.9753128
  energy:             67.5139011

- temperature:       490.0000000
  free_energy:      -135.4901990
  entropy:           417.1508617
  heat_capacity:     139.9889849
  energy:             68.9137232

- temperature:       500.0000000
  free_energy:      -139.6758965
  entropy:           419.9791490
  heat_capacity:     140.0018469
  energy:             70.3136780

- temperature:       510.0000000
  free_energy:      -143.8895961
  entropy:           422.7516742
  heat_capacity:     140.0139617
  energy:             71.7137577

- temperature:       520.0000000
  free_energy:      -148.1307513
  entropy:           425.4705889
  heat_capacity:     140.0253858
  energy:             73.1139550

- temperature:       530.0000000
  free_energy:      -152.3988360
  entropy:           428.1379231
  heat_capacity:     140.0361710
  energy:             74.5142633

- temperature:       540.0000000
  free_energy:      -156.6933442
  entropy:           430.7555937
  heat_capacity:     140.0463638
  energy:             75.9146764

- temperature:       550.0000000
  free_energy:      -161.0137884
  entropy:           433.3254129
  heat_capacity:     140.0560069
  energy:             77.3151887

- temperature:       560.0000000
  free_energy:      -165.3596987
  entropy:           435.8490956
  heat_capacity:     140.0651390
  energy:             78.7157949

- temperature:       570.0000000
  free_energy:      -169.7306219
  entropy:           438.3282664
  heat_capacity:     140.0737957
  energy:             80.1164899

- temperature:       580.0000000
  free_energy:      -174.1261208
  entropy:           440.7644656
  heat_capacity:     140.0820094
  energy:             81.5172693

- temperature:       590.0000000
  free_energy:      -178.5457729
  entropy:           443.1591553
  heat_capacity:     140.0898097
  energy:             82.9181287

- temperature:       600.0000000
  free_energy:      -182.9891701
  entropy:           445.5137239
  heat_capacity:     140.0972239
  energy:             84.3190642

- temperature:       610.0000000
  free_energy:      -187.4559180
  entropy:           447.8294918
  heat_capacity:     140.1042772
  energy:             85.7200720

- temperature:       620.0000000
  free_energy:      -191.9456348
  entropy:           450.1077153
  heat_capacity:     140.1109924
  energy:             87.1211486

- temperature:       630.0000000
  free_energy:      -196.4579512
  entropy:           452.3495904
  heat_capacity:     140.1173910
  energy:             88.5222908

- temperature:       640.0000000
  free_energy:      -200.9925093
  entropy:           454.5562574
  heat_capacity:     140.1234924
  energy:             89.9234955

- temperature:       650.0000000
  free_energy:      -205.5489626
  entropy:           456.7288035
  heat_capacity:     140.1293148
  energy:             91.3247597

- temperature:       660.0000000
  free_energy:      -210.1269751
  entropy:           458.8682666
  heat_capacity:     140.1348750
  energy:             92.7260809

- temperature:       670.0000000
  free_energy:      -214.7262210
  entropy:           460.9756378
  heat_capacity:     140.1401884
  energy:             94.1274564

- temperature:       680.0000000
  free_energy:      -219.3463840
  entropy:           463.0518646
  heat_capacity:     140.1452694
  energy:             95.5288839

- temperature:       690.0000000
  free_energy:      -223.9871575
  entropy:           465.0978529
  heat_capacity:     140.1501315
  energy:             96.9303610

- temperature:       700.0000000
  free_energy:      -228.6482432
  entropy:           467.1144700
  heat_capacity:     140.1547869
  energy:             98.3318858

- temperature:       710.0000000
  free_energy:      -233.3293517
  entropy:           469.1025463
  heat_capacity:     140.1592472
  energy:             99.7334561

- temperature:       720.0000000
  free_energy:      -238.0302016
  entropy:           471.0628775
  heat_capacity:     140.1635233
  energy:            101.1350701

- temperature:       730.0000000
  free_energy:      -242.7505193
  entropy:           472.9962265
  heat_capacity:     140.1676250
  energy:            102.5367260

- temperature:       740.0000000
  free_energy:      -247.4900387
  entropy:           474.9033254
  heat_capacity:     140.1715617
  energy:            103.9384221

- temperature:       750.0000000
  free_energy:      -252.2485007
  entropy:           476.7848766
  heat_capacity:     140.1753422
  energy:            105.3401567

- temperature:       760.0000000
  free_energy:      -257.0256533
  entropy:           478.6415549
  heat_capacity:     140.1789746
  energy:            106.7419284

- temperature:       770.0000000
  free_energy:      -261.8212510
  entropy:           480.4740088
  heat_capacity:     140.1824666
  energy:            108.1437358

- temperature:       780.0000000
  free_energy:      -266.6350548
  entropy:           482.2828617
  heat_capacity:     140.1858253
  energy:            109.5455773

- temperature:       790.0000000
  free_energy:      -271.4668316
  entropy:           484.0687132
  heat_capacity:     140.1890574
  energy:            110.9474518

- temperature:       800.0000000
  free_energy:      -276.3163543
  entropy:           485.8321405
  heat_capacity:     140.1921691
  energy:            112.3493581

- temperature:       810.0000000
  free_energy:      -281.1834015
  entropy:           487.5736992
  heat_capacity:     140.1951664
  energy:            113.7512948

- temperature:       820.0000000
  free_energy:      -286.0677572
  entropy:           489.2939247
  heat_capacity:     140.1980548
  energy:            115.1532610

- temperature:       830.0000000
  free_energy:      -290.9692106
  entropy:           490.9933328
  heat_capacity:     140.2008396
  energy:            116.5552556

- temperature:       840.0000000
  free_energy:      -295.8875561
  entropy:           492.6724210
  heat_capacity:     140.2035256
  energy:            117.9572775

- temperature:       850.0000000
  free_energy:      -300.8225929
  entropy:           494.3316691
  heat_capacity:     140.2061174
  energy:            119.3593258

- temperature:       860.0000000
  free_energy:      -305.7741249
  entropy:           495.9715401
  heat_capacity:     140.2086194
  energy:            120.7613995

- temperature:       870.0000000
  free_energy:      -310.7419606
  entropy:           497.5924811
  heat_capacity:     140.2110357
  energy:            122.1634979

- temperature:       880.0000000
  free_energy:      -315.7259129
  entropy:           499.1949237
  heat_capacity:     140.2133702
  energy:            123.5656200

- temperature:       890.0000000
  free_energy:      -320.7257988
  entropy:           500.7792852
  heat_capacity:     140.2156265
  energy:            124.9677650

- temperature:       900.0000000
  free_energy:      -325.7414397
  entropy:           502.3459688
  heat_capacity:     140.2178080
  energy:            126.3699323

- temperature:       910.0000000
  free_energy:      -330.7726606
  entropy:           503.8953643
  heat_capacity:     140.2199181
  energy:            127.7721210

- temperature:       920.0000000
  free_energy:      -335.8192906
  entropy:           505.4278489
  heat_capacity:     140.2219598
  energy:            129.1743304

- temperature:       930.0000000
  free_energy:      -340.8811624
  entropy:           506.9437875
  heat_capacity:     140.2239361
  energy:            130.5765599

- temperature:       940.0000000
  free_energy:      -345.9581124
  entropy:           508.4435333
  heat_capacity:     140.2258496
  energy:            131.9788089

- temperature:       950.0000000
  free_energy:      -351.0499802
  entropy:           509.9274284
  heat_capacity:     140.2277031
  energy:            133.3810767

- temperature:       960.0000000
  free_energy:      -356.1566092
  entropy:           511.3958041
  heat_capacity:     140.2294990
  energy:            134.7833628

- temperature:       970.0000000
  free_energy:      -361.2778457
  entropy:           512.8489816
  heat_capacity:     140.2312397
  energy:            136.1856665

- temperature:       980.0000000
  free_energy:      -366.4135392
  entropy:           514.2872721
  heat_capacity:     140.2329275
  energy:            137.5879874

- temperature:       990.0000000
  free_energy:      -371.5635425
  entropy:           515.7109772
  heat_capacity:     140.2345643
  energy:            138.9903249

- temperature:      1000.0000000
  free_energy:      -376.7277111
  entropy:           517.1203896
  heat_capacity:     140.2361523
  energy:            140.3926785
