phonopy:
  version: "2.37.1"
  frequency_unit_conversion_factor: 15.633302
  symmetry_tolerance: 1.00000e-05

space_group:
  type: "P1"
  number: 1
  Hall_symbol: "P 1"

primitive_matrix:
- [  1.000000000000000,  1.000000000000000,  0.000000000000000 ]
- [  1.000000000000000,  0.000000000000000,  0.000000000000000 ]
- [  0.000000000000000,  0.000000000000000, -1.000000000000000 ]

supercell_matrix:
- [   3,   0,   0 ]
- [   0,   3,   0 ]
- [   0,   0,   1 ]

primitive_cell:
  lattice:
  - [     2.258675871594615,     3.915179311123624,     0.000000000000000 ] # a
  - [     4.520209628092184,     0.000000000000000,     0.000000000000000 ] # b
  - [     0.000801955116479,     0.008851689985656,   -10.182521802211214 ] # c
  points:
  - symbol: Li # 1
    coordinates: [  0.705324566036672,  0.562964720452214,  0.948937262178129 ]
    mass: 6.940000
  - symbol: Li # 2
    coordinates: [  0.704977333023297,  0.564113561573586,  0.296510025983561 ]
    mass: 6.940000
  - symbol: Li # 3
    coordinates: [  0.704284774008994,  0.564475192114401,  0.602570477876969 ]
    mass: 6.940000
  - symbol: Ga # 4
    coordinates: [  0.371753260028789,  0.230362876038429,  0.820397350916239 ]
    mass: 69.723000
  - symbol: Ga # 5
    coordinates: [  0.371877485060702,  0.230111728490446,  0.077867113786234 ]
    mass: 69.723000
  - symbol: Ga # 6
    coordinates: [  0.372054434395584,  0.229864737709590,  0.447308896842084 ]
    mass: 69.723000
  - symbol: Ga # 7
    coordinates: [  0.038567378018074,  0.896836096278053,  0.450289586254665 ]
    mass: 69.723000
  - symbol: Sn # 8
    coordinates: [  0.038283856329750,  0.897362795740944,  0.159141699155090 ]
    mass: 118.710000
  - symbol: Sn # 9
    coordinates: [  0.038149573271133,  0.897193543557270,  0.739903950662682 ]
    mass: 118.710000
  reciprocal_lattice: # without 2pi
  - [     0.000000000000000,     0.255416143306348,     0.000222033849944 ] # a*
  - [     0.221228677932369,    -0.127627328723091,    -0.000093523205339 ] # b*
  - [     0.000000000000000,     0.000000000000000,    -0.098207499028663 ] # c*

unit_cell:
  lattice:
  - [     4.520209628092185,     0.000000000000000,     0.000000000000000 ] # a
  - [    -2.261533756497569,     3.915179311123624,     0.000000000000000 ] # b
  - [    -0.000801955116479,    -0.008851689985656,    10.182521802211213 ] # c
  points:
  - symbol: Li # 1
    coordinates: [  0.268289286488886,  0.705324566036672,  0.051062737821871 ]
    mass: 6.940000
    reduced_to: 1
  - symbol: Li # 2
    coordinates: [  0.269090894596884,  0.704977333023297,  0.703489974016439 ]
    mass: 6.940000
    reduced_to: 2
  - symbol: Li # 3
    coordinates: [  0.268759966123396,  0.704284774008994,  0.397429522123031 ]
    mass: 6.940000
    reduced_to: 3
  - symbol: Ga # 4
    coordinates: [  0.602116136067219,  0.371753260028789,  0.179602649083761 ]
    mass: 69.723000
    reduced_to: 4
  - symbol: Ga # 5
    coordinates: [  0.601989213551147,  0.371877485060702,  0.922132886213766 ]
    mass: 69.723000
    reduced_to: 5
  - symbol: Ga # 6
    coordinates: [  0.601919172105174,  0.372054434395584,  0.552691103157916 ]
    mass: 69.723000
    reduced_to: 6
  - symbol: Ga # 7
    coordinates: [  0.935403474296127,  0.038567378018074,  0.549710413745335 ]
    mass: 69.723000
    reduced_to: 7
  - symbol: Sn # 8
    coordinates: [  0.935646652070694,  0.038283856329750,  0.840858300844911 ]
    mass: 118.710000
    reduced_to: 8
  - symbol: Sn # 9
    coordinates: [  0.935343116828402,  0.038149573271133,  0.260096049337318 ]
    mass: 118.710000
    reduced_to: 9

supercell:
  lattice:
  - [    13.560628884276554,     0.000000000000000,     0.000000000000000 ] # a
  - [    -6.784601269492708,    11.745537933370873,     0.000000000000000 ] # b
  - [    -0.000801955116479,    -0.008851689985656,    10.182521802211213 ] # c
  points:
  - symbol: Li # 1
    coordinates: [  0.089429762162962,  0.235108188678891,  0.051062737821871 ]
    mass: 6.940000
    reduced_to: 1
  - symbol: Li # 2
    coordinates: [  0.422763095496295,  0.235108188678891,  0.051062737821871 ]
    mass: 6.940000
    reduced_to: 1
  - symbol: Li # 3
    coordinates: [  0.756096428829629,  0.235108188678891,  0.051062737821871 ]
    mass: 6.940000
    reduced_to: 1
  - symbol: Li # 4
    coordinates: [  0.089429762162962,  0.568441522012224,  0.051062737821871 ]
    mass: 6.940000
    reduced_to: 1
  - symbol: Li # 5
    coordinates: [  0.422763095496295,  0.568441522012224,  0.051062737821871 ]
    mass: 6.940000
    reduced_to: 1
  - symbol: Li # 6
    coordinates: [  0.756096428829629,  0.568441522012224,  0.051062737821871 ]
    mass: 6.940000
    reduced_to: 1
  - symbol: Li # 7
    coordinates: [  0.089429762162962,  0.901774855345557,  0.051062737821871 ]
    mass: 6.940000
    reduced_to: 1
  - symbol: Li # 8
    coordinates: [  0.422763095496295,  0.901774855345557,  0.051062737821871 ]
    mass: 6.940000
    reduced_to: 1
  - symbol: Li # 9
    coordinates: [  0.756096428829629,  0.901774855345557,  0.051062737821871 ]
    mass: 6.940000
    reduced_to: 1
  - symbol: Li # 10
    coordinates: [  0.089696964865628,  0.234992444341099,  0.703489974016439 ]
    mass: 6.940000
    reduced_to: 10
  - symbol: Li # 11
    coordinates: [  0.423030298198961,  0.234992444341099,  0.703489974016439 ]
    mass: 6.940000
    reduced_to: 10
  - symbol: Li # 12
    coordinates: [  0.756363631532294,  0.234992444341099,  0.703489974016439 ]
    mass: 6.940000
    reduced_to: 10
  - symbol: Li # 13
    coordinates: [  0.089696964865628,  0.568325777674432,  0.703489974016439 ]
    mass: 6.940000
    reduced_to: 10
  - symbol: Li # 14
    coordinates: [  0.423030298198961,  0.568325777674432,  0.703489974016439 ]
    mass: 6.940000
    reduced_to: 10
  - symbol: Li # 15
    coordinates: [  0.756363631532294,  0.568325777674432,  0.703489974016439 ]
    mass: 6.940000
    reduced_to: 10
  - symbol: Li # 16
    coordinates: [  0.089696964865628,  0.901659111007766,  0.703489974016439 ]
    mass: 6.940000
    reduced_to: 10
  - symbol: Li # 17
    coordinates: [  0.423030298198961,  0.901659111007766,  0.703489974016439 ]
    mass: 6.940000
    reduced_to: 10
  - symbol: Li # 18
    coordinates: [  0.756363631532294,  0.901659111007766,  0.703489974016439 ]
    mass: 6.940000
    reduced_to: 10
  - symbol: Li # 19
    coordinates: [  0.089586655374465,  0.234761591336331,  0.397429522123031 ]
    mass: 6.940000
    reduced_to: 19
  - symbol: Li # 20
    coordinates: [  0.422919988707798,  0.234761591336331,  0.397429522123031 ]
    mass: 6.940000
    reduced_to: 19
  - symbol: Li # 21
    coordinates: [  0.756253322041132,  0.234761591336331,  0.397429522123031 ]
    mass: 6.940000
    reduced_to: 19
  - symbol: Li # 22
    coordinates: [  0.089586655374465,  0.568094924669665,  0.397429522123031 ]
    mass: 6.940000
    reduced_to: 19
  - symbol: Li # 23
    coordinates: [  0.422919988707798,  0.568094924669665,  0.397429522123031 ]
    mass: 6.940000
    reduced_to: 19
  - symbol: Li # 24
    coordinates: [  0.756253322041132,  0.568094924669665,  0.397429522123031 ]
    mass: 6.940000
    reduced_to: 19
  - symbol: Li # 25
    coordinates: [  0.089586655374465,  0.901428258002998,  0.397429522123031 ]
    mass: 6.940000
    reduced_to: 19
  - symbol: Li # 26
    coordinates: [  0.422919988707798,  0.901428258002998,  0.397429522123031 ]
    mass: 6.940000
    reduced_to: 19
  - symbol: Li # 27
    coordinates: [  0.756253322041132,  0.901428258002998,  0.397429522123031 ]
    mass: 6.940000
    reduced_to: 19
  - symbol: Ga # 28
    coordinates: [  0.200705378689073,  0.123917753342930,  0.179602649083761 ]
    mass: 69.723000
    reduced_to: 28
  - symbol: Ga # 29
    coordinates: [  0.534038712022406,  0.123917753342930,  0.179602649083761 ]
    mass: 69.723000
    reduced_to: 28
  - symbol: Ga # 30
    coordinates: [  0.867372045355739,  0.123917753342930,  0.179602649083761 ]
    mass: 69.723000
    reduced_to: 28
  - symbol: Ga # 31
    coordinates: [  0.200705378689073,  0.457251086676263,  0.179602649083761 ]
    mass: 69.723000
    reduced_to: 28
  - symbol: Ga # 32
    coordinates: [  0.534038712022406,  0.457251086676263,  0.179602649083761 ]
    mass: 69.723000
    reduced_to: 28
  - symbol: Ga # 33
    coordinates: [  0.867372045355739,  0.457251086676263,  0.179602649083761 ]
    mass: 69.723000
    reduced_to: 28
  - symbol: Ga # 34
    coordinates: [  0.200705378689073,  0.790584420009597,  0.179602649083761 ]
    mass: 69.723000
    reduced_to: 28
  - symbol: Ga # 35
    coordinates: [  0.534038712022406,  0.790584420009597,  0.179602649083761 ]
    mass: 69.723000
    reduced_to: 28
  - symbol: Ga # 36
    coordinates: [  0.867372045355739,  0.790584420009597,  0.179602649083761 ]
    mass: 69.723000
    reduced_to: 28
  - symbol: Ga # 37
    coordinates: [  0.200663071183716,  0.123959161686901,  0.922132886213766 ]
    mass: 69.723000
    reduced_to: 37
  - symbol: Ga # 38
    coordinates: [  0.533996404517049,  0.123959161686901,  0.922132886213766 ]
    mass: 69.723000
    reduced_to: 37
  - symbol: Ga # 39
    coordinates: [  0.867329737850382,  0.123959161686901,  0.922132886213766 ]
    mass: 69.723000
    reduced_to: 37
  - symbol: Ga # 40
    coordinates: [  0.200663071183716,  0.457292495020234,  0.922132886213766 ]
    mass: 69.723000
    reduced_to: 37
  - symbol: Ga # 41
    coordinates: [  0.533996404517049,  0.457292495020234,  0.922132886213766 ]
    mass: 69.723000
    reduced_to: 37
  - symbol: Ga # 42
    coordinates: [  0.867329737850382,  0.457292495020234,  0.922132886213766 ]
    mass: 69.723000
    reduced_to: 37
  - symbol: Ga # 43
    coordinates: [  0.200663071183716,  0.790625828353567,  0.922132886213766 ]
    mass: 69.723000
    reduced_to: 37
  - symbol: Ga # 44
    coordinates: [  0.533996404517049,  0.790625828353567,  0.922132886213766 ]
    mass: 69.723000
    reduced_to: 37
  - symbol: Ga # 45
    coordinates: [  0.867329737850382,  0.790625828353567,  0.922132886213766 ]
    mass: 69.723000
    reduced_to: 37
  - symbol: Ga # 46
    coordinates: [  0.200639724035058,  0.124018144798528,  0.552691103157916 ]
    mass: 69.723000
    reduced_to: 46
  - symbol: Ga # 47
    coordinates: [  0.533973057368391,  0.124018144798528,  0.552691103157916 ]
    mass: 69.723000
    reduced_to: 46
  - symbol: Ga # 48
    coordinates: [  0.867306390701725,  0.124018144798528,  0.552691103157916 ]
    mass: 69.723000
    reduced_to: 46
  - symbol: Ga # 49
    coordinates: [  0.200639724035058,  0.457351478131861,  0.552691103157916 ]
    mass: 69.723000
    reduced_to: 46
  - symbol: Ga # 50
    coordinates: [  0.533973057368391,  0.457351478131861,  0.552691103157916 ]
    mass: 69.723000
    reduced_to: 46
  - symbol: Ga # 51
    coordinates: [  0.867306390701725,  0.457351478131861,  0.552691103157916 ]
    mass: 69.723000
    reduced_to: 46
  - symbol: Ga # 52
    coordinates: [  0.200639724035058,  0.790684811465195,  0.552691103157916 ]
    mass: 69.723000
    reduced_to: 46
  - symbol: Ga # 53
    coordinates: [  0.533973057368391,  0.790684811465195,  0.552691103157916 ]
    mass: 69.723000
    reduced_to: 46
  - symbol: Ga # 54
    coordinates: [  0.867306390701725,  0.790684811465195,  0.552691103157916 ]
    mass: 69.723000
    reduced_to: 46
  - symbol: Ga # 55
    coordinates: [  0.311801158098709,  0.012855792672691,  0.549710413745335 ]
    mass: 69.723000
    reduced_to: 55
  - symbol: Ga # 56
    coordinates: [  0.645134491432042,  0.012855792672691,  0.549710413745335 ]
    mass: 69.723000
    reduced_to: 55
  - symbol: Ga # 57
    coordinates: [  0.978467824765376,  0.012855792672691,  0.549710413745335 ]
    mass: 69.723000
    reduced_to: 55
  - symbol: Ga # 58
    coordinates: [  0.311801158098709,  0.346189126006024,  0.549710413745335 ]
    mass: 69.723000
    reduced_to: 55
  - symbol: Ga # 59
    coordinates: [  0.645134491432042,  0.346189126006024,  0.549710413745335 ]
    mass: 69.723000
    reduced_to: 55
  - symbol: Ga # 60
    coordinates: [  0.978467824765376,  0.346189126006024,  0.549710413745335 ]
    mass: 69.723000
    reduced_to: 55
  - symbol: Ga # 61
    coordinates: [  0.311801158098709,  0.679522459339358,  0.549710413745335 ]
    mass: 69.723000
    reduced_to: 55
  - symbol: Ga # 62
    coordinates: [  0.645134491432042,  0.679522459339358,  0.549710413745335 ]
    mass: 69.723000
    reduced_to: 55
  - symbol: Ga # 63
    coordinates: [  0.978467824765376,  0.679522459339358,  0.549710413745335 ]
    mass: 69.723000
    reduced_to: 55
  - symbol: Sn # 64
    coordinates: [  0.311882217356898,  0.012761285443250,  0.840858300844911 ]
    mass: 118.710000
    reduced_to: 64
  - symbol: Sn # 65
    coordinates: [  0.645215550690231,  0.012761285443250,  0.840858300844911 ]
    mass: 118.710000
    reduced_to: 64
  - symbol: Sn # 66
    coordinates: [  0.978548884023565,  0.012761285443250,  0.840858300844911 ]
    mass: 118.710000
    reduced_to: 64
  - symbol: Sn # 67
    coordinates: [  0.311882217356898,  0.346094618776583,  0.840858300844911 ]
    mass: 118.710000
    reduced_to: 64
  - symbol: Sn # 68
    coordinates: [  0.645215550690231,  0.346094618776583,  0.840858300844911 ]
    mass: 118.710000
    reduced_to: 64
  - symbol: Sn # 69
    coordinates: [  0.978548884023565,  0.346094618776583,  0.840858300844911 ]
    mass: 118.710000
    reduced_to: 64
  - symbol: Sn # 70
    coordinates: [  0.311882217356898,  0.679427952109917,  0.840858300844911 ]
    mass: 118.710000
    reduced_to: 64
  - symbol: Sn # 71
    coordinates: [  0.645215550690231,  0.679427952109917,  0.840858300844911 ]
    mass: 118.710000
    reduced_to: 64
  - symbol: Sn # 72
    coordinates: [  0.978548884023565,  0.679427952109917,  0.840858300844911 ]
    mass: 118.710000
    reduced_to: 64
  - symbol: Sn # 73
    coordinates: [  0.311781038942801,  0.012716524423711,  0.260096049337318 ]
    mass: 118.710000
    reduced_to: 73
  - symbol: Sn # 74
    coordinates: [  0.645114372276134,  0.012716524423711,  0.260096049337318 ]
    mass: 118.710000
    reduced_to: 73
  - symbol: Sn # 75
    coordinates: [  0.978447705609467,  0.012716524423711,  0.260096049337318 ]
    mass: 118.710000
    reduced_to: 73
  - symbol: Sn # 76
    coordinates: [  0.311781038942801,  0.346049857757044,  0.260096049337318 ]
    mass: 118.710000
    reduced_to: 73
  - symbol: Sn # 77
    coordinates: [  0.645114372276134,  0.346049857757044,  0.260096049337318 ]
    mass: 118.710000
    reduced_to: 73
  - symbol: Sn # 78
    coordinates: [  0.978447705609467,  0.346049857757044,  0.260096049337318 ]
    mass: 118.710000
    reduced_to: 73
  - symbol: Sn # 79
    coordinates: [  0.311781038942801,  0.679383191090378,  0.260096049337318 ]
    mass: 118.710000
    reduced_to: 73
  - symbol: Sn # 80
    coordinates: [  0.645114372276134,  0.679383191090378,  0.260096049337318 ]
    mass: 118.710000
    reduced_to: 73
  - symbol: Sn # 81
    coordinates: [  0.978447705609467,  0.679383191090378,  0.260096049337318 ]
    mass: 118.710000
    reduced_to: 73

displacements:
- atom:    1
  displacement:
    [   0.0100000000000000,  0.0000000000000000,  0.0000000000000000 ]
  forces:
  - [  -0.0072864857502282, -0.0001582168042660,  0.0052491668611765 ]
  - [   0.0023241830058396, -0.0001142909750342,  0.0052392492070794 ]
  - [   0.0022843410260975, -0.0002750642597675,  0.0052560288459063 ]
  - [   0.0021112440153956, -0.0002152547240257,  0.0052517689764500 ]
  - [   0.0021185707300901, -0.0001620138064027,  0.0052436515688896 ]
  - [   0.0019836919382215, -0.0001943362876773,  0.0052475016564131 ]
  - [   0.0021162866614759, -0.0003879521391355,  0.0052446033805609 ]
  - [   0.0019831168465316, -0.0001949919387698,  0.0052486583590508 ]
  - [   0.0021140647586435, -0.0000101281329989,  0.0052522933110595 ]
  - [  -0.0015881555154920, -0.0000354954972863, -0.0736975595355034 ]
  - [  -0.0014230771921575,  0.0001015393063426, -0.0737860575318336 ]
  - [  -0.0014205821789801, -0.0001686178147793, -0.0736094117164612 ]
  - [  -0.0013973936438560, -0.0000608628615737, -0.0736053735017776 ]
  - [  -0.0013978956267238, -0.0000040261074901, -0.0737930834293365 ]
  - [  -0.0013808095827699, -0.0000327043235302, -0.0736993253231049 ]
  - [  -0.0015508336946368, -0.0000644316896796, -0.0736922025680542 ]
  - [  -0.0011503037530929, -0.0000325776636600, -0.0736982375383377 ]
  - [  -0.0015526285860687, -0.0000016037374735, -0.0737049132585526 ]
  - [  -0.0026542725972831,  0.0027982117608190,  0.0746391117572784 ]
  - [  -0.0024953363463283,  0.0029419027268887,  0.0747312381863594 ]
  - [  -0.0024946220219135,  0.0026553543284535,  0.0745512694120407 ]
  - [  -0.0024606678634882,  0.0027763294056058,  0.0745451301336288 ]
  - [  -0.0024610320106149,  0.0028212238103151,  0.0747372806072235 ]
  - [  -0.0024462547153234,  0.0027988655492663,  0.0746414214372635 ]
  - [  -0.0026162192225456,  0.0027651791460812,  0.0746389850974083 ]
  - [  -0.0022182075772434,  0.0027992883697152,  0.0746412873268127 ]
  - [  -0.0026170953642577,  0.0028303610160947,  0.0746454149484634 ]
  - [   0.0029331743717194, -0.0064193718135357,  0.1155002936720848 ]
  - [  -0.0002522215363570, -0.0043330611661077,  0.1135691553354263 ]
  - [   0.0028986437246203, -0.0022702808491886,  0.1116506606340408 ]
  - [  -0.0006726112915203, -0.0043358346447349,  0.1135626435279846 ]
  - [  -0.0003387329634279, -0.0044263284653425,  0.1134453266859055 ]
  - [  -0.0003439249121584, -0.0042384685948491,  0.1136881485581398 ]
  - [  -0.0001669293269515, -0.0042838193476200,  0.1136187240481377 ]
  - [  -0.0001695873215795, -0.0043823453597724,  0.1135142073035240 ]
  - [  -0.0001800302416086, -0.0043319757096469,  0.1135668009519577 ]
  - [   0.0115919550880790, -0.0035475371405482, -0.1373832374811172 ]
  - [   0.0083836354315281, -0.0014644460752606, -0.1353772878646851 ]
  - [   0.0115518495440483,  0.0005920110270381, -0.1333930641412735 ]
  - [   0.0079888422042131, -0.0014669587835670, -0.1353745162487030 ]
  - [   0.0082887094467878, -0.0015560965985060, -0.1352570801973343 ]
  - [   0.0082898866385221, -0.0013707038015127, -0.1354914307594299 ]
  - [   0.0084684249013662, -0.0014150855131447, -0.1354288607835770 ]
  - [   0.0084688710048795, -0.0015130792744458, -0.1353215575218201 ]
  - [   0.0084524964913726, -0.0014628837816417, -0.1353758275508881 ]
  - [   0.0066451407037675, -0.0028395862318575,  0.0180641375482082 ]
  - [   0.0067966561764479, -0.0028617500793189,  0.0180110484361649 ]
  - [   0.0066469665616751, -0.0028801548760384,  0.0179577711969614 ]
  - [   0.0066807363182306, -0.0028611987363547,  0.0180101972073317 ]
  - [   0.0066912723705173, -0.0028469706885517,  0.0180079638957977 ]
  - [   0.0066928057931364, -0.0028733951039612,  0.0180112607777119 ]
  - [   0.0066967564634979, -0.0029207912739366,  0.0180108360946178 ]
  - [   0.0066976174712181, -0.0028064199723303,  0.0180088113993406 ]
  - [   0.0066701429896057, -0.0028640553355217,  0.0180092975497246 ]
  - [  -0.0046344837173820,  0.0008465764112771,  0.0046636085025966 ]
  - [  -0.0046389168128371,  0.0008487559971400,  0.0046595991589129 ]
  - [  -0.0044692913070321,  0.0008487144950777,  0.0046628271229565 ]
  - [  -0.0047224620357156,  0.0006980358157307,  0.0046543767675757 ]
  - [  -0.0045556910336018,  0.0008463081321679,  0.0046639414504170 ]
  - [  -0.0047239996492863,  0.0009950270177796,  0.0046745659783483 ]
  - [  -0.0046406802721322,  0.0008470086613670,  0.0046635353937745 ]
  - [  -0.0045659122988582,  0.0008513294160366,  0.0046650869771838 ]
  - [  -0.0045651635155082,  0.0008427639841102,  0.0046628303825855 ]
  - [  -0.0097132558003068,  0.0024817201774567,  0.0606597736477852 ]
  - [  -0.0097125936299562,  0.0012418727856129,  0.0592419132590294 ]
  - [  -0.0083141587674618,  0.0018685417016968,  0.0599569454789162 ]
  - [  -0.0080743189901114,  0.0020003230310977,  0.0597165897488594 ]
  - [  -0.0088320337235928,  0.0018605345394462,  0.0599526986479759 ]
  - [  -0.0080762356519699,  0.0017226808704436,  0.0601855888962746 ]
  - [  -0.0086343176662922,  0.0018614123109728,  0.0599521175026894 ]
  - [  -0.0087658790871501,  0.0018210383132100,  0.0599768459796906 ]
  - [  -0.0087668150663376,  0.0018991185352206,  0.0599278807640076 ]
  - [  -0.0009046997874975,  0.0040111085399985, -0.0677185058593750 ]
  - [  -0.0008994142990559,  0.0027521403972059, -0.0662998184561729 ]
  - [   0.0005225550848991,  0.0033865640871227, -0.0670132115483284 ]
  - [   0.0008040876127779,  0.0035423042718321, -0.0667107403278351 ]
  - [  -0.0000262710964307,  0.0033785612322390, -0.0670090913772583 ]
  - [   0.0007947925478220,  0.0032195399980992, -0.0672920495271683 ]
  - [   0.0001864914083853,  0.0033787053544074, -0.0670064985752106 ]
  - [   0.0000468929065391,  0.0033342589158565, -0.0670311897993088 ]
  - [   0.0000476134009659,  0.0034199384972453, -0.0669819489121437 ]
- atom:    1
  displacement:
    [  -0.0100000000000000,  0.0000000000000000,  0.0000000000000000 ]
  forces:
  - [   0.0114225782454014, -0.0000752862542868,  0.0052441293373704 ]
  - [   0.0018469127826393, -0.0002766186371446,  0.0052566723898053 ]
  - [   0.0018070098012686, -0.0001151254400611,  0.0052400357089937 ]
  - [   0.0020135045051575, -0.0001645870506763,  0.0052438918501139 ]
  - [   0.0020170863717794, -0.0002181287854910,  0.0052522625774145 ]
  - [   0.0021482389420271, -0.0001943139359355,  0.0052476879209280 ]
  - [   0.0020185881294310, -0.0000139186158776,  0.0052527859807014 ]
  - [   0.0021478713024408, -0.0001950953155756,  0.0052484180778265 ]
  - [   0.0020124823786318, -0.0003914469853044,  0.0052444431930780 ]
  - [  -0.0011331699788570, -0.0000291466712952, -0.0737001448869705 ]
  - [  -0.0012995139695704, -0.0001661740243435, -0.0736116915941238 ]
  - [  -0.0012977011501789,  0.0001042261719704, -0.0737870559096336 ]
  - [  -0.0013265050947666, -0.0000061485916376, -0.0737939774990082 ]
  - [  -0.0013228747993708, -0.0000627711415291, -0.0736059769988060 ]
  - [  -0.0013411715626717, -0.0000328300520778, -0.0736991539597511 ]
  - [  -0.0011676310095936, -0.0000029122456908, -0.0737063437700272 ]
  - [  -0.0015708866994828, -0.0000340044498444, -0.0737004503607750 ]
  - [  -0.0011718409368768, -0.0000654021278024, -0.0736939087510109 ]
  - [  -0.0021979273296893,  0.0028009768575430,  0.0746408700942993 ]
  - [  -0.0023594405502081,  0.0026572728529572,  0.0745512098073959 ]
  - [  -0.0023572044447064,  0.0029439143836498,  0.0747320801019669 ]
  - [  -0.0023929849267006,  0.0028212796896696,  0.0747380852699280 ]
  - [  -0.0023913737386465,  0.0027742525562644,  0.0745454877614975 ]
  - [  -0.0024068839848042,  0.0027987090870738,  0.0746412873268127 ]
  - [  -0.0022328009363264,  0.0028308113105595,  0.0746458247303963 ]
  - [  -0.0026331476401538,  0.0027972357347608,  0.0746435075998306 ]
  - [  -0.0022370258811861,  0.0027651712298393,  0.0746389850974083 ]
  - [  -0.0032044830732048, -0.0022990489378572,  0.1116840839385986 ]
  - [  -0.0001040445349645, -0.0043316925875843,  0.1135680824518204 ]
  - [  -0.0033429765608162, -0.0064503615722060,  0.1155315637588501 ]
  - [   0.0003200060455129, -0.0043400442227721,  0.1135567426681519 ]
  - [  -0.0000145879785123, -0.0042396979406476,  0.1136895641684532 ]
  - [  -0.0000185828394024, -0.0044253952801228,  0.1134451776742935 ]
  - [  -0.0001871269196272, -0.0043814769014716,  0.1135155558586121 ]
  - [  -0.0001889495179057, -0.0042846701107919,  0.1136178225278854 ]
  - [  -0.0001725032925606, -0.0043374723754823,  0.1135659366846085 ]
  - [   0.0054089613258839,  0.0005680732429028, -0.1334156244993210 ]
  - [   0.0085318237543106, -0.0014629131183028, -0.1353756189346313 ]
  - [   0.0052819224074483, -0.0035741962492466, -0.1374037116765976 ]
  - [   0.0089281788095832, -0.0014725755900145, -0.1353606879711151 ]
  - [   0.0086249243468046, -0.0013692285865545, -0.1354940682649612 ]
  - [   0.0086239641532302, -0.0015555107966065, -0.1352583467960358 ]
  - [   0.0084466114640236, -0.0015121996402740, -0.1353219449520111 ]
  - [   0.0084481826052070, -0.0014160168357193, -0.1354270875453949 ]
  - [   0.0084649566560984, -0.0014703213237226, -0.1353745907545090 ]
  - [   0.0067286407575011, -0.0028785276226699,  0.0179570633918047 ]
  - [   0.0065789427608252, -0.0028608099091798,  0.0180099140852690 ]
  - [   0.0067331180907786, -0.0028398546855897,  0.0180639866739511 ]
  - [   0.0066956933587790, -0.0028620939701796,  0.0180101562291384 ]
  - [   0.0066828508861363, -0.0028732060454786,  0.0180107001215219 ]
  - [   0.0066850325092673, -0.0028480498585850,  0.0180098172277212 ]
  - [   0.0066785383969545, -0.0028075801674277,  0.0180077608674765 ]
  - [   0.0066791148856282, -0.0029204532038420,  0.0180096551775932 ]
  - [   0.0067077432759106, -0.0028643794357777,  0.0180085059255362 ]
  - [  -0.0045384173281491,  0.0008491238113493,  0.0046596452593803 ]
  - [  -0.0045424187555909,  0.0008456908981316,  0.0046650804579258 ]
  - [  -0.0047090230509639,  0.0008479268290102,  0.0046611079014838 ]
  - [  -0.0044549321755767,  0.0009947759099305,  0.0046738758683205 ]
  - [  -0.0046220934018493,  0.0008460190147161,  0.0046637104824185 ]
  - [  -0.0044531538151205,  0.0006981617189012,  0.0046555884182453 ]
  - [  -0.0045397523790598,  0.0008478303789161,  0.0046632615849376 ]
  - [  -0.0046164300292730,  0.0008419509977102,  0.0046625705435872 ]
  - [  -0.0046155285090208,  0.0008519756956957,  0.0046655340120196 ]
  - [  -0.0077789886854589,  0.0012484380276874,  0.0592476576566696 ]
  - [  -0.0077536636963487,  0.0024905989412218,  0.0606626793742180 ]
  - [  -0.0091658737510443,  0.0018770949682221,  0.0599701479077339 ]
  - [  -0.0093790572136641,  0.0017292699776590,  0.0601662620902061 ]
  - [  -0.0086398962885141,  0.0018622067291290,  0.0599513202905655 ]
  - [  -0.0094288280233741,  0.0020049461163580,  0.0596949830651283 ]
  - [  -0.0088372826576233,  0.0018615934532136,  0.0599524453282356 ]
  - [  -0.0087053235620260,  0.0018974249251187,  0.0599286928772926 ]
  - [  -0.0087073827162385,  0.0018222726648673,  0.0599758028984070 ]
  - [   0.0010497511830181,  0.0027570077218115, -0.0663007274270058 ]
  - [   0.0010758177377284,  0.0040165307000279, -0.0677192285656929 ]
  - [  -0.0003603032091632,  0.0033958861604333, -0.0670260041952133 ]
  - [  -0.0006183738587424,  0.0032203451264650, -0.0672835186123848 ]
  - [   0.0001863823272288,  0.0033792371395975, -0.0670078769326210 ]
  - [  -0.0006552424747497,  0.0035412209108472, -0.0667028725147247 ]
  - [  -0.0000258595682681,  0.0033781502861530, -0.0670059248805046 ]
  - [   0.0001128562726080,  0.0034195757471025, -0.0669806227087975 ]
  - [   0.0001129028387368,  0.0033343997783959, -0.0670328587293625 ]
- atom:    1
  displacement:
    [  -0.0050018310540709,  0.0086591966201566,  0.0000000000000000 ]
  forces:
  - [   0.0066423886455595, -0.0083036916330457,  0.0052038067951798 ]
  - [   0.0018822853453457, -0.0002452349290252,  0.0052524656057358 ]
  - [   0.0020115678198636, -0.0001651681959629,  0.0052434094250202 ]
  - [   0.0018688868731260, -0.0000150781124830,  0.0052396124228835 ]
  - [   0.0022086314857006, -0.0000513466075063,  0.0052436310797930 ]
  - [   0.0021066991612315, -0.0002664430066943,  0.0052475947886705 ]
  - [   0.0020291071850806,  0.0000296516227536,  0.0052564702928066 ]
  - [   0.0021065019536763, -0.0002667019143701,  0.0052482997998595 ]
  - [   0.0020618310663849, -0.0001423684880137,  0.0052525401115417 ]
  - [  -0.0012508491054177, -0.0002299845218658, -0.0736962556838989 ]
  - [  -0.0012914845719934, -0.0002144947648048, -0.0737058520317078 ]
  - [  -0.0013663191348314, -0.0000772662460804, -0.0737937241792679 ]
  - [  -0.0014500254765153, -0.0001572007313371, -0.0737875103950500 ]
  - [  -0.0012375684455037, -0.0001789042726159, -0.0736953914165497 ]
  - [  -0.0013510184362531, -0.0000498304143548, -0.0736992955207825 ]
  - [  -0.0012123107444495, -0.0000202180817723, -0.0736115276813507 ]
  - [  -0.0014647202333435,  0.0001483242958784, -0.0736999362707138 ]
  - [  -0.0013173404149711, -0.0000502420589328, -0.0736051127314568 ]
  - [  -0.0023146555759013,  0.0025951433926821,  0.0746407955884933 ]
  - [  -0.0023568607866764,  0.0026138667017221,  0.0746457427740097 ]
  - [  -0.0024267393164337,  0.0027595078572631,  0.0747373104095459 ]
  - [  -0.0025171358138323,  0.0026681451126933,  0.0747319236397743 ]
  - [  -0.0023039216175675,  0.0026495037600398,  0.0746369212865829 ]
  - [  -0.0024166461080313,  0.0027816900983453,  0.0746409893035889 ]
  - [  -0.0022744077723473,  0.0028111389838159,  0.0745511353015900 ]
  - [  -0.0025279908441007,  0.0029802871868014,  0.0746441632509232 ]
  - [  -0.0023868363350630,  0.0027782451361418,  0.0745480656623840 ]
  - [  -0.0034539704211056, -0.0027249148115516,  0.1116812676191330 ]
  - [  -0.0001410012191627, -0.0042990436777472,  0.1135160326957703 ]
  - [   0.0000804323353805, -0.0047576404176652,  0.1135533601045609 ]
  - [   0.0000707222498022, -0.0005279220640659,  0.1155352443456650 ]
  - [  -0.0001708744675852, -0.0043341293931007,  0.1135667786002159 ]
  - [  -0.0000206114564207, -0.0044272672384977,  0.1134449541568756 ]
  - [  -0.0001407768577337, -0.0043978933244944,  0.1135665476322174 ]
  - [  -0.0002260012552142, -0.0043492065742612,  0.1136168092489243 ]
  - [  -0.0001747403293848, -0.0045176381245255,  0.1136914491653442 ]
  - [   0.0051775816828012,  0.0001604873687029, -0.1334207057952881 ]
  - [   0.0084947301074862, -0.0014298399910331, -0.1353229880332947 ]
  - [   0.0086993305012584, -0.0018672952428460, -0.1353633403778076 ]
  - [   0.0086946599185467,  0.0022975318133831, -0.1373775005340576 ]
  - [   0.0084635447710752, -0.0014666020870209, -0.1353750675916672 ]
  - [   0.0086229844018817, -0.0015615168958902, -0.1352580487728119 ]
  - [   0.0084932232275605, -0.0015270193107426, -0.1353760659694672 ]