# Thermal properties / unit cell (natom)

unit:
  temperature:   K
  free_energy:   kJ/mol
  entropy:       J/K/mol
  heat_capacity: J/K/mol

natom: 9    
cutoff_frequency: 0.00000
num_modes: 169344
num_integrated_modes: 169328

zero_point_energy:      34.1213937

thermal_properties:
- temperature:         0.0000000
  free_energy:        34.1213937
  entropy:             0.0000000
  heat_capacity:       0.0000000
  energy:             34.1213937

- temperature:        10.0000000
  free_energy:        34.1177869
  entropy:             1.2555126
  heat_capacity:       3.1390880
  energy:             34.1303421

- temperature:        20.0000000
  free_energy:        34.0812144
  entropy:             6.8886236
  heat_capacity:      16.0194451
  energy:             34.2189869

- temperature:        30.0000000
  free_energy:        33.9667348
  entropy:            16.4459444
  heat_capacity:      31.9890393
  energy:             34.4601131

- temperature:        40.0000000
  free_energy:        33.7471844
  entropy:            27.5898809
  heat_capacity:      45.7567293
  energy:             34.8507796

- temperature:        50.0000000
  free_energy:        33.4137328
  entropy:            39.1232910
  heat_capacity:      57.9200837
  energy:             35.3698973

- temperature:        60.0000000
  free_energy:        32.9645215
  entropy:            50.7236405
  heat_capacity:      69.6806463
  energy:             36.0079399

- temperature:        70.0000000
  free_energy:        32.3991747
  entropy:            62.3500321
  heat_capacity:      81.4732047
  energy:             36.7636770

- temperature:        80.0000000
  free_energy:        31.7174507
  entropy:            73.9964665
  heat_capacity:      93.1899204
  energy:             37.6371681

- temperature:        90.0000000
  free_energy:        30.9192751
  entropy:            85.6333006
  heat_capacity:     104.5470432
  energy:             38.6262721

- temperature:       100.0000000
  free_energy:        30.0049827
  entropy:            97.2105536
  heat_capacity:     115.2861810
  energy:             39.7260381

- temperature:       110.0000000
  free_energy:        28.9754507
  entropy:           108.6719675
  heat_capacity:     125.2398028
  energy:             40.9293671

- temperature:       120.0000000
  free_energy:        27.8321044
  entropy:           119.9653857
  heat_capacity:     134.3306564
  energy:             42.2279507

- temperature:       130.0000000
  free_energy:        26.5768473
  entropy:           131.0478534
  heat_capacity:     142.5493555
  energy:             43.6130683

- temperature:       140.0000000
  free_energy:        25.2119595
  entropy:           141.8870203
  heat_capacity:     149.9301996
  energy:             45.0761423

- temperature:       150.0000000
  free_energy:        23.7399934
  entropy:           152.4605382
  heat_capacity:     156.5319483
  energy:             46.6090741

- temperature:       160.0000000
  free_energy:        22.1636810
  entropy:           162.7546001
  heat_capacity:     162.4244871
  energy:             48.2044170

- temperature:       170.0000000
  free_energy:        20.4858566
  entropy:           172.7622667
  heat_capacity:     167.6803680
  energy:             49.8554419

- temperature:       180.0000000
  free_energy:        18.7093962
  entropy:           182.4818929
  heat_capacity:     172.3698535
  energy:             51.5561369

- temperature:       190.0000000
  free_energy:        16.8371715
  entropy:           191.9157789
  heat_capacity:     176.5582870
  energy:             53.3011695

- temperature:       200.0000000
  free_energy:        14.8720162
  entropy:           201.0690729
  heat_capacity:     180.3049253
  energy:             55.0858307

- temperature:       210.0000000
  free_energy:        12.8167017
  entropy:           209.9489075
  heat_capacity:     183.6626430
  energy:             56.9059723

- temperature:       220.0000000
  free_energy:        10.6739215
  entropy:           218.5637364
  heat_capacity:     186.6781293
  energy:             58.7579435

- temperature:       230.0000000
  free_energy:         8.4462795
  entropy:           226.9228335
  heat_capacity:     189.3923367
  energy:             60.6385312

- temperature:       240.0000000
  free_energy:         6.1362848
  entropy:           235.0359202
  heat_capacity:     191.8410391
  energy:             62.5449057

- temperature:       250.0000000
  free_energy:         3.7463481
  entropy:           242.9128929
  heat_capacity:     194.0554158
  energy:             64.4745714

- temperature:       260.0000000
  free_energy:         1.2787811
  entropy:           250.5636258
  heat_capacity:     196.0626154
  energy:             66.4253238

- temperature:       270.0000000
  free_energy:        -1.2642027
  entropy:           257.9978328
  heat_capacity:     197.8862750
  energy:             68.3952122

- temperature:       280.0000000
  free_energy:        -3.8804854
  entropy:           265.2249708
  heat_capacity:     199.5469883
  energy:             70.3825064

- temperature:       290.0000000
  free_energy:        -6.5680423
  entropy:           272.2541768
  heat_capacity:     201.0627173
  energy:             72.3856689

- temperature:       300.0000000
  free_energy:        -9.3249384
  entropy:           279.0942282
  heat_capacity:     202.4491517
  energy:             74.4033300

- temperature:       310.0000000
  free_energy:       -12.1493244
  entropy:           285.7535205
  heat_capacity:     203.7200203
  energy:             76.4342669

- temperature:       320.0000000
  free_energy:       -15.0394330
  entropy:           292.2400579
  heat_capacity:     204.8873591
  energy:             78.4773855

- temperature:       330.0000000
  free_energy:       -17.9935751
  entropy:           298.5614532
  heat_capacity:     205.9617416
  energy:             80.5317044

- temperature:       340.0000000
  free_energy:       -21.0101358
  entropy:           304.7249335
  heat_capacity:     206.9524760
  energy:             82.5963416

- temperature:       350.0000000
  free_energy:       -24.0875703
  entropy:           310.7373511
  heat_capacity:     207.8677745
  energy:             84.6705026

- temperature:       360.0000000
  free_energy:       -27.2244009
  entropy:           316.6051969
  heat_capacity:     208.7148980
  energy:             86.7534700

- temperature:       370.0000000
  free_energy:       -30.4192129
  entropy:           322.3346153
  heat_capacity:     209.5002807
  energy:             88.8445948

- temperature:       380.0000000
  free_energy:       -33.6706512
  entropy:           327.9314213
  heat_capacity:     210.2296362
  energy:             90.9432889

- temperature:       390.0000000
  free_energy:       -36.9774176
  entropy:           333.4011164
  heat_capacity:     210.9080495
  energy:             93.0490178

- temperature:       400.0000000
  free_energy:       -40.3382672
  entropy:           338.7489061
  heat_capacity:     211.5400553
  energy:             95.1612952

- temperature:       410.0000000
  free_energy:       -43.7520058
  entropy:           343.9797161
  heat_capacity:     212.1297067
  energy:             97.2796778

- temperature:       420.0000000
  free_energy:       -47.2174872
  entropy:           349.0982083
  heat_capacity:     212.6806329
  energy:             99.4037603

- temperature:       430.0000000
  free_energy:       -50.7336103
  entropy:           354.1087967
  heat_capacity:     213.1960907
  energy:            101.5331722

- temperature:       440.0000000
  free_energy:       -54.2993174
  entropy:           359.0156616
  heat_capacity:     213.6790081
  energy:            103.6675737

- temperature:       450.0000000
  free_energy:       -57.9135911
  entropy:           363.8227640
  heat_capacity:     214.1320226
  energy:            105.8066527

- temperature:       460.0000000
  free_energy:       -61.5754527
  entropy:           368.5338589
  heat_capacity:     214.5575144
  energy:            107.9501224

- temperature:       470.0000000
  free_energy:       -65.2839601
  entropy:           373.1525076
  heat_capacity:     214.9576352
  energy:            110.0977185

- temperature:       480.0000000
  free_energy:       -69.0382060
  entropy:           377.6820897
  heat_capacity:     215.3343341
  energy:            112.2491971

- temperature:       490.0000000
  free_energy:       -72.8373157
  entropy:           382.1258137
  heat_capacity:     215.6893790
  energy:            114.4043330

- temperature:       500.0000000
  free_energy:       -76.6804462
  entropy:           386.4867281
  heat_capacity:     216.0243767
  energy:            116.5629179

- temperature:       510.0000000
  free_energy:       -80.5667839
  entropy:           390.7677305
  heat_capacity:     216.3407896
  energy:            118.7247586

- temperature:       520.0000000
  free_energy:       -84.4955436
  entropy:           394.9715765
  heat_capacity:     216.6399508
  energy:            120.8896762

- temperature:       530.0000000
  free_energy:       -88.4659670
  entropy:           399.1008891
  heat_capacity:     216.9230776
  energy:            123.0575042

- temperature:       540.0000000
  free_energy:       -92.4773213
  entropy:           403.1581654
  heat_capacity:     217.1912830
  energy:            125.2280880

- temperature:       550.0000000
  free_energy:       -96.5288982
  entropy:           407.1457849
  heat_capacity:     217.4455861
  energy:            127.4012835

- temperature:       560.0000000
  free_energy:      -100.6200124
  entropy:           411.0660159
  heat_capacity:     217.6869217
  energy:            129.5769565

- temperature:       570.0000000
  free_energy:      -104.7500011
  entropy:           414.9210222
  heat_capacity:     217.9161477
  energy:            131.7549816

- temperature:       580.0000000
  free_energy:      -108.9182223
  entropy:           418.7128690
  heat_capacity:     218.1340534
  energy:            133.9352417

- temperature:       590.0000000
  free_energy:      -113.1240545
  entropy:           422.4435286
  heat_capacity:     218.3413652
  energy:            136.1176273

- temperature:       600.0000000
  free_energy:      -117.3668952
  entropy:           426.1148853
  heat_capacity:     218.5387526
  energy:            138.3020359

- temperature:       610.0000000
  free_energy:      -121.6461605
  entropy:           429.7287409
  heat_capacity:     218.7268338
  energy:            140.4883714

- temperature:       620.0000000
  free_energy:      -125.9612841
  entropy:           433.2868188
  heat_capacity:     218.9061798
  energy:            142.6765435

- temperature:       630.0000000
  free_energy:      -130.3117165
  entropy:           436.7907685
  heat_capacity:     219.0773190
  energy:            144.8664676

- temperature:       640.0000000
  free_energy:      -134.6969243
  entropy:           440.2421695
  heat_capacity:     219.2407406
  energy:            147.0580642

- temperature:       650.0000000
  free_energy:      -139.1163898
  entropy:           443.6425354
  heat_capacity:     219.3968983
  energy:            149.2512582

- temperature:       660.0000000
  free_energy:      -143.5696098
  entropy:           446.9933168
  heat_capacity:     219.5462132
  energy:            151.4459793

- temperature:       670.0000000
  free_energy:      -148.0560955
  entropy:           450.2959052
  heat_capacity:     219.6890765
  energy:            153.6421610

- temperature:       680.0000000
  free_energy:      -152.5753717
  entropy:           453.5516357
  heat_capacity:     219.8258519
  energy:            155.8397406

- temperature:       690.0000000
  free_energy:      -157.1269763
  entropy:           456.7617901
  heat_capacity:     219.9568783
  energy:            158.0386589

- temperature:       700.0000000
  free_energy:      -161.7104597
  entropy:           459.9275996
  heat_capacity:     220.0824713
  energy:            160.2388600

- temperature:       710.0000000
  free_energy:      -166.3253844
  entropy:           463.0502473
  heat_capacity:     220.2029253
  energy:            162.4402912

- temperature:       720.0000000
  free_energy:      -170.9713246
  entropy:           466.1308707
  heat_capacity:     220.3185153
  energy:            164.6429023

- temperature:       730.0000000
  free_energy:      -175.6478654
  entropy:           469.1705637
  heat_capacity:     220.4294980
  energy:            166.8466461

- temperature:       740.0000000
  free_energy:      -180.3546029
  entropy:           472.1703792
  heat_capacity:     220.5361137
  energy:            169.0514777

- temperature:       750.0000000
  free_energy:      -185.0911434
  entropy:           475.1313307
  heat_capacity:     220.6385872
  energy:            171.2573546

- temperature:       760.0000000
  free_energy:      -189.8571032
  entropy:           478.0543942
  heat_capacity:     220.7371292
  energy:            173.4642364

- temperature:       770.0000000
  free_energy:      -194.6521082
  entropy:           480.9405102
  heat_capacity:     220.8319372
  energy:            175.6720847

- temperature:       780.0000000
  free_energy:      -199.4757933
  entropy:           483.7905854
  heat_capacity:     220.9231966
  energy:            177.8808633

- temperature:       790.0000000
  free_energy:      -204.3278026
  entropy:           486.6054937
  heat_capacity:     221.0110812
  energy:            180.0905374

- temperature:       800.0000000
  free_energy:      -209.2077888
  entropy:           489.3860787
  heat_capacity:     221.0957548
  energy:            182.3010742

- temperature:       810.0000000
  free_energy:      -214.1154125
  entropy:           492.1331541
  heat_capacity:     221.1773710
  energy:            184.5124423

- temperature:       820.0000000
  free_energy:      -219.0503428
  entropy:           494.8475057
  heat_capacity:     221.2560747
  energy:            186.7246119

- temperature:       830.0000000
  free_energy:      -224.0122561
  entropy:           497.5298924
  heat_capacity:     221.3320021
  energy:            188.9375546

- temperature:       840.0000000
  free_energy:      -229.0008365
  entropy:           500.1810472
  heat_capacity:     221.4052817
  energy:            191.1512431

- temperature:       850.0000000
  free_energy:      -234.0157753
  entropy:           502.8016789
  heat_capacity:     221.4760348
  energy:            193.3656518

- temperature:       860.0000000
  free_energy:      -239.0567706
  entropy:           505.3924726
  heat_capacity:     221.5443755
  energy:            195.5807558

- temperature:       870.0000000
  free_energy:      -244.1235275
  entropy:           507.9540909
  heat_capacity:     221.6104120
  energy:            197.7965316

- temperature:       880.0000000
  free_energy:      -249.2157573
  entropy:           510.4871750
  heat_capacity:     221.6742461
  energy:            200.0129567

- temperature:       890.0000000
  free_energy:      -254.3331780
  entropy:           512.9923455
  heat_capacity:     221.7359745
  energy:            202.2300095

- temperature:       900.0000000
  free_energy:      -259.4755132
  entropy:           515.4702030
  heat_capacity:     221.7956882
  energy:            204.4476695

- temperature:       910.0000000
  free_energy:      -264.6424929
  entropy:           517.9213294
  heat_capacity:     221.8534738
  energy:            206.6659168

- temperature:       920.0000000
  free_energy:      -269.8338526
  entropy:           520.3462884
  heat_capacity:     221.9094131
  energy:            208.8847328

- temperature:       930.0000000
  free_energy:      -275.0493333
  entropy:           522.7456263
  heat_capacity:     221.9635835
  energy:            211.1040992

- temperature:       940.0000000
  free_energy:      -280.2886815
  entropy:           525.1198726
  heat_capacity:     222.0160587
  energy:            213.3239988

- temperature:       950.0000000
  free_energy:      -285.5516488
  entropy:           527.4695408
  heat_capacity:     222.0669083
  energy:            215.5444150

- temperature:       960.0000000
  free_energy:      -290.8379920
  entropy:           529.7951289
  heat_capacity:     222.1161986
  energy:            217.7653318

- temperature:       970.0000000
  free_energy:      -296.1474727
  entropy:           532.0971203
  heat_capacity:     222.1639926
  energy:            219.9867339

- temperature:       980.0000000
  free_energy:      -301.4798573
  entropy:           534.3759838
  heat_capacity:     222.2103499
  energy:            222.2086068

- temperature:       990.0000000
  free_energy:      -306.8349168
  entropy:           536.6321749
  heat_capacity:     222.2553274
  energy:            224.4309363

- temperature:      1000.0000000
  free_energy:      -312.2124267
  entropy:           538.8661357
  heat_capacity:     222.2989791
  energy:            226.6537090
