# Tetrahedron method
       -2.4985101200        0.0000000000
       -2.4268553498        0.0000000000
       -2.3552005796        0.0000000000
       -2.2835458093        0.0000000000
       -2.2118910391        0.0000000000
       -2.1402362689        0.0000000000
       -2.0685814987        0.0000000000
       -1.9969267284        0.0000000000
       -1.9252719582        0.0000000000
       -1.8536171880        0.0000000000
       -1.7819624178        0.0000000000
       -1.7103076476        0.0000000000
       -1.6386528773        0.0000000000
       -1.5669981071        0.0000000000
       -1.4953433369        0.0000000000
       -1.4236885667        0.0000000000
       -1.3520337964        0.0000000000
       -1.2803790262        0.0410504687
       -1.2087242560        0.1539135213
       -1.1370694858        0.2213195720
       -1.0654147156        0.2732949859
       -0.9937599453        0.3311972316
       -0.9221051751        0.4011074429
       -0.8504504049        0.3753227112
       -0.7787956347        0.3577033926
       -0.7071408644        0.3266392109
       -0.6354860942        0.2978444483
       -0.5638313240        0.2643015290
       -0.4921765538        0.2261423076
       -0.4205217836        0.1893503580
       -0.3488670133        0.1685662907
       -0.2772122431        0.1606659570
       -0.2055574729        0.1568513464
       -0.1339027027        0.1569319347
       -0.0622479324        0.1591448414
        0.0094068378        0.1626055499
        0.0810616080        0.1677665243
        0.1527163782        0.1748990988
        0.2243711484        0.1844366640
        0.2960259187        0.2026078517
        0.3676806889        0.2316338315
        0.4393354591        0.2750056522
        0.5109902293        0.3641894134
        0.5826449996        0.4626832479
        0.6542997698        0.5390545787
        0.7259545400        0.6367529918
        0.7976093102        0.6454122663
        0.8692640804        0.6940006336
        0.9409188507        0.8111346225
        1.0125736209        1.1188155936
        1.0842283911        1.1143165589
        1.1558831613        1.1568250477
        1.2275379316        1.0794711739
        1.2991927018        1.1326574682
        1.3708474720        1.1952622245
        1.4425022422        1.3007049980
        1.5141570124        1.4574220944
        1.5858117827        1.7171177338
        1.6574665529        1.4372769096
        1.7291213231        1.3758210709
        1.8007760933        1.8007123958
        1.8724308636        2.3287438702
        1.9440856338        1.7860062027
        2.0157404040        1.6951011854
        2.0873951742        1.7288725710
        2.1590499444        2.8869479685
        2.2307047147        3.6783955920
        2.3023594849        1.0724370531
        2.3740142551        0.8564375420
        2.4456690253        0.3102164487
        2.5173237956        0.0000000000
        2.5889785658        0.0000000000
        2.6606333360        0.0000000000
        2.7322881062        0.0000000000
        2.8039428764        0.0000000000
        2.8755976467        0.0000000000
        2.9472524169        0.0000342233
        3.0189071871        0.1164346726
        3.0905619573        0.2029368007
        3.1622167276        0.3755285530
        3.2338714978        0.4210676669
        3.3055262680        0.4415831962
        3.3771810382        0.4728324800
        3.4488358084        0.5005444353
        3.5204905787        0.5414833735
        3.5921453489        0.5862721114
        3.6638001191        0.6425327151
        3.7354548893        0.7188232685
        3.8071096596        0.8083088311
        3.8787644298        0.9357114968
        3.9504192000        1.1226842701
        4.0220739702        1.4979906500
        4.0937287404        2.3801284161
        4.1653835107        2.8055204270
        4.2370382809        2.8392528773
        4.3086930511        2.4369950106
        4.3803478213        2.1667410123
        4.4520025916        1.8557208727
        4.5236573618        2.0778890442
        4.5953121320        2.5175297510
        4.6669669022        2.6542597468
        4.7386216724        1.5198940904
        4.8102764427        0.9511114543
        4.8819312129        0.7482237373
        4.9535859831        0.9103947684
        5.0252407533        0.7573907645
        5.0968955235        1.0875136027
        5.1685502938        1.6077593101
        5.2402050640        2.2060348836
        5.3118598342        4.5393580358
        5.3835146044        4.4604339679
        5.4551693747        3.2367909685
        5.5268241449        2.8994716774
        5.5984789151        2.3278836494
        5.6701336853        2.7051549873
        5.7417884555        2.4948659680
        5.8134432258        2.6356349128
        5.8850979960        3.2248955094
        5.9567527662        3.6235971621
        6.0284075364        2.1458033255
        6.1000623067        1.5353282239
        6.1717170769        1.5273175028
        6.2433718471        1.4028518931
        6.3150266173        1.3688815414
        6.3866813875        1.4137430951
        6.4583361578        1.2794371150
        6.5299909280        1.1961385612
        6.6016456982        1.2356285831
        6.6733004684        1.3744520771
        6.7449552387        0.9276597087
        6.8166100089        1.5346382982
        6.8882647791        2.4094461551
        6.9599195493        2.1753381504
        7.0315743195        2.2350768136
        7.1032290898        2.6197461358
        7.1748838600        2.8168839909
        7.2465386302        2.7525402627
        7.3181934004        2.7726746414
        7.3898481707        2.1334843056
        7.4615029409        2.1593099379
        7.5331577111        2.6347455580
        7.6048124813        1.9455943810
        7.6764672515        1.3157039858
        7.7481220218        1.1822399340
        7.8197767920        0.9622871300
        7.8914315622        0.8072216115
        7.9630863324        0.7238362448
        8.0347411027        0.6232773461
        8.1063958729        0.7108030847
        8.1780506431        1.2591488806
        8.2497054133        1.2270999397
        8.3213601835        1.1646269515
        8.3930149538        1.6329490316
        8.4646697240        3.1313137015
        8.5363244942        5.6061409116
        8.6079792644        6.1687878309
        8.6796340347        2.9512473854
        8.7512888049        2.7803629981
        8.8229435751        2.0176069929
        8.8945983453        3.3946804382
        8.9662531155        3.5099955864
        9.0379078858        4.6110900918
        9.1095626560        4.7011994949
        9.1812174262        3.8861466901
        9.2528721964        3.3422707416
        9.3245269667        3.8533349503
        9.3961817369        4.0394616098
        9.4678365071        3.8080572275
        9.5394912773        3.3757940335
        9.6111460475        2.6543230735
        9.6828008178        2.3460150497
        9.7544555880        1.8064503701
        9.8261103582        1.7942729089
        9.8977651284        1.8948830221
        9.9694198987        1.5517965642
       10.0410746689        1.4927547060
       10.1127294391        1.2436748019
       10.1843842093        1.0514838672
       10.2560389795        0.8962865724
       10.3276937498        0.6780900818
       10.3993485200        0.5347431051
       10.4710032902        0.4156726944
       10.5426580604        0.2863861113
       10.6143128307        0.1121067862
       10.6859676009        0.0000000000
       10.7576223711        0.0000000000
       10.8292771413        0.0000000000
       10.9009319115        0.0000000000
       10.9725866818        0.0000000000
       11.0442414520        0.0000000000
       11.1158962222        0.0000000000
       11.1875509924        0.0000000000
       11.2592057627        0.0000000000
       11.3308605329        0.0000000000
       11.4025153031        0.0000000000
       11.4741700733        0.0000000000
       11.5458248435        0.0000000000
       11.6174796138        0.0000000000
       11.6891343840        0.0000000000
       11.7607891542        0.0000000000
       11.8324439244        0.0000000000
