phonopy:
  version: "2.37.1"
  frequency_unit_conversion_factor: 15.633302
  symmetry_tolerance: 1.00000e-05

space_group:
  type: "Im-3m"
  number: 229
  Hall_symbol: "-I 4 2 3"

primitive_matrix:
- [  1.000000000000000,  0.000000000000000,  0.000000000000000 ]
- [  1.000000000000000, -1.000000000000000, -0.000000000000000 ]
- [  1.000000000000000,  0.000000000000000, -1.000000000000000 ]

supercell_matrix:
- [   4,   0,   0 ]
- [   0,   4,   0 ]
- [   0,   0,   4 ]

primitive_cell:
  lattice:
  - [     1.102020617162082,     1.558492490211030,     2.699388179526964 ] # a
  - [     1.102020630994551,    -3.116984993157246,     0.000000000000000 ] # b
  - [     1.102020597007506,     1.558492502946215,    -2.699388179526964 ] # c
  points:
  - symbol: Sn # 1
    coordinates: [  0.000000000000000,  0.000000000000000,  0.000000000000000 ]
    mass: 118.710000
  reciprocal_lattice: # without 2pi
  - [     0.302474680400406,     0.106940950593763,     0.185227156814642 ] # a*
  - [     0.302474680400406,    -0.213881896547083,    -0.000000001633717 ] # b*
  - [     0.302474680400406,     0.106940950593763,    -0.185227158568497 ] # c*

unit_cell:
  lattice:
  - [     3.306061845164138,     0.000000000000000,     0.000000000000000 ] # a
  - [    -1.102020630994550,     3.116984993157246,     0.000000000000000 ] # b
  - [    -1.102020597007505,    -1.558492502946215,     2.699388179526964 ] # c
  points:
  - symbol: Sn # 1
    coordinates: [  0.000000000000000,  0.000000000000000,  0.000000000000000 ]
    mass: 118.710000
    reduced_to: 1

supercell:
  lattice:
  - [    13.224247380656553,     0.000000000000000,     0.000000000000000 ] # a
  - [    -4.408082523978201,    12.467939972628983,     0.000000000000000 ] # b
  - [    -4.408082388030022,    -6.233970011784861,    10.797552718107855 ] # c
  points:
  - symbol: Sn # 1
    coordinates: [  0.000000000000000,  0.000000000000000,  0.000000000000000 ]
    mass: 118.710000
    reduced_to: 1
  - symbol: Sn # 2
    coordinates: [  0.250000000000000,  0.000000000000000,  0.000000000000000 ]
    mass: 118.710000
    reduced_to: 1
  - symbol: Sn # 3
    coordinates: [  0.500000000000000,  0.000000000000000,  0.000000000000000 ]
    mass: 118.710000
    reduced_to: 1
  - symbol: Sn # 4
    coordinates: [  0.750000000000000,  0.000000000000000,  0.000000000000000 ]
    mass: 118.710000
    reduced_to: 1
  - symbol: Sn # 5
    coordinates: [  0.000000000000000,  0.250000000000000,  0.000000000000000 ]
    mass: 118.710000
    reduced_to: 1
  - symbol: Sn # 6
    coordinates: [  0.250000000000000,  0.250000000000000,  0.000000000000000 ]
    mass: 118.710000
    reduced_to: 1
  - symbol: Sn # 7
    coordinates: [  0.500000000000000,  0.250000000000000,  0.000000000000000 ]
    mass: 118.710000
    reduced_to: 1
  - symbol: Sn # 8
    coordinates: [  0.750000000000000,  0.250000000000000,  0.000000000000000 ]
    mass: 118.710000
    reduced_to: 1
  - symbol: Sn # 9
    coordinates: [  0.000000000000000,  0.500000000000000,  0.000000000000000 ]
    mass: 118.710000
    reduced_to: 1
  - symbol: Sn # 10
    coordinates: [  0.250000000000000,  0.500000000000000,  0.000000000000000 ]
    mass: 118.710000
    reduced_to: 1
  - symbol: Sn # 11
    coordinates: [  0.500000000000000,  0.500000000000000,  0.000000000000000 ]
    mass: 118.710000
    reduced_to: 1
  - symbol: Sn # 12
    coordinates: [  0.750000000000000,  0.500000000000000,  0.000000000000000 ]
    mass: 118.710000
    reduced_to: 1
  - symbol: Sn # 13
    coordinates: [  0.000000000000000,  0.750000000000000,  0.000000000000000 ]
    mass: 118.710000
    reduced_to: 1
  - symbol: Sn # 14
    coordinates: [  0.250000000000000,  0.750000000000000,  0.000000000000000 ]
    mass: 118.710000
    reduced_to: 1
  - symbol: Sn # 15
    coordinates: [  0.500000000000000,  0.750000000000000,  0.000000000000000 ]
    mass: 118.710000
    reduced_to: 1
  - symbol: Sn # 16
    coordinates: [  0.750000000000000,  0.750000000000000,  0.000000000000000 ]
    mass: 118.710000
    reduced_to: 1
  - symbol: Sn # 17
    coordinates: [  0.000000000000000,  0.000000000000000,  0.250000000000000 ]
    mass: 118.710000
    reduced_to: 1
  - symbol: Sn # 18
    coordinates: [  0.250000000000000,  0.000000000000000,  0.250000000000000 ]
    mass: 118.710000
    reduced_to: 1
  - symbol: Sn # 19
    coordinates: [  0.500000000000000,  0.000000000000000,  0.250000000000000 ]
    mass: 118.710000
    reduced_to: 1
  - symbol: Sn # 20
    coordinates: [  0.750000000000000,  0.000000000000000,  0.250000000000000 ]
    mass: 118.710000
    reduced_to: 1
  - symbol: Sn # 21
    coordinates: [  0.000000000000000,  0.250000000000000,  0.250000000000000 ]
    mass: 118.710000
    reduced_to: 1
  - symbol: Sn # 22
    coordinates: [  0.250000000000000,  0.250000000000000,  0.250000000000000 ]
    mass: 118.710000
    reduced_to: 1
  - symbol: Sn # 23
    coordinates: [  0.500000000000000,  0.250000000000000,  0.250000000000000 ]
    mass: 118.710000
    reduced_to: 1
  - symbol: Sn # 24
    coordinates: [  0.750000000000000,  0.250000000000000,  0.250000000000000 ]
    mass: 118.710000
    reduced_to: 1
  - symbol: Sn # 25
    coordinates: [  0.000000000000000,  0.500000000000000,  0.250000000000000 ]
    mass: 118.710000
    reduced_to: 1
  - symbol: Sn # 26
    coordinates: [  0.250000000000000,  0.500000000000000,  0.250000000000000 ]
    mass: 118.710000
    reduced_to: 1
  - symbol: Sn # 27
    coordinates: [  0.500000000000000,  0.500000000000000,  0.250000000000000 ]
    mass: 118.710000
    reduced_to: 1
  - symbol: Sn # 28
    coordinates: [  0.750000000000000,  0.500000000000000,  0.250000000000000 ]
    mass: 118.710000
    reduced_to: 1
  - symbol: Sn # 29
    coordinates: [  0.000000000000000,  0.750000000000000,  0.250000000000000 ]
    mass: 118.710000
    reduced_to: 1
  - symbol: Sn # 30
    coordinates: [  0.250000000000000,  0.750000000000000,  0.250000000000000 ]
    mass: 118.710000
    reduced_to: 1
  - symbol: Sn # 31
    coordinates: [  0.500000000000000,  0.750000000000000,  0.250000000000000 ]
    mass: 118.710000
    reduced_to: 1
  - symbol: Sn # 32
    coordinates: [  0.750000000000000,  0.750000000000000,  0.250000000000000 ]
    mass: 118.710000
    reduced_to: 1
  - symbol: Sn # 33
    coordinates: [  0.000000000000000,  0.000000000000000,  0.500000000000000 ]
    mass: 118.710000
    reduced_to: 1
  - symbol: Sn # 34
    coordinates: [  0.250000000000000,  0.000000000000000,  0.500000000000000 ]
    mass: 118.710000
    reduced_to: 1
  - symbol: Sn # 35
    coordinates: [  0.500000000000000,  0.000000000000000,  0.500000000000000 ]
    mass: 118.710000
    reduced_to: 1
  - symbol: Sn # 36
    coordinates: [  0.750000000000000,  0.000000000000000,  0.500000000000000 ]
    mass: 118.710000
    reduced_to: 1
  - symbol: Sn # 37
    coordinates: [  0.000000000000000,  0.250000000000000,  0.500000000000000 ]
    mass: 118.710000
    reduced_to: 1
  - symbol: Sn # 38
    coordinates: [  0.250000000000000,  0.250000000000000,  0.500000000000000 ]
    mass: 118.710000
    reduced_to: 1
  - symbol: Sn # 39
    coordinates: [  0.500000000000000,  0.250000000000000,  0.500000000000000 ]
    mass: 118.710000
    reduced_to: 1
  - symbol: Sn # 40
    coordinates: [  0.750000000000000,  0.250000000000000,  0.500000000000000 ]
    mass: 118.710000
    reduced_to: 1
  - symbol: Sn # 41
    coordinates: [  0.000000000000000,  0.500000000000000,  0.500000000000000 ]
    mass: 118.710000
    reduced_to: 1
  - symbol: Sn # 42
    coordinates: [  0.250000000000000,  0.500000000000000,  0.500000000000000 ]
    mass: 118.710000
    reduced_to: 1
  - symbol: Sn # 43
    coordinates: [  0.500000000000000,  0.500000000000000,  0.500000000000000 ]
    mass: 118.710000
    reduced_to: 1
  - symbol: Sn # 44
    coordinates: [  0.750000000000000,  0.500000000000000,  0.500000000000000 ]
    mass: 118.710000
    reduced_to: 1
  - symbol: Sn # 45
    coordinates: [  0.000000000000000,  0.750000000000000,  0.500000000000000 ]
    mass: 118.710000
    reduced_to: 1
  - symbol: Sn # 46
    coordinates: [  0.250000000000000,  0.750000000000000,  0.500000000000000 ]
    mass: 118.710000
    reduced_to: 1
  - symbol: Sn # 47
    coordinates: [  0.500000000000000,  0.750000000000000,  0.500000000000000 ]
    mass: 118.710000
    reduced_to: 1
  - symbol: Sn # 48
    coordinates: [  0.750000000000000,  0.750000000000000,  0.500000000000000 ]
    mass: 118.710000
    reduced_to: 1
  - symbol: Sn # 49
    coordinates: [  0.000000000000000,  0.000000000000000,  0.750000000000000 ]
    mass: 118.710000
    reduced_to: 1
  - symbol: Sn # 50
    coordinates: [  0.250000000000000,  0.000000000000000,  0.750000000000000 ]
    mass: 118.710000
    reduced_to: 1
  - symbol: Sn # 51
    coordinates: [  0.500000000000000,  0.000000000000000,  0.750000000000000 ]
    mass: 118.710000
    reduced_to: 1
  - symbol: Sn # 52
    coordinates: [  0.750000000000000,  0.000000000000000,  0.750000000000000 ]
    mass: 118.710000
    reduced_to: 1
  - symbol: Sn # 53
    coordinates: [  0.000000000000000,  0.250000000000000,  0.750000000000000 ]
    mass: 118.710000
    reduced_to: 1
  - symbol: Sn # 54
    coordinates: [  0.250000000000000,  0.250000000000000,  0.750000000000000 ]
    mass: 118.710000
    reduced_to: 1
  - symbol: Sn # 55
    coordinates: [  0.500000000000000,  0.250000000000000,  0.750000000000000 ]
    mass: 118.710000
    reduced_to: 1
  - symbol: Sn # 56
    coordinates: [  0.750000000000000,  0.250000000000000,  0.750000000000000 ]
    mass: 118.710000
    reduced_to: 1
  - symbol: Sn # 57
    coordinates: [  0.000000000000000,  0.500000000000000,  0.750000000000000 ]
    mass: 118.710000
    reduced_to: 1
  - symbol: Sn # 58
    coordinates: [  0.250000000000000,  0.500000000000000,  0.750000000000000 ]
    mass: 118.710000
    reduced_to: 1
  - symbol: Sn # 59
    coordinates: [  0.500000000000000,  0.500000000000000,  0.750000000000000 ]
    mass: 118.710000
    reduced_to: 1
  - symbol: Sn # 60
    coordinates: [  0.750000000000000,  0.500000000000000,  0.750000000000000 ]
    mass: 118.710000
    reduced_to: 1
  - symbol: Sn # 61
    coordinates: [  0.000000000000000,  0.750000000000000,  0.750000000000000 ]
    mass: 118.710000
    reduced_to: 1
  - symbol: Sn # 62
    coordinates: [  0.250000000000000,  0.750000000000000,  0.750000000000000 ]
    mass: 118.710000
    reduced_to: 1
  - symbol: Sn # 63
    coordinates: [  0.500000000000000,  0.750000000000000,  0.750000000000000 ]
    mass: 118.710000
    reduced_to: 1
  - symbol: Sn # 64
    coordinates: [  0.750000000000000,  0.750000000000000,  0.750000000000000 ]
    mass: 118.710000
    reduced_to: 1

displacements:
- atom:    1
  displacement:
    [   0.0100000000000000,  0.0000000000000000,  0.0000000000000000 ]
  forces:
  - [  -0.0105330590158701, -0.0000007220078260, -0.0000009420477909 ]
  - [   0.0043479823507369,  0.0000000719446689, -0.0000000924251253 ]
  - [   0.0003954058047384,  0.0000001534353942,  0.0000003493081806 ]
  - [   0.0041308323852718,  0.0000002247979864, -0.0000001182479537 ]
  - [  -0.0001651396742091, -0.0015428458573297,  0.0000008930407489 ]
  - [  -0.0000999564072117, -0.0001357095316052,  0.0000002148872511 ]
  - [   0.0002664062194526,  0.0002626271452755,  0.0000001430737484 ]
  - [   0.0002518240362406, -0.0003774671349674, -0.0000000940390237 ]
  - [   0.0001083540264517, -0.0001023057338898,  0.0000000183999873 ]
  - [  -0.0001551667228341,  0.0001134722406277,  0.0000006854946832 ]
  - [   0.0000706354621798,  0.0000011275878933,  0.0000008023098417 ]
  - [  -0.0001549469307065,  0.0001127722207457,  0.0000007078051567 ]
  - [  -0.0001648124307394, -0.0015707168495283,  0.0000001638823335 ]
  - [   0.0002511364873499, -0.0003763430286199,  0.0000008291349332 ]
  - [   0.0002632976975292,  0.0002589488867670,  0.0000004419775905 ]
  - [  -0.0001105201663449, -0.0001418758183718,  0.0000005356242809 ]
  - [  -0.0001655257074162,  0.0007714577950537, -0.0013361333403736 ]
  - [  -0.0000996658345684,  0.0000679660588503, -0.0001172733900603 ]
  - [   0.0002663738559932, -0.0001314231485594,  0.0002270338300150 ]
  - [   0.0002520984271541,  0.0001885303063318, -0.0003273187903687 ]
  - [  -0.0001091391313821,  0.0000702796969563,  0.0001219459809363 ]
  - [  -0.0001650326885283,  0.0007850540569052,  0.0013595730997622 ]
  - [   0.0002507546450943,  0.0001881027128547,  0.0003254781477153 ]
  - [   0.0002628597430885, -0.0001300125150010, -0.0002249549143016 ]
  - [   0.0001584908459336, -0.0001681218855083, -0.0000351341441274 ]
  - [  -0.0001467454712838,  0.0000468723010272, -0.0000822357833385 ]
  - [   0.0001582365948707,  0.0001126474235207,  0.0001287558116019 ]
  - [  -0.0000733722699806, -0.0000026772031561,  0.0000025488297979 ]
  - [  -0.0001476804027334,  0.0000478123547509,  0.0000808855911600 ]
  - [   0.0001580415992066, -0.0001681251451373,  0.0000342778585036 ]
  - [  -0.0000741003314033, -0.0000003641471267, -0.0000023486500140 ]
  - [   0.0001581632532179,  0.0001148595911218, -0.0001284772297367 ]
  - [   0.0001080916263163,  0.0000510905629199, -0.0000880074439920 ]
  - [  -0.0001557772047818, -0.0000563444627915,  0.0000984225116554 ]
  - [   0.0000702093821019, -0.0000001586049621,  0.0000010846670193 ]
  - [  -0.0001549944281578, -0.0000562641362194,  0.0000963434213190 ]
  - [   0.0001579726813361,  0.0000533685088158, -0.0001631371851545 ]
  - [  -0.0001467645633966, -0.0000947799999267,  0.0000001017378963 ]
  - [   0.0001571598695591,  0.0000545780640095,  0.0001625876466278 ]
  - [  -0.0000729850726202,  0.0000029038637877, -0.0000014485495967 ]
  - [   0.0000710631720722, -0.0000001429580152, -0.0000002058095561 ]
  - [  -0.0001545420382172, -0.0000566400121897, -0.0000974419599515 ]
  - [   0.0001074007013813,  0.0000509493984282,  0.0000885697663762 ]
  - [  -0.0001558528747410, -0.0000572395219933, -0.0000981870398391 ]
  - [   0.0001576039940119,  0.0000538622698514, -0.0001628549798625 ]
  - [  -0.0000734280329198,  0.0000019830422389,  0.0000005701276677 ]
  - [   0.0001581090036780,  0.0000538515159860,  0.0001634965592530 ]
  - [  -0.0001473010051996, -0.0000947898079176, -0.0000003090453902 ]
  - [  -0.0001648189499974,  0.0007863343926147, -0.0013593509793282 ]
  - [   0.0002513951621950,  0.0001891872379929, -0.0003256681375206 ]
  - [   0.0002632297109812, -0.0001294696703553,  0.0002244258212158 ]
  - [  -0.0001099354121834,  0.0000707585495547, -0.0001223038270837 ]
  - [  -0.0001461058855057,  0.0000472485553473,  0.0000818716798676 ]
  - [   0.0001580738462508,  0.0001132632605731, -0.0001293403911404 ]
  - [  -0.0000737819354981, -0.0000015068799257, -0.0000026616758078 ]
  - [   0.0001578019000590, -0.0001684486778686,  0.0000350541595253 ]
  - [   0.0001587537117302, -0.0001674692612141, -0.0000340565384249 ]
  - [  -0.0000738191884011, -0.0000006626360118,  0.0000022942972464 ]
  - [   0.0001586629077792,  0.0001148730952991,  0.0001282619487029 ]
  - [  -0.0001474798191339,  0.0000476553104818, -0.0000815402163425 ]
  - [  -0.0000986552331597,  0.0000678072974551,  0.0001170624891529 ]
  - [   0.0002668036613613, -0.0001311475207331, -0.0002277225139551 ]
  - [   0.0002522110007703,  0.0001891739957500,  0.0003267691936344 ]
  - [  -0.0001643473515287,  0.0007719086133875,  0.0013361537130550 ]

force_constants:
  format: "full"
  shape: [ 64, 64 ]
  elements:
  - # (1, 1)
    - [     1.053305875965797,     0.000000000040464,     0.000000000017033 ]
    - [     0.000000000040464,     1.053305876011110,    -0.000000000020944 ]
    - [     0.000000000017033,    -0.000000000020944,     1.053305876183443 ]
  - # (1, 2)
    - [    -0.423903300828859,    -0.000000001110728,     0.000000000988457 ]
    - [    -0.000000002218816,     0.071530275609813,     0.000000000078452 ]
    - [     0.000000000345961,     0.000000000110049,     0.071530276084785 ]
  - # (1, 3)
    - [    -0.039572469651398,    -0.000000000110686,     0.000000000016572 ]
    - [    -0.000000000119190,    -0.007185759537608,    -0.000000000048702 ]
    - [    -0.000000000026012,    -0.000000000015472,    -0.007185759559401 ]
  - # (1, 4)
    - [    -0.423903300828859,    -0.000000001110728,     0.000000000988457 ]
    - [    -0.000000002218816,     0.071530275609813,     0.000000000078452 ]
    - [     0.000000000345961,     0.000000000110049,     0.071530276084785 ]
  - # (1, 5)
    - [     0.016482099757750,     0.155699752889647,     0.000000000246849 ]
    - [     0.155699752906271,    -0.368855124908001,    -0.000000000856976 ]
    - [     0.000000000282848,    -0.000000000788743,     0.071530275900318 ]
  - # (1, 6)
    - [     0.010464510791601,     0.013840975323820,    -0.000000000015900 ]
    - [     0.013840975309085,     0.020251558440688,    -0.000000000082011 ]
    - [     0.000000000042532,     0.000000000002973,     0.000677463466495 ]
  - # (1, 7)
    - [    -0.026470742224892,    -0.026117976131584,    -0.000000000015278 ]
    - [    -0.026117976233549,     0.002280694873924,    -0.000000000003018 ]
    - [    -0.000000000060921,     0.000000000058333,    -0.007744540989260 ]
  - # (1, 8)
    - [    -0.025170690170211,     0.037675224873719,     0.000000000132989 ]
    - [     0.037675225132438,     0.001469717188344,    -0.000000000078326 ]
    - [     0.000000000207874,    -0.000000000165830,     0.008017331346861 ]
  - # (1, 9)
    - [    -0.010784283042469,     0.010178161116578,    -0.000000000013418 ]
    - [     0.010178161145072,    -0.035973946229293,    -0.000000000078481 ]
    - [     0.000000000008021,    -0.000000000028046,    -0.007185759481028 ]
  - # (1, 10)
    - [     0.015502266988855,    -0.011278276347321,     0.000000000017723 ]
    - [    -0.011278276142651,    -0.039692314281765,     0.000000000009955 ]
    - [    -0.000000000060425,     0.000000000085409,    -0.007744540974572 ]
  - # (1, 11)
    - [    -0.007063626275770,    -0.000079865255804,    -0.000000000047166 ]
    - [    -0.000079865200586,    -0.007120099384682,    -0.000000000057948 ]
    - [    -0.000000000025783,    -0.000000000021729,    -0.007007152910570 ]
  - # (1, 12)
    - [     0.015502266988855,    -0.011278276347321,     0.000000000017723 ]
    - [    -0.011278276142651,    -0.039692314281765,     0.000000000009955 ]
    - [    -0.000000000060425,     0.000000000085409,    -0.007744540974572 ]
  - # (1, 13)
    - [     0.016482099757750,     0.155699752889647,     0.000000000246849 ]
    - [     0.155699752906271,    -0.368855124908001,    -0.000000000856976 ]
    - [     0.000000000282848,    -0.000000000788743,     0.071530275900318 ]
  - # (1, 14)
    - [    -0.025170690170211,     0.037675224873719,     0.000000000132989 ]
    - [     0.037675225132438,     0.001469717188344,    -0.000000000078326 ]
    - [     0.000000000207874,    -0.000000000165830,     0.008017331346861 ]
  - # (1, 15)
    - [    -0.026470742224892,    -0.026117976131584,    -0.000000000015278 ]
    - [    -0.026117976233549,     0.002280694873924,    -0.000000000003018 ]
    - [    -0.000000000060921,     0.000000000058333,    -0.007744540989260 ]
  - # (1, 16)
    - [     0.010464510791601,     0.013840975323820,    -0.000000000015900 ]
    - [     0.013840975309085,     0.020251558440688,    -0.000000000082011 ]
    - [     0.000000000042532,     0.000000000002973,     0.000677463466495 ]
  - # (1, 17)
    - [     0.016482101202862,    -0.077849875534741,     0.134839939268714 ]
    - [    -0.077849875865661,    -0.038566075927257,     0.190692474221768 ]
    - [     0.134839940017526,     0.190692474168337,    -0.258758776698687 ]
  - # (1, 18)
    - [     0.010464510821463,    -0.006920487643197,     0.011986636222312 ]
    - [    -0.006920487585778,     0.005570987032812,    -0.008475831743667 ]
    - [     0.011986636248095,    -0.008475831708434,     0.015358034612418 ]
  - # (1, 19)
    - [    -0.026470742366374,     0.013058987922546,    -0.022618830729335 ]
    - [     0.013058987841478,    -0.005238231847466,    -0.004341054797520 ]
    - [    -0.022618830801166,    -0.004341054728083,    -0.000225613817760 ]
  - # (1, 20)
    - [    -0.025170689987487,    -0.018837612588965,     0.032627701951142 ]
    - [    -0.018837612715726,     0.006380427557794,     0.002835200354969 ]
    - [     0.032627702297663,     0.002835200394294,     0.003106620431868 ]
  - # (1, 21)
    - [     0.010464510795041,    -0.006920487614154,    -0.011986636243464 ]
    - [    -0.006920487565950,     0.005570987053327,     0.008475831717546 ]
    - [    -0.011986636217141,     0.008475831746096,     0.015358034844321 ]
  - # (1, 22)
    - [     0.016482100253468,    -0.077849875785715,    -0.134839940537959 ]
    - [    -0.077849875740973,    -0.038566074633145,    -0.190692472490994 ]
    - [    -0.134839941487518,    -0.190692473742071,    -0.258758776941497 ]
  - # (1, 23)
    - [    -0.025170690227905,    -0.018837612582922,    -0.032627702003204 ]
    - [    -0.018837612602836,     0.006380427531989,    -0.002835200234651 ]
    - [    -0.032627701917588,    -0.002835200163126,     0.003106620870931 ]
  - # (1, 24)
    - [    -0.026470742248946,     0.013058987952996,     0.022618830811319 ]
    - [     0.013058988119838,    -0.005238231923014,     0.004341054591911 ]
    - [     0.022618831004039,     0.004341054549830,    -0.000225613879022 ]
  - # (1, 25)
    - [    -0.015805487905030,     0.016829724951012,     0.003446824844937 ]
    - [     0.016829724901023,    -0.015903486318749,    -0.022772256420833 ]
    - [     0.003446824942853,    -0.022772256512908,    -0.000225613935609 ]
  - # (1, 26)
    - [     0.014714928892988,    -0.004735916599014,     0.008202848345420 ]
    - [    -0.004735916541685,    -0.033505191426301,    -0.031706759284093 ]
    - [     0.008202848363034,    -0.031706759245434,     0.003106620534397 ]
  - # (1, 27)
    - [    -0.015805487833246,    -0.011399900359252,    -0.012851556970332 ]
    - [    -0.011399900321026,    -0.023866434567918,    -0.018174846253453 ]
    - [    -0.012851556859460,    -0.018174846248573,     0.007737334346147 ]
  - # (1, 28)
    - [     0.007358088215730,     0.000133547310630,    -0.000231310789492 ]
    - [     0.000133547368723,     0.007452520508028,     0.000163561369041 ]
    - [    -0.000231310766941,     0.000163561404406,     0.007263656166114 ]
  - # (1, 29)
    - [     0.014714928822139,    -0.004735916729555,    -0.008202848287579 ]
    - [    -0.004735916462533,    -0.033505191395779,     0.031706759029572 ]
    - [    -0.008202848510044,     0.031706759307978,     0.003106620734489 ]
  - # (1, 30)
    - [    -0.015805487941861,     0.016829724955191,    -0.003446824750505 ]
    - [     0.016829724970515,    -0.015903486328593,     0.022772256249635 ]
    - [    -0.003446824693778,     0.022772256275859,    -0.000225613700937 ]
  - # (1, 31)
    - [     0.007358088158379,     0.000133547350392,     0.000231310709232 ]
    - [     0.000133547406457,     0.007452520398289,    -0.000163561422177 ]
    - [     0.000231310738823,    -0.000163561386311,     0.007263656120794 ]
  - # (1, 32)
    - [    -0.015805487675293,    -0.011399900299807,     0.012851556928807 ]
    - [    -0.011399900210390,    -0.023866434819008,     0.018174846241287 ]
    - [     0.012851557020860,     0.018174846243221,     0.007737334273396 ]
  - # (1, 33)
    - [    -0.010784282841021,    -0.005089080466098,     0.008814545911201 ]
    - [    -0.005089080433307,    -0.014382806394390,     0.012465650654597 ]
    - [     0.008814546019589,     0.012465650670474,    -0.028776899658780 ]
  - # (1, 34)
    - [     0.015502266889514,     0.005639138237113,    -0.009767273842949 ]
    - [     0.005639138404422,    -0.015731484370515,     0.013833791558863 ]
    - [    -0.009767273969810,     0.013833791563793,    -0.031705370722020 ]
  - # (1, 35)
    - [    -0.007063626277139,     0.000039932585453,    -0.000069165294257 ]
    - [     0.000039932688043,    -0.007035389624307,     0.000048907183483 ]
    - [    -0.000069165240109,     0.000048907260044,    -0.007091862669131 ]
  - # (1, 36)
    - [     0.015502266889514,     0.005639138237113,    -0.009767273842949 ]
    - [     0.005639138404422,    -0.015731484370515,     0.013833791558863 ]
    - [    -0.009767273969810,     0.013833791563793,    -0.031705370722020 ]
  - # (1, 37)
    - [    -0.015805487659104,    -0.005429824735837,     0.016298381665172 ]
    - [    -0.005429824767941,     0.015576270471378,    -0.004597410224601 ]
    - [     0.016298381809151,    -0.004597410104893,    -0.031705371087475 ]
  - # (1, 38)
    - [     0.014714928776194,     0.009471833436523,    -0.000000000122655 ]
    - [     0.009471833430103,     0.021412526578024,    -0.000000000165446 ]
    - [    -0.000000000069036,     0.000000000082134,    -0.051811097382134 ]
  - # (1, 39)
    - [    -0.015805487750291,    -0.005429824684655,    -0.016298381593998 ]
    - [    -0.005429824731057,     0.015576270416090,     0.004597410203480 ]
    - [    -0.016298381765408,     0.004597410323311,    -0.031705370928111 ]
  - # (1, 40)
    - [     0.007358088174055,    -0.000267094619307,    -0.000000000002169 ]
    - [    -0.000267094561251,     0.007169223765357,     0.000000000014823 ]
    - [     0.000000000022794,     0.000000000052477,     0.007546952744944 ]
  - # (1, 41)
    - [    -0.007063626264580,     0.000039932642204,     0.000069165296736 ]
    - [     0.000039932701453,    -0.007035389608232,    -0.000048907281805 ]
    - [     0.000069165315787,    -0.000048907248869,    -0.007091862698215 ]
  - # (1, 42)
    - [     0.015502266918996,     0.005639138164315,     0.009767273840069 ]
    - [     0.005639138303875,    -0.015731484180496,    -0.013833791518114 ]
    - [     0.009767273832840,    -0.013833791594205,    -0.031705371139974 ]
  - # (1, 43)
    - [    -0.010784282892491,    -0.005089080554409,    -0.008814546023351 ]
    - [    -0.005089080474759,    -0.014382806228294,    -0.012465650481054 ]
    - [    -0.008814546063843,    -0.012465650555235,    -0.028776899768757 ]
  - # (1, 44)
    - [     0.015502266918996,     0.005639138164315,     0.009767273840069 ]
    - [     0.005639138303875,    -0.015731484180496,    -0.013833791518114 ]
    - [     0.009767273832840,    -0.013833791594205,    -0.031705371139974 ]
  - # (1, 45)
    - [    -0.015805487659104,    -0.005429824735837,     0.016298381665172 ]
    - [    -0.005429824767941,     0.015576270471378,    -0.004597410224601 ]
    - [     0.016298381809151,    -0.004597410104893,    -0.031705371087475 ]
  - # (1, 46)
    - [     0.007358088174055,    -0.000267094619307,    -0.000000000002169 ]
    - [    -0.000267094561251,     0.007169223765357,     0.000000000014823 ]
    - [     0.000000000022794,     0.000000000052477,     0.007546952744944 ]
  - # (1, 47)
    - [    -0.015805487750291,    -0.005429824684655,    -0.016298381593998 ]
    - [    -0.005429824731057,     0.015576270416090,     0.004597410203480 ]
    - [    -0.016298381765408,     0.004597410323311,    -0.031705370928111 ]
  - # (1, 48)
    - [     0.014714928776194,     0.009471833436523,    -0.000000000122655 ]
    - [     0.009471833430103,     0.021412526578024,    -0.000000000165446 ]
    - [    -0.000000000069036,     0.000000000082134,    -0.051811097382134 ]
  - # (1, 49)
    - [     0.016482101202862,    -0.077849875534741,     0.134839939268714 ]
    - [    -0.077849875865661,    -0.038566075927257,     0.190692474221768 ]
    - [     0.134839940017526,     0.190692474168337,    -0.258758776698687 ]
  - # (1, 50)
    - [    -0.025170689987487,    -0.018837612588965,     0.032627701951142 ]
    - [    -0.018837612715726,     0.006380427557794,     0.002835200354969 ]
    - [     0.032627702297663,     0.002835200394294,     0.003106620431868 ]
  - # (1, 51)
    - [    -0.026470742366374,     0.013058987922546,    -0.022618830729335 ]
    - [     0.013058987841478,    -0.005238231847466,    -0.004341054797520 ]
    - [    -0.022618830801166,    -0.004341054728083,    -0.000225613817760 ]
  - # (1, 52)
    - [     0.010464510821463,    -0.006920487643197,     0.011986636222312 ]
    - [    -0.006920487585778,     0.005570987032812,    -0.008475831743667 ]
    - [     0.011986636248095,    -0.008475831708434,     0.015358034612418 ]
  - # (1, 53)
    - [     0.014714928822139,    -0.004735916729555,    -0.008202848287579 ]
    - [    -0.004735916462533,    -0.033505191395779,     0.031706759029572 ]
    - [    -0.008202848510044,     0.031706759307978,     0.003106620734489 ]
  - # (1, 54)
    - [    -0.015805487675293,    -0.011399900299807,     0.012851556928807 ]
    - [    -0.011399900210390,    -0.023866434819008,     0.018174846241287 ]
    - [     0.012851557020859,     0.018174846243221,     0.007737334273396 ]
  - # (1, 55)
    - [     0.007358088158379,     0.000133547350392,     0.000231310709232 ]
    - [     0.000133547406457,     0.007452520398289,    -0.000163561422177 ]
    - [     0.000231310738823,    -0.000163561386311,     0.007263656120794 ]
  - # (1, 56)
    - [    -0.015805487941861,     0.016829724955191,    -0.003446824750505 ]
    - [     0.016829724970515,    -0.015903486328593,     0.022772256249635 ]
    - [    -0.003446824693778,     0.022772256275859,    -0.000225613700937 ]
  - # (1, 57)
    - [    -0.015805487905030,     0.016829724951012,     0.003446824844937 ]
    - [     0.016829724901023,    -0.015903486318749,    -0.022772256420833 ]
    - [     0.003446824942853,    -0.022772256512908,    -0.000225613935609 ]
  - # (1, 58)
    - [     0.007358088215730,     0.000133547310630,    -0.000231310789492 ]
    - [     0.000133547368723,     0.007452520508028,     0.000163561369041 ]
    - [    -0.000231310766941,     0.000163561404406,     0.007263656166114 ]
  - # (1, 59)
    - [    -0.015805487833246,    -0.011399900359252,    -0.012851556970332 ]