11
Lattice="3.9892671733902447 -0.006509019522634618 0.9801438180778541 1.5018722524641241 6.108624868358402 2.5271138538528946 -0.025585321611578643 -0.0520398167529503 8.704562028486324" Properties=species:S:1:pos:R:3:forces:R:3 structure_index=0 total_energy=-31.79498291015625 stress="-0.02517794631421566 -0.00650830939412117 -0.008323043584823608 -0.006508348975330591 0.024515783414244652 0.007819968275725842 -0.008323327638208866 0.007819951511919498 -0.008342289365828037" pbc="T T T"
Li       2.60469268       5.30935054       5.81449842      -0.00825287       0.03023565       0.02884049
Li       3.78265951       2.25419582       9.60606411       0.00314374      -0.01090686      -0.01003879
Li       0.46065822       0.77472290       5.90670346      -0.00159297      -0.00022339       0.00477239
Li       5.01606936       5.87609016       4.61101143       0.00334199       0.01941847      -0.01234331
Ga       2.93866189       1.41364832       4.42989333      -0.00025434      -0.00418548       0.00537137
Ga       1.59529057       4.20403200       9.91311604      -0.00268803      -0.00657742       0.00699116
Ga       1.34694379       1.82832637       2.30421326       0.00191650      -0.00983532      -0.00735808
Ga       4.78678434       3.32646053       5.52775029       0.00332104       0.00703179      -0.01040733
Ga       2.32483102       2.67804761       6.93812415       0.00351087      -0.01179195      -0.02060060
Sn       1.93745986       0.18582126       8.49836468       0.00514900      -0.01514552      -0.02145315
Sn       4.13602459       4.71085748       8.18376232      -0.00759493       0.00198004       0.03622589
13
Lattice="5.649676138357386 -0.001772763219788983 -0.07708136823447712 -2.7677346511215966 4.925570285778137 0.0774070018348656 -0.050988909703657125 0.029432804937260085 9.455913508981425" Properties=species:S:1:pos:R:3:forces:R:3 structure_index=1 total_energy=-39.72468566894531 stress="-0.024598129093647003 0.0011628289939835668 0.0014667996438220143 0.0011626258492469788 -0.023809609934687614 -0.000822480593342334 0.0014667860232293606 -0.0008223954937420785 -0.02874058298766613" pbc="T T T"
Li       2.96729195       3.94061501       7.00929304      -0.00899561      -0.00142507      -0.01086900
Li       0.15095867       3.94510607       7.10239422       0.00108747      -0.00064968       0.00564846
Li       3.01373332       3.91442066       2.40719338       0.00731999      -0.00716315      -0.00364336
Li       1.53368063       1.49136466       7.00795636      -0.00304248       0.00973474      -0.01009507
Li       1.58161002       1.46625245       2.40816081       0.00964990      -0.00285100      -0.00382756
Ga       1.55105817       3.12604850       4.74221005      -0.01370836       0.00884530      -0.00354274
Ga       0.22957111       3.90169857       2.44336767       0.00527041      -0.00322353       0.00880634
Ga       4.38873754       1.46768568       1.47888184      -0.00098060       0.00008483      -0.03580966
Sn       4.34582505       1.48840201       4.72586966      -0.02231815       0.01321887       0.01613351
Sn       4.36910697       1.47550724       7.95827833      -0.00198926       0.00160717      -0.00611892
Sn      -1.27580873       4.77959179       4.80128829       0.00336462      -0.00246851      -0.00711411
Sn       1.62673949       3.08166836       9.41859676       0.03583435      -0.02158352       0.02730108
Sn      -1.29156888       4.79107380       9.48511974      -0.01149229       0.00587352       0.02313097
20
Lattice="4.25276397915387 0.0014631946164526423 0.0010744367575799886 -2.1285831944830873 7.416880878645969 -1.2594154751668776 -0.00314816778153297 -0.15145901570447498 12.21160997768985" Properties=species:S:1:pos:R:3:forces:R:3 structure_index=2 total_energy=-57.87876892089844 stress="-0.01364183146506548 1.4410363291972317e-05 -4.4913695091963746e-06 1.4369897144206334e-05 -0.012093720957636833 0.0019904705695807934 -4.4848675315734e-06 0.001990390010178089 -0.013738634064793587" pbc="T T T"
Li       0.37030004       3.08681113       5.36154428       0.00025898      -0.00052044       0.00390677
Li       2.49620618       4.40108397      10.11615598      -0.00031849       0.01763836       0.02583904
Li       2.49771958       1.39078440       3.48063043       0.00041532      -0.01258397      -0.03147848
Ga       2.49703302       1.54290336       6.89847342       0.00025661       0.00604518       0.01451355
Ga       0.37125139      -0.01629275       8.23055553      -0.00021953      -0.00197258       0.00605560
Ga       2.49685685       4.36391143       3.76865571      -0.00019710      -0.00171649      -0.00367653
Ga       2.49695734       1.52708852       9.91958096      -0.00053728       0.00676981       0.00055835
Ga       2.49954131       1.57947595       0.64099721      -0.00065081      -0.00714444      -0.01390725
Ga       2.49631990       4.40598244       6.78543249      -0.00026020       0.00816886      -0.00891637
Ga       0.36970277       2.89781400      11.45372190       0.00023704       0.01039723       0.00896321
Ga       0.37298257      -0.00043329       2.04968141       0.00013920      -0.00832622      -0.02101674
Ga       0.36922797       5.90549277       5.39451152       0.00096494       0.00194217       0.00197950
Ga       0.37198148       5.99869527      -0.54662952      -0.00042390       0.01176078       0.01678028
Ga       0.37074264      -0.00122727      11.38869461       0.00020389       0.01047888      -0.01029383
Ga       0.37144871       2.99208447       2.27516991       0.00028747      -0.00079155      -0.00983509
Ga       2.49809354       4.46215894       0.82852671      -0.00015984       0.00846478       0.00468483
Ga       0.37006630       2.81968799       8.44795741       0.00019845      -0.02860657       0.01591846
Ga       0.37033296       5.86402619       2.35568638       0.00047896      -0.01061109       0.00588534
Sn       0.36945261       5.86244281       8.52525654      -0.00006528      -0.00982035      -0.00175101
Sn       0.37155490       0.05406157       5.15757613      -0.00060847       0.00042762      -0.00420961
11
Lattice="3.0429060993938193 0.0021385136639642498 -0.0015702538489322747 -0.0056665090358695965 8.222195620953617 -0.04558431272374131 0.004642366492348859 0.05528704348277969 9.079538682444822" Properties=species:S:1:pos:R:3:forces:R:3 structure_index=3 total_energy=-34.127685546875 stress="0.004636344965547323 1.3692190805159044e-05 -3.9795089833205566e-05 1.3732011211686768e-05 -0.014133377000689507 -0.0005178686697036028 -3.986520823673345e-05 -0.0005177531274966896 0.007072838023304939" pbc="T T T"
Li       1.02053930       2.65830638       4.65701425       0.00007588       0.01139789       0.00272340
Li       1.01740192       5.90593458       2.13697491      -0.00022689      -0.02833651       0.00124809
Li       1.02263528       2.69375018       8.73375636       0.00009345       0.00784330      -0.00307593
Li       1.01882439       6.35834833       6.66583703       0.00028713       0.00985774       0.00023674
Ga       2.54196996       3.90051204       6.68703726       0.00026192       0.00421987       0.00258380
Ga       2.54025657       5.18647525       4.40370474      -0.00002784      -0.00767295      -0.00949360
Ga       2.54270663       5.22511275       8.95258760      -0.00017070      -0.00890637       0.00748882
Sn       2.54048908       3.21355699       2.15063973      -0.00000879      -0.01276115       0.00226803
Sn       2.54433109       0.85280366       6.71100879       0.00006053       0.00545563       0.00353752
Sn       2.53804199       8.15035597       3.72629840      -0.00014101       0.01000110       0.01332436
Sn       2.53644167       8.14181138       0.54020079      -0.00020367       0.00890146      -0.02084124
12
Lattice="4.064039516678778 0.009658863168435564 0.9493212247871747 1.7192725289557094 6.193440993453274 1.7491409762319687 0.028927176233518936 0.2197612661047198 9.046507250449823" Properties=species:S:1:pos:R:3:forces:R:3 structure_index=4 total_energy=-35.60947036743164 stress="0.025493288412690163 -0.0007734414539299905 -0.0014576473040506244 -0.0007735182880423963 0.030832840129733086 -0.00025396296405233443 -0.0014575329842045903 -0.0002540236746426672 0.030124878510832787" pbc="T T T"
Li       4.28750776       6.11342503       7.08620031       0.00015166       0.00050764       0.00066676
Li       3.89873112       3.48359176       8.77881443      -0.00275789       0.04277662       0.01167998
Li       1.76395743       5.68712405       8.71995550       0.00207024       0.01467674      -0.00693516
Li       2.95769950       2.55231186       3.64496641       0.00252577      -0.04432464      -0.01085148
Li       1.02811198       0.33778893       2.75614773      -0.00205682      -0.01421723       0.00607680
Ga       3.51470037       0.74730825       1.28038893       0.00217512      -0.00054227      -0.01071436
Ga       4.87665674       4.66450448       4.58103524      -0.00032009      -0.01112294       0.00255224
Ga       3.31285165       5.06859262       2.09889535      -0.00235192      -0.00018685       0.00937610
Ga       1.97957913       1.36973752       7.84333251       0.00029167       0.01153918      -0.00243788
Sn       4.50386383       1.93369053       6.20412146       0.00062648       0.01006990      -0.00259404
Sn       1.38186122       2.90290515       1.21401563      -0.00021967      -0.00020234       0.00052767
Sn       2.35182112       4.09955320       6.22012401      -0.00013454      -0.00897379       0.00265338
12
Lattice="4.389147777792682 0.0015397225489922606 -0.0022538499268119233 -0.002027376934205778 6.339699153682527 -0.08803259014127561 0.004911115468043457 0.006576426077660813 9.494834506846269" Properties=species:S:1:pos:R:3:forces:R:3 structure_index=5 total_energy=-38.041996002197266 stress="0.017756709828972816 -0.00019997272465843707 -0.00024291792942676693 -0.0001998916413867846 0.018101738765835762 0.0070085786283016205 -0.00024299473443534225 0.007008551619946957 0.01940377615392208" pbc="T T T"
Li       0.67495320       3.99355080       6.35011687      -0.00007159       0.01251020       0.04154300
Li       2.86573256       5.41322413       1.51674912       0.00035074      -0.00878122      -0.03515763
Li       2.86661799       2.25451112       1.58899367       0.00062515      -0.02178732       0.04503392
Ga       0.67204365       0.73501258       0.04200062       0.00041460      -0.04393218       0.00694456
Ga       2.86856163       5.58523975       4.63518597      -0.00077058       0.04633987      -0.01485033
Ga       2.87045686       2.36203636       7.97693938       0.00003982       0.02813358      -0.00330216
Ga       0.67289850       3.95847962       3.08857985       0.00051259      -0.03388179      -0.00921743
Sn       2.86989156       5.54788898       7.94621456      -0.00060879       0.02529105      -0.02764068
Sn       2.86900680       2.58614994       4.65615690      -0.00013021       0.03473516       0.00713739
Sn       0.67400226       0.64942913       3.04186728      -0.00024671      -0.03578457       0.00938089
Sn       0.67092837       3.76095359       0.09399677       0.00095189      -0.01913668       0.01688043
Sn       0.67630884       0.82862882       6.33054152      -0.00106688       0.01629391      -0.03675192
8
Lattice="4.9582593978206 0.0003968273000350676 0.0004198732997262748 -0.00022754525239199059 5.248063805399159 0.04599002632623536 0.0004812228111459957 0.17227430704695929 5.967440302979973" Properties=species:S:1:pos:R:3:forces:R:3 structure_index=6 total_energy=-23.8050594329834 stress="-0.012866804376244545 4.658248872146942e-05 0.00021753388864453882 4.683245424530469e-05 -0.005007956176996231 0.005130058620125055 0.00021778186783194542 0.00513008376583457 0.0017519589746370912" pbc="T T T"
Li       2.73510641       4.32467732       4.48246423       0.00060295       0.01452121      -0.03435065
Li       0.25633396       2.61729391       1.58059896       0.00066117      -0.02339654       0.00065838
Li       0.25618206      -0.04937211       0.10490664       0.00130918       0.00031200       0.03691819
Ga       2.73502277       1.76928358       3.11950785       0.00098617       0.02718298      -0.04257684
Ga       2.73667622       1.77797110       5.92025857      -0.00080835      -0.01278184       0.02126120
Ga       0.25684018       2.67275116       4.68721908      -0.00014121       0.01012009       0.01376758
Sn       0.25622422       5.33021452       3.22803716      -0.00058967      -0.00144422      -0.04175336
Sn       2.73595184       4.19082000       1.35815411      -0.00202019      -0.01451367       0.04607551
14
Lattice="4.7102231196717845 -0.001568965060040536 0.0027432227652274665 0.004530340860228983 6.717087447488307 -4.003463402533596 -0.00435268406610054 -0.08466165295753336 7.90985532398411" Properties=species:S:1:pos:R:3:forces:R:3 structure_index=7 total_energy=-40.0385856628418 stress="0.017588745802640915 -3.188268601661548e-05 -1.0643963832990266e-05 -3.188508708262816e-05 0.017339112237095833 0.004305475391447544 -1.0728048437158577e-05 0.004305556882172823 0.01424170657992363" pbc="T T T"
Li       0.83547144       4.87567276       3.64759857       0.00040060      -0.04744483       0.01068776
Li       0.83360005       2.69426568       5.89212739       0.00023077       0.01188492      -0.00965065
Li       3.19318736       4.21331362      -0.78268204      -0.00089182       0.02124441      -0.02341305
Li       0.83654517       3.84188571       0.82944401       0.00070023      -0.00843724       0.02502373
Li       3.18778219       1.10960843       6.50694251       0.00034933      -0.00882173       0.01622811
Li       3.19526724       6.20190870      -3.10338738      -0.00099903       0.01514515       0.02652767
Ga       3.19155524       5.01604887       1.96528897       0.00041725      -0.00281808       0.01552249
Ga       0.83499392       1.93038318       3.06110678       0.00002585       0.00737512      -0.03680294
Ga       0.83760701       6.62429989       1.55728309      -0.00093728      -0.04224894       0.00870795
Ga       0.83623464       1.06310497       0.30300947       0.00037038       0.02121777      -0.00437763
Ga       3.18870780       0.27396741       3.78128640       0.00072698      -0.00114060       0.03495514
Ga       3.19145264       2.29254508       1.24593698      -0.00083434       0.01283040      -0.03157431
Sn       3.18986443       3.15784123       4.36486446      -0.00032182       0.00895729      -0.03781181
Sn       0.83848365       5.72430270      -1.42601670       0.00076291       0.01225638       0.00597756
12
Lattice="4.948742806963127 0.0009912683685107395 -0.0033605059852366225 -0.001336393900204643 6.0729829817477565 -0.3036671090950106 0.005521252358340908 -0.2867182553391496 8.730605207343338" Properties=species:S:1:pos:R:3:forces:R:3 structure_index=8 total_energy=-37.27022171020508 stress="-0.010958020575344563 5.034913556301035e-05 -4.1628449253039435e-05 5.0389433454256505e-05 0.016571687534451485 0.008090510964393616 -4.162018740316853e-05 0.008090472780168056 -0.006997536402195692" pbc="T T T"
Li       4.12403896       4.55589109       8.38380863      -0.00066913      -0.01337136      -0.00151649
Li       1.64675364       1.64846582       4.16637295       0.00003693      -0.00376358       0.00342099
Ga       1.64506756       0.20525952       1.21198129       0.00069502      -0.02781863      -0.03518658
Ga       1.64472694       3.29338974       1.29505395       0.00030384       0.01399614       0.00862737
Ga       4.11995711       3.21554370       2.63214777      -0.00005430       0.02247447      -0.00346120
Ga       4.12279677       0.10364708       5.80912165      -0.00026815       0.01496193       0.00843910
Ga       1.64929457       0.04317356       7.14966896       0.00038974       0.02406769      -0.00279340
Ga       4.12155160       3.08650194       5.42689533      -0.00011609      -0.03107462      -0.03801466
Sn       1.64614189       4.68428206       4.06908696       0.00015130      -0.01008015       0.01270753
Sn       4.12447696       1.51326358       8.57828868      -0.00091456      -0.00917885       0.01946818
Sn       4.12056724       0.21384210       2.82476313      -0.00041586       0.00854656       0.01407560
Sn       1.64816731       3.11446663       7.04215626       0.00086128       0.01124041       0.01423357
16
Lattice="6.274216875959806 -0.28499700683015605 -0.007189112108229292 -0.2420320363672444 6.242001632201704 -0.0064848272439259145 0.009979680218892593 0.009275728335318523 8.451377593150069" Properties=species:S:1:pos:R:3:forces:R:3 structure_index=9 total_energy=-50.44493865966797 stress="-0.004728196654468775 -0.011714962311089039 -2.6529862225288525e-05 -0.011714918538928032 -0.009186806157231331 -1.0824202036019415e-05 -2.6562605853541754e-05 -1.0812967957463115e-05 -0.0035553602501749992" pbc="T T T"
Li       0.38564211       2.52477764       2.70723839      -0.00052838      -0.00013958      -0.00032564
Li       5.13918019       0.79626083       0.63162572      -0.01985555       0.01233793       0.02392481
Li       5.14334021       0.80059452       4.77485986      -0.01840152       0.01176310      -0.02468877
Li       1.89937516       3.96346727       0.63105643       0.01905864      -0.01229312       0.02529082
Li       3.39989456       5.50414394       2.70002517       0.00036357      -0.00048968       0.00015955
Li       3.40473348       5.50863181       6.92561513       0.00223939      -0.00147968       0.00043573
Li       1.90450379       3.96852009       4.77617906       0.01963099      -0.01246210      -0.02578576
Ga       0.39051688       2.52750190       6.93183224      -0.00036372      -0.00008847       0.00093230
Ga       3.52228396       2.38277389       2.70323596      -0.00247863      -0.00207080      -0.00008626
Sn       2.06332236       0.86213700       4.77145690       0.00805740       0.02413163      -0.00468559
Sn       4.97898858       3.90254692       0.63582701      -0.00610427      -0.02254591       0.00284797
Sn       4.98453676       3.90678658       4.76388285      -0.00876874      -0.02276468      -0.00171903
Sn       3.52789438       2.38687358       6.92881036      -0.00089031      -0.00085661       0.00173362
Sn       0.26324371       5.64559064       2.70398594       0.00001438       0.00003017      -0.00216090
Sn       2.05790385       0.85739968       0.64200114       0.01022695       0.02557577       0.00398134
Sn       0.26911823       5.64800928       6.92939734      -0.00220021       0.00135203       0.00014582
10
Lattice="2.8253054129154247 -0.00022315545686456788 -7.478516937450431e-05 0.00022327484151588682 2.8253055310186284 -0.00030772022814770986 0.0005862780909125102 0.0022981300015583878 21.1731027769199" Properties=species:S:1:pos:R:3:forces:R:3 structure_index=10 total_energy=-28.356365203857422 stress="0.017210276797413826 -1.1334750382729908e-07 -2.089642293867655e-06 8.309639198955665e-09 0.01721171662211418 -4.373060164652998e-06 -2.236467253169394e-06 -4.273406375432387e-06 -0.006470975931733847" pbc="T T T"
Li       1.86358632       1.86899432      18.38941825      -0.00000843       0.00000797      -0.03110428
Li       1.86314650       1.86719072       1.33236545      -0.00001159      -0.00001044       0.00155742
Li       1.86323014       1.86810046       9.53683069       0.00000312      -0.00000565      -0.00173195
Li       1.86330536       1.86851357      13.65287384       0.00002785       0.00000579       0.03112514
Li       1.86319699       1.86766061       5.43443949      -0.00000233      -0.00000461       0.00011080
Ga       0.45091315       0.45669531      20.44672612      -0.00003417       0.00001000      -0.02377327
Ga       0.45044876       0.45534241       7.48915142       0.00000019      -0.00000323      -0.00098978
Ga       0.45041279       0.45488947       3.38022889      -0.00000628      -0.00000619       0.00109832
Ga       0.45048714       0.45576866      11.59598469       0.00002173      -0.00000252       0.02368095
Sn       0.45067285       0.45620470      16.02133273       0.00000989       0.00000891       0.00002663
4
Lattice="4.326338937157583 0.0001508530365531156 2.497938378243401 1.4422300349789143 4.077682816464139 2.497699390453898 -0.0002780330527229249 -0.0002384172577408562 4.99497719761842" Properties=species:S:1:pos:R:3:forces:R:3 structure_index=11 total_energy=-11.803936004638672 stress="0.031923431903123856 -0.0025711010675877333 0.0016620173119008541 -0.002571179997175932 0.026946453377604485 0.0016671044286340475 0.0016622523544356227 0.0016671469202265143 0.029387036338448524" pbc="T T T"
Li       3.88019676       0.48612547       2.71786190      -0.00068092      -0.00050495      -0.00065955
Ga       3.87889751       3.54318646       7.71224564       0.00216058       0.00099249       0.00086746
Ga       0.99519488       1.50493951       2.71635154       0.00124282       0.00125850       0.00180891
Sn       2.43842902       2.52494841       5.21532394      -0.00272248      -0.00174606      -0.00201682
11
Lattice="4.420912259647196 -0.0015693214884225331 -1.3176167727676171 0.02684097904323918 5.330214177601369 0.08534399077474289 -0.04212523816710179 0.0016800655855376153 7.938970269514448" Properties=species:S:1:pos:R:3:forces:R:3 structure_index=12 total_energy=-30.481613159179688 stress="-0.00658360356464982 -0.0016702049179002643 -5.533956937142648e-05 -0.0016703488072380424 -0.0016149899456650019 -0.005142624024301767 -5.542105282074772e-05 -0.005142674781382084 -0.006023685913532972" pbc="T T T"
Li       1.70217063       4.03639026       4.19510382      -0.00615437       0.00038587      -0.02203448
Li       2.91371364       0.74553486       0.18389574       0.00581739      -0.00931788       0.01865015
Li       0.47053668       2.08222105       0.05963869       0.00616039      -0.03629987       0.02326666
Li       0.05960069       5.00774159       6.76011341      -0.00505538       0.00756830      -0.01732233
Li       1.27238912       1.71548197       2.75144282       0.00547993       0.00137587       0.02123036
Li       2.50357447       3.67217432       6.88732858      -0.00667140       0.03440817      -0.02552490
Li       3.68375057       0.20888705       2.76917499       0.00019466       0.00151652       0.00173344
Ga       4.07004887       2.77697133       4.06565377       0.00765411      -0.02118643       0.02570576
Ga       3.32396066       2.97259903       1.55964829      -0.00610174       0.02226821      -0.02407201
Sn       0.89554268       4.58056615       1.48483023       0.00102631      -0.04852229       0.00505731
Sn       2.07867500       1.17297994       5.46136505      -0.00234988       0.04780357      -0.00668998
12
Lattice="4.519013113043143 0.0018482140814734711 0.0003990227685875653 -2.263772754694526 4.988755108627519 0.00016851408642200446 -0.0010856496514255274 -0.011321876983231546 10.645037877515598" Properties=species:S:1:pos:R:3:forces:R:3 structure_index=13 total_energy=-34.904510498046875 stress="0.0051304991357028484 -0.00040266875294037163 -1.1130046914331615e-05 -0.0004025466041639447 -0.03183411434292793 -0.002755402587354183 -1.0997012395819183e-05 -0.0027553564868867397 -0.0214331466704607" pbc="T T T"
Li      -0.51724373       2.23588176       4.69501997       0.00282445       0.00026302      -0.00080701
Li       4.00744872       0.10720112       1.97142450       0.00004412      -0.00333218      -0.03974961
Li       1.74985564       2.90613976      10.02072089      -0.00297668       0.00180121      -0.00322171
Li       4.00762782       0.09767920       7.41428854      -0.00001138       0.00034860       0.04725339
Ga       1.73928276       4.12127332       4.69452820       0.00548206      -0.02964810      -0.00393330
Ga      -0.51170570       4.74881085      10.01612305      -0.00283235       0.00378177      -0.00074270
Ga      -0.51279574       2.88980695       8.14861873      -0.00049936       0.01481690       0.00590434
Ga      -0.51241462       2.90192019       1.23912697      -0.00036831       0.01492973      -0.00640948
Ga       4.01065164       1.01596344      10.01741340       0.00114138       0.01260927      -0.00510211
Ga       1.74393312       0.29877320       4.68778733      -0.00345591      -0.00520536       0.00131354
Sn       1.74615857       2.19949577       6.75132681       0.00026293      -0.00516330       0.02407004
Sn       1.74627683       2.20681370       2.63235101       0.00038905      -0.00520155      -0.01857540
18
Lattice="7.642338684907852 -0.08769355151839874 -2.8006451293501162 -4.047820832437063 6.223904252901547 -2.853840796516153 0.11216035576948089 -0.0460526045074686 8.169121486141288" Properties=species:S:1:pos:R:3:forces:R:3 structure_index=14 total_energy=-56.01772689819336 stress="-0.018075967207551003 0.00069486751453951 -5.44606227776967e-05 0.000694913964252919 -0.018739180639386177 -0.0009075927082449198 -5.435241837403737e-05 -0.0009075904963538051 -0.01643679104745388" pbc="T T T"
Li      -1.50019698       4.42991755       3.33300715      -0.04134964      -0.02634634       0.00713894
Li       0.32228314       2.80666698       5.12555244      -0.01618951      -0.00668081      -0.01248952
Li       3.73366169       2.25227067       1.10125589       0.00932621       0.01913847      -0.01160721
Li       3.54277675       5.33503110       1.72447580       0.00003377       0.00604965       0.01651390
Li      -3.27464769       6.11331627       1.64996229      -0.01414265      -0.01319547       0.00470911
Li       2.64918597       4.81527599      -3.58549513       0.00239054      -0.04013294       0.02114751
Li       1.87057288       4.08847887      -0.48493335       0.00306257       0.01147487      -0.01666226
Li      -0.46875295       2.31112960      -0.13548692       0.02599076       0.02348915      -0.00649400
Ga       1.32590755       0.42048773       1.45812225       0.00912820       0.00685580      -0.01869629
Ga       5.91551414       0.72349425       2.83259002      -0.00047857      -0.00130570       0.01450837
Sn       1.97355189       1.22538442      -1.35485411      -0.00557824       0.00728775      -0.02888912
Sn       6.56157676       1.46121288       0.01017262       0.02180308      -0.01953074      -0.00496372
Sn       5.19428553       3.48394753       3.39698082       0.00884166       0.00397386       0.00311061
Sn      -0.71511511       5.32860086       0.48152119       0.01456669       0.03920277       0.01602713
Sn       4.40640370       3.21367477      -1.77152329       0.00323687      -0.00224851      -0.01293330
Sn       0.00554133       5.60177660      -2.41818598      -0.00756779      -0.00764849       0.01284933
Sn       4.92592991       0.23184356       5.67913393       0.00642763      -0.01400432       0.04319337
Sn       1.33901674       3.39903030       2.35186728      -0.01950157       0.01362101      -0.02646284
12
Lattice="4.301145830868781 -0.005760410663425238 -0.00013387184616581795 -2.13731086805048 6.4218698407435895 -0.00030902250173787526 0.00023377675689371046 0.005235769924492809 8.462791948862861" Properties=species:S:1:pos:R:3:forces:R:3 structure_index=15 total_energy=-36.04030990600586 stress="0.017021913081407547 0.004557774867862463 3.5589837352745235e-05 0.0045577422715723515 -0.01654108427464962 0.00011184593313373625 3.552914859028533e-05 0.00011179403372807428 -0.02613210678100586" pbc="T T T"
Li      -1.64879949       5.67219216       8.15942295       0.00026154      -0.04521310      -0.00149466
Li       2.64396220       1.31727788       3.92647932      -0.00080414       0.03734608       0.00114596
Li       0.50146221       5.68124614       1.83663326       0.00009883      -0.01932484      -0.01489058
Li       2.64756358       3.41339690       1.79346242       0.00029816       0.02156164       0.00474563
Li       2.64765820       3.41340423       6.05965492       0.00027996       0.02680573      -0.00902463
Li       0.50148880       5.67676605       6.01451276       0.00015580      -0.01642553       0.01220284
Ga       0.49275533       1.31555168       6.02953348       0.00020809       0.00965532      -0.00229330
Ga       0.49281212       1.32307658       1.82216094      -0.00006217      -0.00020678      -0.00412411
Sn       0.49788536       3.62383346       8.15826430      -0.00004474      -0.04631415       0.00022816
Sn      -1.64938020       5.61862373       3.92183711       0.00096306       0.04687297       0.00526138
Sn       0.49671542       3.37306318       3.92711936       0.00029508       0.01604673       0.00116024
Sn       2.64378781       1.30719447       8.15355194      -0.00164950      -0.03080407       0.00708307
4
Lattice="4.055751350953507 0.00020682691751863818 -0.00094862712979766 -0.0002272478659501694 4.055852767687271 -0.0006739475304263022 0.0011447676355502456 0.0008114585995677164 4.448821615234819" Properties=species:S:1:pos:R:3:forces:R:3 structure_index=16 total_energy=-11.800257682800293 stress="0.029259508475661278 -0.00018575550348032266 0.00033426578738726676 -0.00018575422291178256 0.02977491356432438 0.00023723642516415566 0.00033423700369894505 0.0002372062299400568 0.10239141434431076" pbc="T T T"
Li       0.50347861       0.14973518       1.76433056       0.00023012      -0.00052496       0.00006209
Li       2.53117354       2.17739995       1.76370244       0.00022548       0.00026815      -0.00029220
Ga       0.50397699       2.17791955       3.98905876       0.00077739      -0.00099917      -0.00073979
Sn       2.53223327       0.14976426       3.98804886      -0.00123299       0.00125598       0.00096990
12