# Thermal properties / unit cell (natom)

unit:
  temperature:   K
  free_energy:   kJ/mol
  entropy:       J/K/mol
  heat_capacity: J/K/mol

natom: 4    
cutoff_frequency: 0.00000
num_modes: 514500
num_integrated_modes: 514500

zero_point_energy:       6.0743844

thermal_properties:
- temperature:         0.0000000
  free_energy:         6.0743844
  entropy:             0.0000000
  heat_capacity:       0.0000000
  energy:              6.0743844

- temperature:        10.0000000
  free_energy:         6.0411800
  entropy:            11.4231143
  heat_capacity:      23.1944158
  energy:              6.1554112

- temperature:        20.0000000
  free_energy:         5.8063704
  entropy:            35.4162741
  heat_capacity:      45.9538681
  energy:              6.5146959

- temperature:        30.0000000
  free_energy:         5.3436640
  entropy:            56.4920039
  heat_capacity:      57.6426340
  energy:              7.0384241

- temperature:        40.0000000
  free_energy:         4.6881293
  entropy:            74.1080836
  heat_capacity:      64.6861523
  energy:              7.6524526

- temperature:        50.0000000
  free_energy:         3.8701914
  entropy:            89.1093132
  heat_capacity:      69.7294424
  energy:              8.3256571

- temperature:        60.0000000
  free_energy:         2.9123266
  entropy:           102.1876000
  heat_capacity:      73.7183719
  energy:              9.0435826

- temperature:        70.0000000
  free_energy:         1.8312889
  entropy:           113.8060546
  heat_capacity:      77.0086953
  energy:              9.7977127

- temperature:        80.0000000
  free_energy:         0.6400276
  entropy:           124.2748525
  heat_capacity:      79.7748224
  energy:             10.5820158

- temperature:        90.0000000
  free_energy:        -0.6511034
  entropy:           133.8103115
  heat_capacity:      82.1245807
  energy:             11.3918247

- temperature:       100.0000000
  free_energy:        -2.0335960
  entropy:           142.5696973
  heat_capacity:      84.1336594
  energy:             12.2233738

- temperature:       110.0000000
  free_energy:        -3.5003082
  entropy:           150.6714752
  heat_capacity:      85.8592261
  energy:             13.0735541

- temperature:       120.0000000
  free_energy:        -5.0451419
  entropy:           158.2075587
  heat_capacity:      87.3465848
  energy:             13.9397652

- temperature:       130.0000000
  free_energy:        -6.6628188
  entropy:           165.2510357
  heat_capacity:      88.6327392
  energy:             14.8198158

- temperature:       140.0000000
  free_energy:        -8.3487195
  entropy:           171.8612264
  heat_capacity:      89.7484207
  energy:             15.7118522

- temperature:       150.0000000
  free_energy:       -10.0987632
  entropy:           178.0871025
  heat_capacity:      90.7193546
  energy:             16.6143022

- temperature:       160.0000000
  free_energy:       -11.9093178
  entropy:           183.9696691
  heat_capacity:      91.5671431
  energy:             17.5258292

- temperature:       170.0000000
  free_energy:       -13.7771286
  entropy:           189.5436705
  heat_capacity:      92.3099450
  energy:             18.4452954

- temperature:       180.0000000
  free_energy:       -15.6992623
  entropy:           194.8388422
  heat_capacity:      92.9630301
  energy:             19.3717293

- temperature:       190.0000000
  free_energy:       -17.6730619
  entropy:           199.8808522
  heat_capacity:      93.5392454
  energy:             20.3043000

- temperature:       200.0000000
  free_energy:       -19.6961101
  entropy:           204.6920220
  heat_capacity:      94.0494091
  energy:             21.2422943

- temperature:       210.0000000
  free_energy:       -21.7661983
  entropy:           209.2918898
  heat_capacity:      94.5026430
  energy:             22.1850986

- temperature:       220.0000000
  free_energy:       -23.8813011
  entropy:           213.6976560
  heat_capacity:      94.9066533
  energy:             23.1321832

- temperature:       230.0000000
  free_energy:       -26.0395553
  entropy:           217.9245423
  heat_capacity:      95.2679641
  energy:             24.0830894

- temperature:       240.0000000
  free_energy:       -28.2392410
  entropy:           221.9860820
  heat_capacity:      95.5921130
  energy:             25.0374187

- temperature:       250.0000000
  free_energy:       -30.4787662
  entropy:           225.8943592
  heat_capacity:      95.8838129
  energy:             25.9948236

- temperature:       260.0000000
  free_energy:       -32.7566535
  entropy:           229.6602069
  heat_capacity:      96.1470869
  energy:             26.9550002

- temperature:       270.0000000
  free_energy:       -35.0715282
  entropy:           233.2933715
  heat_capacity:      96.3853795
  energy:             27.9176821

- temperature:       280.0000000
  free_energy:       -37.4221081
  entropy:           236.8026521
  heat_capacity:      96.6016487
  energy:             28.8826345

- temperature:       290.0000000
  free_energy:       -39.8071949
  entropy:           240.1960177
  heat_capacity:      96.7984430
  energy:             29.8496502

- temperature:       300.0000000
  free_energy:       -42.2256663
  entropy:           243.4807069
  heat_capacity:      96.9779647
  energy:             30.8185458

- temperature:       310.0000000
  free_energy:       -44.6764689
  entropy:           246.6633134
  heat_capacity:      97.1421228
  energy:             31.7891583

- temperature:       320.0000000
  free_energy:       -47.1586124
  entropy:           249.7498594
  heat_capacity:      97.2925773
  energy:             32.7613426

- temperature:       330.0000000
  free_energy:       -49.6711643
  entropy:           252.7458585
  heat_capacity:      97.4307756
  energy:             33.7349690

- temperature:       340.0000000
  free_energy:       -52.2132447
  entropy:           255.6563710
  heat_capacity:      97.5579839
  energy:             34.7099215

- temperature:       350.0000000
  free_energy:       -54.7840223
  entropy:           258.4860516
  heat_capacity:      97.6753127
  energy:             35.6860958

- temperature:       360.0000000
  free_energy:       -57.3827106
  entropy:           261.2391908
  heat_capacity:      97.7837386
  energy:             36.6633981

- temperature:       370.0000000
  free_energy:       -60.0085642
  entropy:           263.9197513
  heat_capacity:      97.8841232
  energy:             37.6417438

- temperature:       380.0000000
  free_energy:       -62.6608759
  entropy:           266.5314006
  heat_capacity:      97.9772282
  energy:             38.6210563

- temperature:       390.0000000
  free_energy:       -65.3389739
  entropy:           269.0775390
  heat_capacity:      98.0637288
  energy:             39.6012663

- temperature:       400.0000000
  free_energy:       -68.0422189
  entropy:           271.5613244
  heat_capacity:      98.1442251
  energy:             40.5823109

- temperature:       410.0000000
  free_energy:       -70.7700023
  entropy:           273.9856950
  heat_capacity:      98.2192518
  energy:             41.5641326

- temperature:       420.0000000
  free_energy:       -73.5217439
  entropy:           276.3533885
  heat_capacity:      98.2892861
  energy:             42.5466793

- temperature:       430.0000000
  free_energy:       -76.2968897
  entropy:           278.6669601
  heat_capacity:      98.3547552
  energy:             43.5299031

- temperature:       440.0000000
  free_energy:       -79.0949107
  entropy:           280.9287980
  heat_capacity:      98.4160420
  energy:             44.5137604

- temperature:       450.0000000
  free_energy:       -81.9153007
  entropy:           283.1411375
  heat_capacity:      98.4734910
  energy:             45.4982111

- temperature:       460.0000000
  free_energy:       -84.7575754
  entropy:           285.3060737
  heat_capacity:      98.5274119
  energy:             46.4832185

- temperature:       470.0000000
  free_energy:       -87.6212707
  entropy:           287.4255730
  heat_capacity:      98.5780847
  energy:             47.4687486

- temperature:       480.0000000
  free_energy:       -90.5059416
  entropy:           289.5014829
  heat_capacity:      98.6257620
  energy:             48.4547702

- temperature:       490.0000000
  free_energy:       -93.4111609
  entropy:           291.5355418
  heat_capacity:      98.6706729
  energy:             49.4412546

- temperature:       500.0000000
  free_energy:       -96.3365184
  entropy:           293.5293871
  heat_capacity:      98.7130251
  energy:             50.4281751

- temperature:       510.0000000
  free_energy:       -99.2816198
  entropy:           295.4845626
  heat_capacity:      98.7530075
  energy:             51.4155072

- temperature:       520.0000000
  free_energy:      -102.2460856
  entropy:           297.4025261
  heat_capacity:      98.7907919
  energy:             52.4032280

- temperature:       530.0000000
  free_energy:      -105.2295508
  entropy:           299.2846548
  heat_capacity:      98.8265351
  energy:             53.3913162

- temperature:       540.0000000
  free_energy:      -108.2316636
  entropy:           301.1322518
  heat_capacity:      98.8603802
  energy:             54.3797523

- temperature:       550.0000000
  free_energy:      -111.2520849
  entropy:           302.9465506
  heat_capacity:      98.8924580
  energy:             55.3685179

- temperature:       560.0000000
  free_energy:      -114.2904875
  entropy:           304.7287206
  heat_capacity:      98.9228886
  energy:             56.3575960

- temperature:       570.0000000
  free_energy:      -117.3465559
  entropy:           306.4798710
  heat_capacity:      98.9517819
  energy:             57.3469706

- temperature:       580.0000000
  free_energy:      -120.4199851
  entropy:           308.2010551
  heat_capacity:      98.9792390
  energy:             58.3366268

- temperature:       590.0000000
  free_energy:      -123.5104805
  entropy:           309.8932735
  heat_capacity:      99.0053528
  energy:             59.3265509

- temperature:       600.0000000
  free_energy:      -126.6177572
  entropy:           311.5574782
  heat_capacity:      99.0302088
  energy:             60.3167297

- temperature:       610.0000000
  free_energy:      -129.7415397
  entropy:           313.1945751
  heat_capacity:      99.0538860
  energy:             61.3071511

- temperature:       620.0000000
  free_energy:      -132.8815612
  entropy:           314.8054273
  heat_capacity:      99.0764574
  energy:             62.2978037

- temperature:       630.0000000
  free_energy:      -136.0375635
  entropy:           316.3908576
  heat_capacity:      99.0979902
  energy:             63.2886768

- temperature:       640.0000000
  free_energy:      -139.2092962
  entropy:           317.9516508
  heat_capacity:      99.1185468
  energy:             64.2797603

- temperature:       650.0000000
  free_energy:      -142.3965169
  entropy:           319.4885563
  heat_capacity:      99.1381849
  energy:             65.2710447

- temperature:       660.0000000
  free_energy:      -145.5989901
  entropy:           321.0022898
  heat_capacity:      99.1569583
  energy:             66.2625211

- temperature:       670.0000000
  free_energy:      -148.8164877
  entropy:           322.4935356
  heat_capacity:      99.1749165
  energy:             67.2541811

- temperature:       680.0000000
  free_energy:      -152.0487881
  entropy:           323.9629485
  heat_capacity:      99.1921060
  energy:             68.2460169

- temperature:       690.0000000
  free_energy:      -155.2956760
  entropy:           325.4111549
  heat_capacity:      99.2085696
  energy:             69.2380208

- temperature:       700.0000000
  free_energy:      -158.5569425
  entropy:           326.8387550
  heat_capacity:      99.2243475
  energy:             70.2301860

- temperature:       710.0000000
  free_energy:      -161.8323843
  entropy:           328.2463239
  heat_capacity:      99.2394770
  energy:             71.2225056

- temperature:       720.0000000
  free_energy:      -165.1218040
  entropy:           329.6344132
  heat_capacity:      99.2539931
  energy:             72.2149735

- temperature:       730.0000000
  free_energy:      -168.4250094
  entropy:           331.0035520
  heat_capacity:      99.2679282
  energy:             73.2075836

- temperature:       740.0000000
  free_energy:      -171.7418136
  entropy:           332.3542484
  heat_capacity:      99.2813128
  energy:             74.2003302

- temperature:       750.0000000
  free_energy:      -175.0720346
  entropy:           333.6869902
  heat_capacity:      99.2941755
  energy:             75.1932081

- temperature:       760.0000000
  free_energy:      -178.4154951
  entropy:           335.0022463
  heat_capacity:      99.3065428
  energy:             76.1862121

- temperature:       770.0000000
  free_energy:      -181.7720227
  entropy:           336.3004676
  heat_capacity:      99.3184398
  energy:             77.1793374

- temperature:       780.0000000
  free_energy:      -185.1414491
  entropy:           337.5820878
  heat_capacity:      99.3298899
  energy:             78.1725794

- temperature:       790.0000000
  free_energy:      -188.5236105
  entropy:           338.8475244
  heat_capacity:      99.3409152
  energy:             79.1659338

- temperature:       800.0000000
  free_energy:      -191.9183470
  entropy:           340.0971792
  heat_capacity:      99.3515362
  energy:             80.1593963

- temperature:       810.0000000
  free_energy:      -195.3255028
  entropy:           341.3314395
  heat_capacity:      99.3617726
  energy:             81.1529632

- temperature:       820.0000000
  free_energy:      -198.7449257
  entropy:           342.5506784
  heat_capacity:      99.3716424
  energy:             82.1466306

- temperature:       830.0000000
  free_energy:      -202.1764675
  entropy:           343.7552559
  heat_capacity:      99.3811631
  energy:             83.1403949

- temperature:       840.0000000
  free_energy:      -205.6199831
  entropy:           344.9455189
  heat_capacity:      99.3903507
  energy:             84.1342527

- temperature:       850.0000000
  free_energy:      -209.0753313
  entropy:           346.1218025
  heat_capacity:      99.3992206
  energy:             85.1282008

- temperature:       860.0000000
  free_energy:      -212.5423737
  entropy:           347.2844300
  heat_capacity:      99.4077872
  energy:             86.1222361

- temperature:       870.0000000
  free_energy:      -216.0209754
  entropy:           348.4337138
  heat_capacity:      99.4160642
  energy:             87.1163556

- temperature:       880.0000000
  free_energy:      -219.5110045
  entropy:           349.5699556
  heat_capacity:      99.4240643
  energy:             88.1105565

- temperature:       890.0000000
  free_energy:      -223.0123320
  entropy:           350.6934472
  heat_capacity:      99.4317999
  energy:             89.1048360

- temperature:       900.0000000
  free_energy:      -226.5248319
  entropy:           351.8044705
  heat_capacity:      99.4392823
  energy:             90.0991916

- temperature:       910.0000000
  free_energy:      -230.0483808
  entropy:           352.9032985
  heat_capacity:      99.4465225
  energy:             91.0936209

- temperature:       920.0000000
  free_energy:      -233.5828581
  entropy:           353.9901950
  heat_capacity:      99.4535308
  energy:             92.0881213

- temperature:       930.0000000
  free_energy:      -237.1281457
  entropy:           355.0654156
  heat_capacity:      99.4603169
  energy:             93.0826907

- temperature:       940.0000000
  free_energy:      -240.6841283
  entropy:           356.1292077
  heat_capacity:      99.4668901
  energy:             94.0773269

- temperature:       950.0000000
  free_energy:      -244.2506926
  entropy:           357.1818110
  heat_capacity:      99.4732593
  energy:             95.0720279

- temperature:       960.0000000
  free_energy:      -247.8277280
  entropy:           358.2234578
  heat_capacity:      99.4794327
  energy:             96.0667915

- temperature:       970.0000000
  free_energy:      -251.4151260
  entropy:           359.2543731
  heat_capacity:      99.4854182
  energy:             97.0616159

- temperature:       980.0000000
  free_energy:      -255.0127804
  entropy:           360.2747751
  heat_capacity:      99.4912235
  energy:             98.0564992

- temperature:       990.0000000
  free_energy:      -258.6205871
  entropy:           361.2848757
  heat_capacity:      99.4968555
  energy:             99.0514398

- temperature:      1000.0000000
  free_energy:      -262.2384443
  entropy:           362.2848800
  heat_capacity:      99.5023212
  energy:            100.0464358
