phonopy:
  version: "2.37.1"
  frequency_unit_conversion_factor: 15.633302
  symmetry_tolerance: 1.00000e-05

space_group:
  type: "P1"
  number: 1
  Hall_symbol: "P 1"

primitive_matrix:
- [  1.000000000000000,  0.000000000000000,  0.000000000000000 ]
- [  0.000000000000000,  1.000000000000000,  0.000000000000000 ]
- [  0.000000000000000,  0.000000000000000,  1.000000000000000 ]

supercell_matrix:
- [   3,   0,   0 ]
- [   0,   3,   0 ]
- [   0,   0,   2 ]

primitive_cell:
  lattice:
  - [     3.340410481377857,     0.000000000000000,     0.000000000000000 ] # a
  - [     0.000549361358956,     3.341485613513531,     0.000000000000000 ] # b
  - [     0.000216327478286,     0.000889671903226,     6.452960117768303 ] # c
  points:
  - symbol: Li # 1
    coordinates: [  0.954477201066465,  0.722730729684844,  0.363266742151668 ]
    mass: 6.940000
  - symbol: Li # 2
    coordinates: [  0.954403157733306,  0.722836155390314,  0.906672976388039 ]
    mass: 6.940000
  - symbol: Ga # 3
    coordinates: [  0.454407831311912,  0.222801660086309,  0.134876164225575 ]
    mass: 69.723000
  - symbol: Sn # 4
    coordinates: [  0.454614941310161,  0.222671809594120,  0.634879767646293 ]
    mass: 118.710000
  reciprocal_lattice: # without 2pi
  - [     0.299364406133560,    -0.000049217400880,    -0.000010029034512 ] # a*
  - [     0.000000000000000,     0.299268084817074,    -0.000041260197140 ] # b*
  - [     0.000000000000000,     0.000000000000000,     0.154967639927990 ] # c*

unit_cell:
  lattice:
  - [     3.340410481377857,     0.000000000000000,     0.000000000000000 ] # a
  - [     0.000549361358956,     3.341485613513531,     0.000000000000000 ] # b
  - [     0.000216327478286,     0.000889671903226,     6.452960117768301 ] # c
  points:
  - symbol: Li # 1
    coordinates: [  0.954477201066466,  0.722730729684844,  0.363266742151668 ]
    mass: 6.940000
    reduced_to: 1
  - symbol: Li # 2
    coordinates: [  0.954403157733306,  0.722836155390314,  0.906672976388039 ]
    mass: 6.940000
    reduced_to: 2
  - symbol: Ga # 3
    coordinates: [  0.454407831311912,  0.222801660086309,  0.134876164225575 ]
    mass: 69.723000
    reduced_to: 3
  - symbol: Sn # 4
    coordinates: [  0.454614941310161,  0.222671809594120,  0.634879767646293 ]
    mass: 118.710000
    reduced_to: 4

supercell:
  lattice:
  - [    10.021231444133573,     0.000000000000000,     0.000000000000000 ] # a
  - [     0.001648084076868,    10.024456840540592,     0.000000000000000 ] # b
  - [     0.000432654956572,     0.001779343806452,    12.905920235536602 ] # c
  points:
  - symbol: Li # 1
    coordinates: [  0.318159067022155,  0.240910243228281,  0.181633371075834 ]
    mass: 6.940000
    reduced_to: 1
  - symbol: Li # 2
    coordinates: [  0.651492400355488,  0.240910243228281,  0.181633371075834 ]
    mass: 6.940000
    reduced_to: 1
  - symbol: Li # 3
    coordinates: [  0.984825733688822,  0.240910243228281,  0.181633371075834 ]
    mass: 6.940000
    reduced_to: 1
  - symbol: Li # 4
    coordinates: [  0.318159067022155,  0.574243576561615,  0.181633371075834 ]
    mass: 6.940000
    reduced_to: 1
  - symbol: Li # 5
    coordinates: [  0.651492400355488,  0.574243576561615,  0.181633371075834 ]
    mass: 6.940000
    reduced_to: 1
  - symbol: Li # 6
    coordinates: [  0.984825733688822,  0.574243576561615,  0.181633371075834 ]
    mass: 6.940000
    reduced_to: 1
  - symbol: Li # 7
    coordinates: [  0.318159067022155,  0.907576909894948,  0.181633371075834 ]
    mass: 6.940000
    reduced_to: 1
  - symbol: Li # 8
    coordinates: [  0.651492400355488,  0.907576909894948,  0.181633371075834 ]
    mass: 6.940000
    reduced_to: 1
  - symbol: Li # 9
    coordinates: [  0.984825733688822,  0.907576909894948,  0.181633371075834 ]
    mass: 6.940000
    reduced_to: 1
  - symbol: Li # 10
    coordinates: [  0.318159067022155,  0.240910243228281,  0.681633371075834 ]
    mass: 6.940000
    reduced_to: 1
  - symbol: Li # 11
    coordinates: [  0.651492400355488,  0.240910243228281,  0.681633371075834 ]
    mass: 6.940000
    reduced_to: 1
  - symbol: Li # 12
    coordinates: [  0.984825733688822,  0.240910243228281,  0.681633371075834 ]
    mass: 6.940000
    reduced_to: 1
  - symbol: Li # 13
    coordinates: [  0.318159067022155,  0.574243576561615,  0.681633371075834 ]
    mass: 6.940000
    reduced_to: 1
  - symbol: Li # 14
    coordinates: [  0.651492400355488,  0.574243576561615,  0.681633371075834 ]
    mass: 6.940000
    reduced_to: 1
  - symbol: Li # 15
    coordinates: [  0.984825733688822,  0.574243576561615,  0.681633371075834 ]
    mass: 6.940000
    reduced_to: 1
  - symbol: Li # 16
    coordinates: [  0.318159067022155,  0.907576909894948,  0.681633371075834 ]
    mass: 6.940000
    reduced_to: 1
  - symbol: Li # 17
    coordinates: [  0.651492400355488,  0.907576909894948,  0.681633371075834 ]
    mass: 6.940000
    reduced_to: 1
  - symbol: Li # 18
    coordinates: [  0.984825733688822,  0.907576909894948,  0.681633371075834 ]
    mass: 6.940000
    reduced_to: 1
  - symbol: Li # 19
    coordinates: [  0.318134385911102,  0.240945385130105,  0.453336488194019 ]
    mass: 6.940000
    reduced_to: 19
  - symbol: Li # 20
    coordinates: [  0.651467719244435,  0.240945385130105,  0.453336488194019 ]
    mass: 6.940000
    reduced_to: 19
  - symbol: Li # 21
    coordinates: [  0.984801052577769,  0.240945385130105,  0.453336488194019 ]
    mass: 6.940000
    reduced_to: 19
  - symbol: Li # 22
    coordinates: [  0.318134385911102,  0.574278718463438,  0.453336488194019 ]
    mass: 6.940000
    reduced_to: 19
  - symbol: Li # 23
    coordinates: [  0.651467719244435,  0.574278718463438,  0.453336488194019 ]
    mass: 6.940000
    reduced_to: 19
  - symbol: Li # 24
    coordinates: [  0.984801052577769,  0.574278718463438,  0.453336488194019 ]
    mass: 6.940000
    reduced_to: 19
  - symbol: Li # 25
    coordinates: [  0.318134385911102,  0.907612051796771,  0.453336488194019 ]
    mass: 6.940000
    reduced_to: 19
  - symbol: Li # 26
    coordinates: [  0.651467719244435,  0.907612051796771,  0.453336488194019 ]
    mass: 6.940000
    reduced_to: 19
  - symbol: Li # 27
    coordinates: [  0.984801052577769,  0.907612051796771,  0.453336488194019 ]
    mass: 6.940000
    reduced_to: 19
  - symbol: Li # 28
    coordinates: [  0.318134385911102,  0.240945385130105,  0.953336488194019 ]
    mass: 6.940000
    reduced_to: 19
  - symbol: Li # 29
    coordinates: [  0.651467719244435,  0.240945385130105,  0.953336488194019 ]
    mass: 6.940000
    reduced_to: 19
  - symbol: Li # 30
    coordinates: [  0.984801052577769,  0.240945385130105,  0.953336488194019 ]
    mass: 6.940000
    reduced_to: 19
  - symbol: Li # 31
    coordinates: [  0.318134385911102,  0.574278718463438,  0.953336488194019 ]
    mass: 6.940000
    reduced_to: 19
  - symbol: Li # 32
    coordinates: [  0.651467719244435,  0.574278718463438,  0.953336488194019 ]
    mass: 6.940000
    reduced_to: 19
  - symbol: Li # 33
    coordinates: [  0.984801052577769,  0.574278718463438,  0.953336488194019 ]
    mass: 6.940000
    reduced_to: 19
  - symbol: Li # 34
    coordinates: [  0.318134385911102,  0.907612051796771,  0.953336488194019 ]
    mass: 6.940000
    reduced_to: 19
  - symbol: Li # 35
    coordinates: [  0.651467719244435,  0.907612051796771,  0.953336488194019 ]
    mass: 6.940000
    reduced_to: 19
  - symbol: Li # 36
    coordinates: [  0.984801052577769,  0.907612051796771,  0.953336488194019 ]
    mass: 6.940000
    reduced_to: 19
  - symbol: Ga # 37
    coordinates: [  0.151469277103971,  0.074267220028770,  0.067438082112788 ]
    mass: 69.723000
    reduced_to: 37
  - symbol: Ga # 38
    coordinates: [  0.484802610437304,  0.074267220028770,  0.067438082112788 ]
    mass: 69.723000
    reduced_to: 37
  - symbol: Ga # 39
    coordinates: [  0.818135943770637,  0.074267220028770,  0.067438082112788 ]
    mass: 69.723000
    reduced_to: 37
  - symbol: Ga # 40
    coordinates: [  0.151469277103971,  0.407600553362103,  0.067438082112788 ]
    mass: 69.723000
    reduced_to: 37
  - symbol: Ga # 41
    coordinates: [  0.484802610437304,  0.407600553362103,  0.067438082112788 ]
    mass: 69.723000
    reduced_to: 37
  - symbol: Ga # 42
    coordinates: [  0.818135943770637,  0.407600553362103,  0.067438082112788 ]
    mass: 69.723000
    reduced_to: 37
  - symbol: Ga # 43
    coordinates: [  0.151469277103971,  0.740933886695436,  0.067438082112788 ]
    mass: 69.723000
    reduced_to: 37
  - symbol: Ga # 44
    coordinates: [  0.484802610437304,  0.740933886695436,  0.067438082112788 ]
    mass: 69.723000
    reduced_to: 37
  - symbol: Ga # 45
    coordinates: [  0.818135943770637,  0.740933886695436,  0.067438082112788 ]
    mass: 69.723000
    reduced_to: 37
  - symbol: Ga # 46
    coordinates: [  0.151469277103971,  0.074267220028770,  0.567438082112788 ]
    mass: 69.723000
    reduced_to: 37
  - symbol: Ga # 47
    coordinates: [  0.484802610437304,  0.074267220028770,  0.567438082112788 ]
    mass: 69.723000
    reduced_to: 37
  - symbol: Ga # 48
    coordinates: [  0.818135943770637,  0.074267220028770,  0.567438082112788 ]
    mass: 69.723000
    reduced_to: 37
  - symbol: Ga # 49
    coordinates: [  0.151469277103971,  0.407600553362103,  0.567438082112788 ]
    mass: 69.723000
    reduced_to: 37
  - symbol: Ga # 50
    coordinates: [  0.484802610437304,  0.407600553362103,  0.567438082112788 ]
    mass: 69.723000
    reduced_to: 37
  - symbol: Ga # 51
    coordinates: [  0.818135943770637,  0.407600553362103,  0.567438082112788 ]
    mass: 69.723000
    reduced_to: 37
  - symbol: Ga # 52
    coordinates: [  0.151469277103971,  0.740933886695436,  0.567438082112788 ]
    mass: 69.723000
    reduced_to: 37
  - symbol: Ga # 53
    coordinates: [  0.484802610437304,  0.740933886695436,  0.567438082112788 ]
    mass: 69.723000
    reduced_to: 37
  - symbol: Ga # 54
    coordinates: [  0.818135943770637,  0.740933886695436,  0.567438082112788 ]
    mass: 69.723000
    reduced_to: 37
  - symbol: Sn # 55
    coordinates: [  0.151538313770054,  0.074223936531373,  0.317439883823147 ]
    mass: 118.710000
    reduced_to: 55
  - symbol: Sn # 56
    coordinates: [  0.484871647103387,  0.074223936531373,  0.317439883823147 ]
    mass: 118.710000
    reduced_to: 55
  - symbol: Sn # 57
    coordinates: [  0.818204980436720,  0.074223936531373,  0.317439883823147 ]
    mass: 118.710000
    reduced_to: 55
  - symbol: Sn # 58
    coordinates: [  0.151538313770054,  0.407557269864707,  0.317439883823147 ]
    mass: 118.710000
    reduced_to: 55
  - symbol: Sn # 59
    coordinates: [  0.484871647103387,  0.407557269864707,  0.317439883823147 ]
    mass: 118.710000
    reduced_to: 55
  - symbol: Sn # 60
    coordinates: [  0.818204980436720,  0.407557269864707,  0.317439883823147 ]
    mass: 118.710000
    reduced_to: 55
  - symbol: Sn # 61
    coordinates: [  0.151538313770054,  0.740890603198040,  0.317439883823147 ]
    mass: 118.710000
    reduced_to: 55
  - symbol: Sn # 62
    coordinates: [  0.484871647103387,  0.740890603198040,  0.317439883823147 ]
    mass: 118.710000
    reduced_to: 55
  - symbol: Sn # 63
    coordinates: [  0.818204980436720,  0.740890603198040,  0.317439883823147 ]
    mass: 118.710000
    reduced_to: 55
  - symbol: Sn # 64
    coordinates: [  0.151538313770054,  0.074223936531373,  0.817439883823147 ]
    mass: 118.710000
    reduced_to: 55
  - symbol: Sn # 65
    coordinates: [  0.484871647103387,  0.074223936531373,  0.817439883823147 ]
    mass: 118.710000
    reduced_to: 55
  - symbol: Sn # 66
    coordinates: [  0.818204980436720,  0.074223936531373,  0.817439883823147 ]
    mass: 118.710000
    reduced_to: 55
  - symbol: Sn # 67
    coordinates: [  0.151538313770054,  0.407557269864707,  0.817439883823147 ]
    mass: 118.710000
    reduced_to: 55
  - symbol: Sn # 68
    coordinates: [  0.484871647103387,  0.407557269864707,  0.817439883823147 ]
    mass: 118.710000
    reduced_to: 55
  - symbol: Sn # 69
    coordinates: [  0.818204980436720,  0.407557269864707,  0.817439883823147 ]
    mass: 118.710000
    reduced_to: 55
  - symbol: Sn # 70
    coordinates: [  0.151538313770054,  0.740890603198040,  0.817439883823147 ]
    mass: 118.710000
    reduced_to: 55
  - symbol: Sn # 71
    coordinates: [  0.484871647103387,  0.740890603198040,  0.817439883823147 ]
    mass: 118.710000
    reduced_to: 55
  - symbol: Sn # 72
    coordinates: [  0.818204980436720,  0.740890603198040,  0.817439883823147 ]
    mass: 118.710000
    reduced_to: 55

displacements:
- atom:    1
  displacement:
    [   0.0100000000000000,  0.0000000000000000,  0.0000000000000000 ]
  forces:
  - [  -0.0212152488529682,  0.0000313557684422, -0.0391420349478722 ]
  - [   0.0014870713930577,  0.0000157076865435, -0.0395827665925026 ]
  - [   0.0013739566784352,  0.0000159199116752, -0.0387519299983978 ]
  - [   0.0004380419850349,  0.0000100213364931, -0.0391657762229443 ]
  - [  -0.0000145994126797,  0.0000073008413892, -0.0392208136618137 ]
  - [  -0.0000187978148460,  0.0000256862258539, -0.0391069501638412 ]
  - [   0.0004380722530186,  0.0000208448618650, -0.0391672961413860 ]
  - [  -0.0000169329741766,  0.0000236593186855, -0.0392228811979294 ]
  - [  -0.0000180692877620,  0.0000066242646426, -0.0391083844006062 ]
  - [   0.0000941627658904,  0.0000191872240975, -0.0391612313687801 ]
  - [   0.0001802876940928,  0.0000133237335831, -0.0391517654061317 ]
  - [   0.0001769395312294,  0.0000160066410899, -0.0391746871173382 ]
  - [   0.0001214805524796,  0.0000156425412570, -0.0391627773642540 ]
  - [   0.0001681583817117,  0.0000249975309998, -0.0391496643424034 ]
  - [   0.0001682403963059,  0.0000055814016378, -0.0391809791326523 ]
  - [   0.0001209606416523,  0.0000160092022270, -0.0391623787581921 ]
  - [   0.0001694426173344,  0.0000061840983108, -0.0391502603888512 ]
  - [   0.0001691965153441,  0.0000270644668490, -0.0391750782728195 ]
  - [   0.0003366215387359, -0.0005372258601710,  0.0367091484367847 ]
  - [   0.0006501340540126, -0.0005351868458092,  0.0366438701748848 ]
  - [   0.0006494701374322, -0.0005375981563702,  0.0367821529507637 ]
  - [   0.0009914452675730, -0.0005373267922550,  0.0367105752229691 ]
  - [   0.0003678618813865, -0.0007808555383235,  0.0363359451293945 ]
  - [   0.0003652176819742, -0.0002886728325393,  0.0370929911732674 ]
  - [   0.0009919352596626, -0.0005368664860725,  0.0367113947868347 ]
  - [   0.0003674139443319, -0.0002923225983977,  0.0363349728286266 ]
  - [   0.0003640251234174, -0.0007840748876333,  0.0370944514870644 ]
  - [   0.0005960803246126, -0.0005368842976168,  0.0367270708084106 ]
  - [   0.0008462671539746, -0.0005356576293707,  0.0365332700312138 ]
  - [   0.0008328692056239, -0.0005364640383050,  0.0368920750916004 ]
  - [   0.0008938424289227, -0.0005366662517190,  0.0367155224084854 ]
  - [   0.0004448713734746, -0.0005974640953355,  0.0368224754929543 ]
  - [   0.0004443340003490, -0.0004709163913503,  0.0366052128374577 ]
  - [   0.0008968573529273, -0.0005345279350877,  0.0367123149335384 ]
  - [   0.0004478070477489, -0.0004729740321636,  0.0368206128478050 ]
  - [   0.0004435289883986, -0.0005999889690429,  0.0366039760410786 ]
  - [   0.0030203582718968,  0.0024010478518903,  0.0036932895891368 ]
  - [   0.0030549957882613, -0.0028350693173707, -0.0016080280765891 ]
  - [   0.0002523872535676, -0.0001787942892406,  0.0010700637940317 ]
  - [   0.0030214802827686, -0.0027678732294589,  0.0036940868012607 ]
  - [   0.0030531228985637,  0.0024644045624882, -0.0016054159495980 ]
  - [   0.0002507646859158, -0.0001843331992859,  0.0010659545660019 ]
  - [   0.0002455341746099, -0.0001796052092686,  0.0011500001419336 ]
  - [   0.0002464073768351, -0.0001802317856345,  0.0009927386417985 ]
  - [   0.0004967227578163, -0.0001818191522034,  0.0010602893307805 ]
  - [   0.0002692062989809, -0.0002551831421442,  0.0007766858907416 ]
  - [   0.0002705684164539, -0.0001054265303537,  0.0013541288208216 ]
  - [   0.0003221238148399, -0.0001823205093388,  0.0010652790078893 ]
  - [   0.0002716717717703, -0.0001050966675393,  0.0007792899268679 ]
  - [   0.0002694716677070, -0.0002544256276451,  0.0013577935751528 ]
  - [   0.0003195332828909, -0.0001787989021977,  0.0010685753077269 ]
  - [   0.0002900132094510, -0.0001835330913309,  0.0009658105554990 ]
  - [   0.0002863849804271, -0.0001827389933169,  0.0011640818556771 ]
  - [   0.0003583170473576, -0.0001821118057705,  0.0010678353719413 ]
  - [   0.0012943337205797,  0.0033975327387452, -0.0018776834476739 ]
  - [   0.0013259411789477, -0.0020312955603004,  0.0046922247856855 ]
  - [  -0.0013825972564518,  0.0007031459826976,  0.0013821967877448 ]
  - [   0.0012957103317603, -0.0019943150691688, -0.0018781130202115 ]
  - [   0.0013239250984043,  0.0034321607090533,  0.0046900017186999 ]
  - [  -0.0013815170386806,  0.0007020637858659,  0.0013819842133671 ]
  - [  -0.0012906808406115,  0.0007011183770373,  0.0015079852892086 ]
  - [  -0.0012892482336611,  0.0007016351446509,  0.0012591418344527 ]
  - [  -0.0009838102851063,  0.0007008445099927,  0.0013849231181666 ]
  - [  -0.0011670016683638,  0.0007037592586130,  0.0012337692314759 ]
  - [  -0.0011681544128805,  0.0006923507899046,  0.0015334046911448 ]
  - [  -0.0010027433745563,  0.0007002337370068,  0.0013831708347425 ]
  - [  -0.0011644130572677,  0.0006925214547664,  0.0012319899396971 ]
  - [  -0.0011649394873530,  0.0007096172776073,  0.0015290970914066 ]
  - [  -0.0009993321727961,  0.0006994747091085,  0.0013768534408882 ]
  - [  -0.0011058356612921,  0.0007037303294055,  0.0014886375283822 ]
  - [  -0.0011080023832619,  0.0007040817290545,  0.0012742409016937 ]
  - [  -0.0010836466681212,  0.0007038178155199,  0.0013833529083058 ]
- atom:    1
  displacement:
    [  -0.0100000000000000,  0.0000000000000000,  0.0000000000000000 ]
  forces:
  - [   0.0215203389525414,  0.0000008603092283, -0.0391816832125187 ]
  - [  -0.0010694230441004,  0.0000165794044733, -0.0387547276914120 ]
  - [  -0.0011829222785309,  0.0000158780021593, -0.0395790897309780 ]
  - [  -0.0001334678381681,  0.0000110984728963, -0.0391644723713398 ]
  - [   0.0003231884911656,  0.0000242443347815, -0.0391042828559875 ]
  - [   0.0003197295591235,  0.0000080242753029, -0.0392242819070816 ]
  - [  -0.0001335256965831,  0.0000199063215405, -0.0391661189496517 ]
  - [   0.0003217232879251,  0.0000059781596065, -0.0391061268746853 ]
  - [   0.0003195791505277,  0.0000237578060478, -0.0392255671322346 ]
  - [   0.0002016503131017,  0.0000189511338249, -0.0391611717641354 ]
  - [   0.0001274443784496,  0.0000134193687700, -0.0391744971275330 ]
  - [   0.0001239036209881,  0.0000158381881192, -0.0391519702970982 ]
  - [   0.0001859661424533,  0.0000158558941621, -0.0391626469790936 ]
  - [   0.0001358383451588,  0.0000042237770685, -0.0391742363572121 ]
  - [   0.0001359214074910,  0.0000262692192337, -0.0391566157341003 ]
  - [   0.0001852673012763,  0.0000159423798323, -0.0391622595489025 ]
  - [   0.0001373691484332,  0.0000269969459623, -0.0391745753586292 ]
  - [   0.0001369484234601,  0.0000063535990193, -0.0391508340835571 ]
  - [   0.0009249334689230, -0.0005360026843846,  0.0367081910371780 ]
  - [   0.0006140163168311, -0.0005358019843698,  0.0367782711982727 ]
  - [   0.0006136691663414, -0.0005373649764806,  0.0366477854549885 ]
  - [   0.0002745003439486, -0.0005381465889513,  0.0367091149091721 ]
  - [   0.0009007517946884, -0.0002904493594542,  0.0370916426181793 ]
  - [   0.0008977483958006, -0.0007785643683746,  0.0363377332687378 ]
  - [   0.0002733968431130, -0.0005364924436435,  0.0367102846503258 ]
  - [   0.0008998888079077, -0.0007815971039236,  0.0370904877781868 ]
  - [   0.0008971178904176, -0.0002946788445115,  0.0363389700651169 ]
  - [   0.0006663340609521, -0.0005351749714464,  0.0367259234189987 ]
  - [   0.0004283030866645, -0.0005356641486287,  0.0368887335062027 ]
  - [   0.0004152817418799, -0.0005366284167394,  0.0365372709929943 ]
  - [   0.0003645503893495, -0.0005367140984163,  0.0367154367268085 ]
  - [   0.0008172197267413, -0.0004680259153247,  0.0366056747734547 ]
  - [   0.0008161533623934, -0.0006004907190800,  0.0368218608200550 ]
  - [   0.0003677952336147, -0.0005348027916625,  0.0367120169103146 ]
  - [   0.0008192871464416, -0.0006019361317158,  0.0366046130657196 ]
  - [   0.0008160016732290, -0.0004694527015090,  0.0368213690817356 ]
  - [  -0.0024217073805630, -0.0028245227877051, -0.0015986718935892 ]
  - [  -0.0023960578255355,  0.0024079203139991,  0.0036962633021176 ]
  - [   0.0003800665726885, -0.0001792883267626,  0.0010703527368605 ]
  - [  -0.0024232100695372,  0.0024637961760163, -0.0016054259613156 ]
  - [  -0.0023932522162795, -0.0027681356295943,  0.0036929605994374 ]
  - [   0.0003779831458814, -0.0001836976152845,  0.0010666046291590 ]
  - [   0.0003827974724118, -0.0001803961058613,  0.0009928152430803 ]
  - [   0.0003835543757305, -0.0001804303319659,  0.0011506691807881 ]
  - [   0.0001272304507438, -0.0001815204159357,  0.0010603788541630 ]
  - [   0.0003597862669267, -0.0001043686061166,  0.0013502638321370 ]
  - [   0.0003611155843828, -0.0002561361179687,  0.0007814713171683 ]
  - [   0.0003057759604417, -0.0001825723447837,  0.0010654212674126 ]
  - [   0.0003619487397373, -0.0002563477901276,  0.0013541481457651 ]
  - [   0.0003598449402489, -0.0001039411872625,  0.0007840998587199 ]
  - [   0.0003038592985831, -0.0001787790097296,  0.0010681170970201 ]
  - [   0.0003351322957315, -0.0001832260459196,  0.0011648322688416 ]
  - [   0.0003318314848002, -0.0001825901272241,  0.0009649288840592 ]
  - [   0.0002679470344447, -0.0001819622266339,  0.0010678507387638 ]
  - [  -0.0035241162404418, -0.0020318944007158,  0.0046951090916991 ]
  - [  -0.0034910265821964,  0.0033941534347832, -0.0018734455807135 ]
  - [  -0.0008155735558830,  0.0007032620487735,  0.0013824993511662 ]
  - [  -0.0035248189233243,  0.0034397020936012,  0.0047004921361804 ]
  - [  -0.0034884854685515, -0.0019861264154315, -0.0018694119062275 ]
  - [  -0.0008152156951837,  0.0007025776430964,  0.0013824005145580 ]
  - [  -0.0009066489874385,  0.0007015931187198,  0.0012598144821823 ]
  - [  -0.0009054844267666,  0.0007005493389443,  0.0015059707220644 ]
  - [  -0.0012126704677939,  0.0007010215194896,  0.0013851064722985 ]
  - [  -0.0010251142084599,  0.0006866957992315,  0.0015309508889914 ]
  - [  -0.0010265121236444,  0.0007089655846357,  0.0012360173277557 ]
  - [  -0.0011956612579525,  0.0007001361809671,  0.0013826030772179 ]
  - [  -0.0010221698321402,  0.0007099637296051,  0.0015292773023248 ]
  - [  -0.0010240732226521,  0.0006921377498657,  0.0012327643344179 ]
  - [  -0.0011920484248549,  0.0006991790141910,  0.0013764484319836 ]
  - [  -0.0010904606897384,  0.0007038188632578,  0.0012745134299621 ]
  - [  -0.0010934323072433,  0.0007041613571346,  0.0014884031843394 ]
  - [  -0.0011135539971292,  0.0007041462231427,  0.0013831504620612 ]
- atom:    1
  displacement:
    [   0.0000016440631955,  0.0099999998648528,  0.0000000000000000 ]
  forces:
  - [   0.0001643901923671, -0.0213363021612167, -0.0391605943441391 ]
  - [   0.0001486927940277,  0.0003026947379112, -0.0391686707735062 ]
  - [   0.0001556820934638,  0.0003022979944944, -0.0391652509570122 ]
  - [   0.0001526791602373,  0.0013403291814029, -0.0395784825086594 ]
  - [   0.0001459289342165, -0.0001541218807688, -0.0392214059829712 ]
  - [   0.0001592962071300, -0.0001535192131996, -0.0392246060073376 ]
  - [   0.0001516806660220,  0.0012296563945711, -0.0387538857758045 ]
  - [   0.0001615934306756, -0.0001550335437059, -0.0391056500375271 ]
  - [   0.0001420169137418, -0.0001540643861517, -0.0391080528497696 ]
  - [   0.0001480074133724, -0.0000349663896486, -0.0391611196100712 ]
  - [   0.0001537782954983, -0.0000189608545043, -0.0391631647944450 ]
  - [   0.0001504666870460, -0.0000165520468727, -0.0391633324325085 ]
  - [   0.0001538278884254,  0.0000425310390710, -0.0391514487564564 ]
  - [   0.0001623473945074,  0.0000307748523483, -0.0391497313976288 ]
  - [   0.0001417500898242,  0.0000321584520862, -0.0391565971076488 ]
  - [   0.0001531502930447,  0.0000425851903856, -0.0391735062003136 ]
  - [   0.0001430701231584,  0.0000327855814248, -0.0391744673252106 ]
  - [   0.0001633602660149,  0.0000329898903146, -0.0391751155257225 ]
  - [   0.0006299407687038, -0.0008311134297401,  0.0367077961564064 ]
  - [   0.0006305793067440, -0.0001770700328052,  0.0367085933685303 ]
  - [   0.0006336125079542, -0.0001790553797036,  0.0367123447358608 ]
  - [   0.0006330402102321, -0.0005176864797249,  0.0366447716951370 ]
  - [   0.0003900660085492, -0.0008023960981518,  0.0363364666700363 ]
  - [   0.0008758124895394, -0.0008004867704585,  0.0363377630710602 ]
  - [   0.0006331073818728, -0.0005207289941609,  0.0367811582982540 ]
  - [   0.0008787887636572, -0.0008027739822865,  0.0370903946459293 ]
  - [   0.0003848476335406, -0.0008052689954638,  0.0370947644114494 ]
  - [   0.0006303027039394, -0.0005700574256480,  0.0367264710366726 ]
  - [   0.0006309798336588, -0.0002696709707379,  0.0367166586220264 ]
  - [   0.0006306180730462, -0.0002708659740165,  0.0367204993963242 ]
  - [   0.0006293309852481, -0.0003224917745683,  0.0365327708423138 ]
  - [   0.0005662171170115, -0.0007198655512184,  0.0368229523301125 ]
  - [   0.0006947303190827, -0.0007224767468870,  0.0368223488330841 ]
  - [   0.0006324619753286, -0.0003334174398333,  0.0368833951652050 ]
  - [   0.0006980685866438, -0.0007237885147333,  0.0366041250526905 ]
  - [   0.0005645966157317, -0.0007216659141704,  0.0366035923361778 ]
  - [   0.0029018111526966,  0.0025226883590221,  0.0036940549034625 ]
  - [  -0.0022795551922172,  0.0025277747772634,  0.0036968758795410 ]
  - [   0.0003160995838698, -0.0002506316814106,  0.0011464017443359 ]
  - [  -0.0023329260293394,  0.0025563631206751, -0.0016059814952314 ]
  - [   0.0029631827492267,  0.0025573205202818, -0.0016057154862210 ]
  - [   0.0003144932561554, -0.0002489431353752,  0.0009835442760959 ]
  - [   0.0003162737702951, -0.0002446284343023,  0.0010750985238701 ]
  - [   0.0003120601468254, -0.0002449358580634,  0.0010752258822322 ]
  - [   0.0003122717898805,  0.0000029299844755,  0.0010602298425511 ]
  - [   0.0002395371266175, -0.0002250426332466,  0.0007758529973216 ]
  - [   0.0003908968355972, -0.0002261077170260,  0.0007811707910150 ]
  - [   0.0003137665335089, -0.0002047200687230,  0.0009666922269389 ]
  - [   0.0003932151012123, -0.0002260731125716,  0.0013548261485994 ]
  - [   0.0002383902319707, -0.0002236414875370,  0.0013581886887550 ]
  - [   0.0003117003652733, -0.0002012284239754,  0.0011693360283971 ]
  - [   0.0003127222298644, -0.0001753585675033,  0.0010638672392815 ]
  - [   0.0003091998805758, -0.0001752530224621,  0.0010631146142259 ]
  - [   0.0003129572432954, -0.0001373280247208,  0.0010679694823921 ]
  - [   0.0015970256645232,  0.0031007498037070, -0.0018810094334185 ]
  - [  -0.0037913338746876,  0.0030965059995651, -0.0018747688736767 ]
  - [  -0.0010987776331604,  0.0005088171456009,  0.0015059842262417 ]
  - [  -0.0038362378254533,  0.0031343309674412,  0.0047031161375344 ]
  - [   0.0016309050843120,  0.0031260412652045,  0.0046904045157135 ]
  - [  -0.0010979655198753,  0.0005111091304570,  0.0012585389195010 ]
  - [  -0.0010975070763379,  0.0004151164612267,  0.0013837097212672 ]
  - [  -0.0010987743735313,  0.0004148249863647,  0.0013823704794049 ]
  - [  -0.0010986023116857,  0.0008161938749254,  0.0013850078685209 ]
  - [  -0.0010873328428715,  0.0006245924159884,  0.0012347986921668 ]
  - [  -0.0011056074872613,  0.0006296690553427,  0.0012362552806735 ]
  - [  -0.0010994512122124,  0.0006929020164534,  0.0014903673436493 ]
  - [  -0.0011019860394299,  0.0006301652174443,  0.0015287573914975 ]
  - [  -0.0010856960434467,  0.0006297845393419,  0.0015288956928998 ]
  - [  -0.0010959365172312,  0.0006917561404407,  0.0012690541334450 ]
  - [  -0.0010987988207489,  0.0008004037081264,  0.0013814787380397 ]
  - [  -0.0011006237473339,  0.0008006200077944,  0.0013812649995089 ]
  - [  -0.0010981303639710,  0.0007188051240519,  0.0013831780524924 ]
- atom:    1
  displacement:
    [  -0.0000016440631955, -0.0099999998648528,  0.0000000000000000 ]
  forces:
  - [   0.0001411107368767,  0.0213683731853962, -0.0391624346375465 ]
  - [   0.0001481782965129, -0.0002703135833144, -0.0391679145395756 ]
  - [   0.0001561735989526, -0.0002707806415856, -0.0391649268567562 ]
  - [   0.0001518633216619, -0.0011985341552645, -0.0387518852949142 ]
  - [   0.0001630503684282,  0.0001850677799666, -0.0391038246452808 ]
  - [   0.0001416048035026,  0.0001865930389613, -0.0391066558659077 ]
  - [   0.0001524934777990, -0.0013095537433401, -0.0395802408456802 ]
  - [   0.0001440512569388,  0.0001849038526416, -0.0392234362661839 ]
  - [   0.0001589519670233,  0.0001851797569543, -0.0392260290682316 ]
  - [   0.0001478090416640,  0.0000731447944418, -0.0391612499952316 ]
  - [   0.0001538832293591,  0.0000458546564914, -0.0391632504761219 ]
  - [   0.0001506003318354,  0.0000483121257275, -0.0391635075211525 ]
  - [   0.0001536770723760, -0.0000107217674667, -0.0391738265752792 ]
  - [   0.0001416652812622, -0.0000016965313989, -0.0391740575432777 ]
  - [   0.0001625784789212, -0.0000002896740625, -0.0391807928681374 ]
  - [   0.0001530603040010, -0.0000106439692900, -0.0391511544585228 ]
  - [   0.0001637009991100,  0.0000003331806511, -0.0391504168510437 ]
  - [   0.0001427729148418,  0.0000006008194759, -0.0391507074236870 ]
  - [   0.0006314821075648, -0.0002420761156827,  0.0367092229425907 ]
  - [   0.0006302963593043, -0.0008939160034060,  0.0367090776562691 ]
  - [   0.0006330519681796, -0.0008957121754065,  0.0367130860686302 ]
  - [   0.0006330427713692, -0.0005542417056859,  0.0367791652679443 ]
  - [   0.0008797078626230, -0.0002695141592994,  0.0370915159583092 ]