# Thermal properties / unit cell (natom)

unit:
  temperature:   K
  free_energy:   kJ/mol
  entropy:       J/K/mol
  heat_capacity: J/K/mol

natom: 20   
cutoff_frequency: 0.00000
num_modes: 164640
num_integrated_modes: 164639

zero_point_energy:      34.4512464

thermal_properties:
- temperature:         0.0000000
  free_energy:        34.4512464
  entropy:             0.0000000
  heat_capacity:       0.0000000
  energy:             34.4512464

- temperature:        10.0000000
  free_energy:        34.4322274
  entropy:             7.9709295
  heat_capacity:      25.6340459
  energy:             34.5119367

- temperature:        20.0000000
  free_energy:        34.1484791
  entropy:            55.0809053
  heat_capacity:     126.0847984
  energy:             35.2500972

- temperature:        30.0000000
  free_energy:        33.2605722
  entropy:           123.7538871
  heat_capacity:     212.8374270
  energy:             36.9731888

- temperature:        40.0000000
  free_energy:        31.6721340
  entropy:           193.3166733
  heat_capacity:     269.5321893
  energy:             39.4048010

- temperature:        50.0000000
  free_energy:        29.4113287
  entropy:           257.8995848
  heat_capacity:     308.7292277
  energy:             42.3063079

- temperature:        60.0000000
  free_energy:        26.5327257
  entropy:           316.9351208
  heat_capacity:     338.6052074
  energy:             45.5488329

- temperature:        70.0000000
  free_energy:        23.0891979
  entropy:           370.9994664
  heat_capacity:     362.6476234
  energy:             49.0591605

- temperature:        80.0000000
  free_energy:        19.1270854
  entropy:           420.7553101
  heat_capacity:     382.3886216
  energy:             52.7875102

- temperature:        90.0000000
  free_energy:        14.6865635
  entropy:           466.7662104
  heat_capacity:     398.6995667
  energy:             56.6955224

- temperature:       100.0000000
  free_energy:         9.8026929
  entropy:           509.4950193
  heat_capacity:     412.2147138
  energy:             60.7521948

- temperature:       110.0000000
  free_energy:         4.5063147
  entropy:           549.3263890
  heat_capacity:     423.4471298
  energy:             64.9322175

- temperature:       120.0000000
  free_energy:        -1.1752646
  entropy:           586.5850970
  heat_capacity:     432.8198908
  energy:             69.2149471

- temperature:       130.0000000
  free_energy:        -7.2177409
  entropy:           621.5486092
  heat_capacity:     440.6793792
  energy:             73.5835783

- temperature:       140.0000000
  free_energy:       -13.5993860
  entropy:           654.4558451
  heat_capacity:     447.3063266
  energy:             78.0244323

- temperature:       150.0000000
  free_energy:       -20.3006960
  entropy:           685.5136698
  heat_capacity:     452.9266553
  energy:             82.5263544

- temperature:       160.0000000
  free_energy:       -27.3040969
  entropy:           714.9019678
  heat_capacity:     457.7215706
  energy:             87.0802180

- temperature:       170.0000000
  free_energy:       -34.5936958
  entropy:           742.7777515
  heat_capacity:     461.8363639
  energy:             91.6785219

- temperature:       180.0000000
  free_energy:       -42.1550705
  entropy:           769.2785567
  heat_capacity:     465.3877462
  energy:             96.3150697

- temperature:       190.0000000
  free_energy:       -49.9750883
  entropy:           794.5252769
  heat_capacity:     468.4697836
  energy:            100.9847143

- temperature:       200.0000000
  free_energy:       -58.0417525
  entropy:           818.6245441
  heat_capacity:     471.1586175
  energy:            105.6831563

- temperature:       210.0000000
  free_energy:       -66.3440701
  entropy:           841.6707322
  heat_capacity:     473.5161821
  energy:            110.4067837

- temperature:       220.0000000
  free_energy:       -74.8719373
  entropy:           863.7476490
  heat_capacity:     475.5931191
  energy:            115.1525455

- temperature:       230.0000000
  free_energy:       -83.6160419
  entropy:           884.9299659
  heat_capacity:     477.4310597
  energy:            119.9178502

- temperature:       240.0000000
  free_energy:       -92.5677779
  entropy:           905.2844301
  heat_capacity:     479.0644131
  energy:            124.7004854

- temperature:       250.0000000
  free_energy:      -101.7191712
  entropy:           924.8708942
  heat_capacity:     480.5217715
  energy:            129.4985524

- temperature:       260.0000000
  free_energy:      -111.0628158
  entropy:           943.7431921
  heat_capacity:     481.8270188
  energy:            134.3104142

- temperature:       270.0000000
  free_energy:      -120.5918169
  entropy:           961.9498880
  heat_capacity:     483.0002069
  energy:            139.1346529

- temperature:       280.0000000
  free_energy:      -130.2997418
  entropy:           979.5349163
  heat_capacity:     484.0582543
  energy:            143.9700348

- temperature:       290.0000000
  free_energy:      -140.1805762
  entropy:           996.5381325
  heat_capacity:     485.0155032
  energy:            148.8154822

- temperature:       300.0000000
  free_energy:      -150.2286862
  entropy:          1012.9957867
  heat_capacity:     485.8841677
  energy:            153.6700498

- temperature:       310.0000000
  free_energy:      -160.4387839
  entropy:          1028.9409328
  heat_capacity:     486.6746949
  energy:            158.5329053

- temperature:       320.0000000
  free_energy:      -170.8058975
  entropy:          1044.4037837
  heat_capacity:     487.3960581
  energy:            163.4033133

- temperature:       330.0000000
  free_energy:      -181.3253445
  entropy:          1059.4120189
  heat_capacity:     488.0559960
  energy:            168.2806218

- temperature:       340.0000000
  free_energy:      -191.9927074
  entropy:          1073.9910539
  heat_capacity:     488.6612079
  energy:            173.1642509

- temperature:       350.0000000
  free_energy:      -202.8038130
  entropy:          1088.1642744
  heat_capacity:     489.2175149
  energy:            178.0536830

- temperature:       360.0000000
  free_energy:      -213.7547123
  entropy:          1101.9532428
  heat_capacity:     489.7299928
  energy:            182.9484551

- temperature:       370.0000000
  free_energy:      -224.8416636
  entropy:          1115.3778790
  heat_capacity:     490.2030823
  energy:            187.8481516

- temperature:       380.0000000
  free_energy:      -236.0611170
  entropy:          1128.4566199
  heat_capacity:     490.6406813
  energy:            192.7523985

- temperature:       390.0000000
  free_energy:      -247.4097001
  entropy:          1141.2065604
  heat_capacity:     491.0462215
  energy:            197.6608584

- temperature:       400.0000000
  free_energy:      -258.8842053
  entropy:          1153.6435788
  heat_capacity:     491.4227336
  energy:            202.5732262

- temperature:       410.0000000
  free_energy:      -270.4815780
  entropy:          1165.7824471
  heat_capacity:     491.7729011
  energy:            207.4892253

- temperature:       420.0000000
  free_energy:      -282.1989064
  entropy:          1177.6369305
  heat_capacity:     492.0991070
  energy:            212.4086044

- temperature:       430.0000000
  free_energy:      -294.0334116
  entropy:          1189.2198750
  heat_capacity:     492.4034728
  energy:            217.3311347

- temperature:       440.0000000
  free_energy:      -305.9824388
  entropy:          1200.5432870
  heat_capacity:     492.6878922
  energy:            222.2566074

- temperature:       450.0000000
  free_energy:      -318.0434497
  entropy:          1211.6184032
  heat_capacity:     492.9540592
  energy:            227.1848317

- temperature:       460.0000000
  free_energy:      -330.2140144
  entropy:          1222.4557549
  heat_capacity:     493.2034930
  energy:            232.1156328

- temperature:       470.0000000
  free_energy:      -342.4918053
  entropy:          1233.0652248
  heat_capacity:     493.4375588
  energy:            237.0488504

- temperature:       480.0000000
  free_energy:      -354.8745903
  entropy:          1243.4560984
  heat_capacity:     493.6574865
  energy:            241.9843369

- temperature:       490.0000000
  free_energy:      -367.3602278
  entropy:          1253.6371111
  heat_capacity:     493.8643857
  energy:            246.9219567

- temperature:       500.0000000
  free_energy:      -379.9466605
  entropy:          1263.6164901
  heat_capacity:     494.0592602
  energy:            251.8615845

- temperature:       510.0000000
  free_energy:      -392.6319114
  entropy:          1273.4019926
  heat_capacity:     494.2430191
  energy:            256.8031048

- temperature:       520.0000000
  free_energy:      -405.4140785
  entropy:          1283.0009407
  heat_capacity:     494.4164881
  energy:            261.7464106

- temperature:       530.0000000
  free_energy:      -418.2913314
  entropy:          1292.4202533
  heat_capacity:     494.5804174
  energy:            266.6914028

- temperature:       540.0000000
  free_energy:      -431.2619067
  entropy:          1301.6664744
  heat_capacity:     494.7354910
  energy:            271.6379895

- temperature:       550.0000000
  free_energy:      -444.3241046
  entropy:          1310.7457997
  heat_capacity:     494.8823324
  energy:            276.5860852

- temperature:       560.0000000
  free_energy:      -457.4762860
  entropy:          1319.6641010
  heat_capacity:     495.0215119
  energy:            281.5356106

- temperature:       570.0000000
  free_energy:      -470.7168685
  entropy:          1328.4269476
  heat_capacity:     495.1535510
  energy:            286.4864916

- temperature:       580.0000000
  free_energy:      -484.0443244
  entropy:          1337.0396272
  heat_capacity:     495.2789282
  energy:            291.4386594

- temperature:       590.0000000
  free_energy:      -497.4571773
  entropy:          1345.5071640
  heat_capacity:     495.3980824
  energy:            296.3920495

- temperature:       600.0000000
  free_energy:      -510.9539998
  entropy:          1353.8343358
  heat_capacity:     495.5114172
  energy:            301.3466017

- temperature:       610.0000000
  free_energy:      -524.5334113
  entropy:          1362.0256901
  heat_capacity:     495.6193042
  energy:            306.3022597

- temperature:       620.0000000
  free_energy:      -538.1940753
  entropy:          1370.0855582
  heat_capacity:     495.7220857
  energy:            311.2589707

- temperature:       630.0000000
  free_energy:      -551.9346979
  entropy:          1378.0180688
  heat_capacity:     495.8200779
  energy:            316.2166854

- temperature:       640.0000000
  free_energy:      -565.7540253
  entropy:          1385.8271604
  heat_capacity:     495.9135727
  energy:            321.1753573

- temperature:       650.0000000
  free_energy:      -579.6508423
  entropy:          1393.5165924
  heat_capacity:     496.0028404
  energy:            326.1349428

- temperature:       660.0000000
  free_energy:      -593.6239703
  entropy:          1401.0899563
  heat_capacity:     496.0881312
  energy:            331.0954008

- temperature:       670.0000000
  free_energy:      -607.6722660
  entropy:          1408.5506849
  heat_capacity:     496.1696772
  energy:            336.0566929

- temperature:       680.0000000
  free_energy:      -621.7946195
  entropy:          1415.9020620
  heat_capacity:     496.2476938
  energy:            341.0187826

- temperature:       690.0000000
  free_energy:      -635.9899532
  entropy:          1423.1472303
  heat_capacity:     496.3223812
  energy:            345.9816357

- temperature:       700.0000000
  free_energy:      -650.2572202
  entropy:          1430.2891999
  heat_capacity:     496.3939257
  energy:            350.9452198

- temperature:       710.0000000
  free_energy:      -664.5954029
  entropy:          1437.3308552
  heat_capacity:     496.4625007
  energy:            355.9095043

- temperature:       720.0000000
  free_energy:      -679.0035121
  entropy:          1444.2749619
  heat_capacity:     496.5282679
  energy:            360.8744604

- temperature:       730.0000000
  free_energy:      -693.4805858
  entropy:          1451.1241734
  heat_capacity:     496.5913780
  energy:            365.8400608

- temperature:       740.0000000
  free_energy:      -708.0256878
  entropy:          1457.8810370
  heat_capacity:     496.6519721
  energy:            370.8062796

- temperature:       750.0000000
  free_energy:      -722.6379069
  entropy:          1464.5479989
  heat_capacity:     496.7101817
  energy:            375.7730923

- temperature:       760.0000000
  free_energy:      -737.3163559
  entropy:          1471.1274100
  heat_capacity:     496.7661301
  energy:            380.7404757

- temperature:       770.0000000
  free_energy:      -752.0601708
  entropy:          1477.6215306
  heat_capacity:     496.8199326
  energy:            385.7084078

- temperature:       780.0000000
  free_energy:      -766.8685095
  entropy:          1484.0325347
  heat_capacity:     496.8716974
  energy:            390.6768676

- temperature:       790.0000000
  free_energy:      -781.7405514
  entropy:          1490.3625147
  heat_capacity:     496.9215258
  energy:            395.6458353

- temperature:       800.0000000
  free_energy:      -796.6754964
  entropy:          1496.6134854
  heat_capacity:     496.9695130
  energy:            400.6152919

- temperature:       810.0000000
  free_energy:      -811.6725642
  entropy:          1502.7873875
  heat_capacity:     497.0157484
  energy:            405.5852197

- temperature:       820.0000000
  free_energy:      -826.7309935
  entropy:          1508.8860913
  heat_capacity:     497.0603162
  energy:            410.5556014

- temperature:       830.0000000
  free_energy:      -841.8500414
  entropy:          1514.9114001
  heat_capacity:     497.1032953
  energy:            415.5264207

- temperature:       840.0000000
  free_energy:      -857.0289827
  entropy:          1520.8650534
  heat_capacity:     497.1447604
  energy:            420.4976622

- temperature:       850.0000000
  free_energy:      -872.2671092
  entropy:          1526.7487298
  heat_capacity:     497.1847815
  energy:            425.4693111

- temperature:       860.0000000
  free_energy:      -887.5637294
  entropy:          1532.5640496
  heat_capacity:     497.2234248
  energy:            430.4413533

- temperature:       870.0000000
  free_energy:      -902.9181676
  entropy:          1538.3125779
  heat_capacity:     497.2607527
  energy:            435.4137752

- temperature:       880.0000000
  free_energy:      -918.3297634
  entropy:          1543.9958267
  heat_capacity:     497.2968241
  energy:            440.3865641

- temperature:       890.0000000
  free_energy:      -933.7978714
  entropy:          1549.6152574
  heat_capacity:     497.3316947
  energy:            445.3597077

- temperature:       900.0000000
  free_energy:      -949.3218605
  entropy:          1555.1722830
  heat_capacity:     497.3654172
  energy:            450.3331942

- temperature:       910.0000000
  free_energy:      -964.9011136
  entropy:          1560.6682703
  heat_capacity:     497.3980413
  energy:            455.3070124

- temperature:       920.0000000
  free_energy:      -980.5350269
  entropy:          1566.1045417
  heat_capacity:     497.4296141
  energy:            460.2811515

- temperature:       930.0000000
  free_energy:      -996.2230096
  entropy:          1571.4823774
  heat_capacity:     497.4601803
  energy:            465.2556013

- temperature:       940.0000000
  free_energy:     -1011.9644838
  entropy:          1576.8030167
  heat_capacity:     497.4897820
  energy:            470.2303519

- temperature:       950.0000000
  free_energy:     -1027.7588833
  entropy:          1582.0676602
  heat_capacity:     497.5184595
  energy:            475.2053939

- temperature:       960.0000000
  free_energy:     -1043.6056542
  entropy:          1587.2774712
  heat_capacity:     497.5462507
  energy:            480.1807181

- temperature:       970.0000000
  free_energy:     -1059.5042537
  entropy:          1592.4335771
  heat_capacity:     497.5731918
  energy:            485.1563160

- temperature:       980.0000000
  free_energy:     -1075.4541504
  entropy:          1597.5370710
  heat_capacity:     497.5993169
  energy:            490.1321792

- temperature:       990.0000000
  free_energy:     -1091.4548233
  entropy:          1602.5890132
  heat_capacity:     497.6246588
  energy:            495.1082998

- temperature:      1000.0000000
  free_energy:     -1107.5057622
  entropy:          1607.5904322
  heat_capacity:     497.6492483
  energy:            500.0846699
