phonopy:
  version: "2.37.1"
  frequency_unit_conversion_factor: 15.633302
  symmetry_tolerance: 1.00000e-05

space_group:
  type: "Fm-3m"
  number: 225
  Hall_symbol: "-F 4 2 3"

primitive_matrix:
- [  0.000000000000000,  0.500000000000000,  0.500000000000000 ]
- [  0.500000000000000,  0.000000000000000,  0.500000000000000 ]
- [  0.500000000000000,  0.500000000000000,  0.000000000000000 ]

supercell_matrix:
- [   2,   0,   0 ]
- [   0,   2,   0 ]
- [   0,   0,   2 ]

primitive_cell:
  lattice:
  - [     0.000000069490892,     3.712239749078685,     3.712239870376239 ] # a
  - [     3.712239735077815,    -0.000000032262536,     3.712239870376239 ] # b
  - [     3.712239799526354,     3.712239781341221,     0.000000000000000 ] # c
  points:
  - symbol: Li # 1
    coordinates: [  0.999999999930326,  0.999999997737550,  0.999999999455414 ]
    mass: 6.940000
  - symbol: Sn # 2
    coordinates: [  0.249999998693414,  0.250000000104602,  0.249999999493371 ]
    mass: 118.710000
  - symbol: Sn # 3
    coordinates: [  0.749999999348941,  0.750000000243702,  0.749999998142771 ]
    mass: 118.710000
  - symbol: Sn # 4
    coordinates: [  0.500000002529368,  0.500000000440004,  0.500000002786437 ]
    mass: 118.710000
  reciprocal_lattice: # without 2pi
  - [    -0.134689577188391,     0.134689577848194,     0.134689573449985 ] # a*
  - [     0.134689577188391,    -0.134689577848194,     0.134689570925901 ] # b*
  - [     0.134689577188391,     0.134689572988528,    -0.134689571108850 ] # c*

unit_cell:
  lattice:
  - [     7.424479465113277,     0.000000000000000,     0.000000000000000 ] # a
  - [     0.000000133939431,     7.424479562682443,     0.000000000000000 ] # b
  - [     0.000000005042353,    -0.000000064525073,     7.424479740752478 ] # c
  points:
  - symbol: Li # 1
    coordinates: [  0.999999998596482,  0.999999999692870,  0.999999998833938 ]
    mass: 6.940000
    reduced_to: 1
  - symbol: Li # 2
    coordinates: [  0.500000000803956,  0.499999999669410,  0.999999999474644 ]
    mass: 6.940000
    reduced_to: 1
  - symbol: Li # 3
    coordinates: [  0.500000000766459,  0.000000000235679,  0.500000001032399 ]
    mass: 6.940000
    reduced_to: 1
  - symbol: Li # 4
    coordinates: [  0.999999999509768,  0.499999999582050,  0.500000000854884 ]
    mass: 6.940000
    reduced_to: 1
  - symbol: Sn # 5
    coordinates: [  0.249999999798987,  0.249999999093393,  0.249999999399008 ]
    mass: 118.710000
    reduced_to: 5
  - symbol: Sn # 6
    coordinates: [  0.749999999193237,  0.749999998745856,  0.749999999796322 ]
    mass: 118.710000
    reduced_to: 6
  - symbol: Sn # 7
    coordinates: [  0.749999998888694,  0.249999999441506,  0.249999999255358 ]
    mass: 118.710000
    reduced_to: 6
  - symbol: Sn # 8
    coordinates: [  0.249999999937371,  0.749999999618732,  0.749999999776697 ]
    mass: 118.710000
    reduced_to: 5
  - symbol: Sn # 9
    coordinates: [  0.749999999860878,  0.749999999591804,  0.249999998779106 ]
    mass: 118.710000
    reduced_to: 5
  - symbol: Sn # 10
    coordinates: [  0.250000000170145,  0.249999999605370,  0.749999998070250 ]
    mass: 118.710000
    reduced_to: 6
  - symbol: Sn # 11
    coordinates: [  0.249999999678750,  0.749999998898825,  0.249999999216407 ]
    mass: 118.710000
    reduced_to: 6
  - symbol: Sn # 12
    coordinates: [  0.749999999577717,  0.249999999421402,  0.749999999477799 ]
    mass: 118.710000
    reduced_to: 5
  - symbol: Sn # 13
    coordinates: [  0.000000001613221,  0.000000002657903,  0.500000001484686 ]
    mass: 118.710000
    reduced_to: 13
  - symbol: Sn # 14
    coordinates: [  0.500000000993135,  0.000000001675168,  0.000000001775552 ]
    mass: 118.710000
    reduced_to: 13
  - symbol: Sn # 15
    coordinates: [  0.000000000465592,  0.500000001497139,  0.000000001302557 ]
    mass: 118.710000
    reduced_to: 13
  - symbol: Sn # 16
    coordinates: [  0.500000000142324,  0.500000000589995,  0.500000001477261 ]
    mass: 118.710000
    reduced_to: 13

supercell:
  lattice:
  - [    14.848958930226553,     0.000000000000000,     0.000000000000000 ] # a
  - [     0.000000267878863,    14.848959125364885,     0.000000000000000 ] # b
  - [     0.000000010084706,    -0.000000129050145,    14.848959481504956 ] # c
  points:
  - symbol: Li # 1
    coordinates: [  0.499999999298241,  0.499999999846435,  0.499999999416969 ]
    mass: 6.940000
    reduced_to: 1
  - symbol: Li # 2
    coordinates: [  0.999999999298241,  0.499999999846435,  0.499999999416969 ]
    mass: 6.940000
    reduced_to: 1
  - symbol: Li # 3
    coordinates: [  0.499999999298241,  0.999999999846435,  0.499999999416969 ]
    mass: 6.940000
    reduced_to: 1
  - symbol: Li # 4
    coordinates: [  0.999999999298241,  0.999999999846435,  0.499999999416969 ]
    mass: 6.940000
    reduced_to: 1
  - symbol: Li # 5
    coordinates: [  0.499999999298241,  0.499999999846435,  0.999999999416969 ]
    mass: 6.940000
    reduced_to: 1
  - symbol: Li # 6
    coordinates: [  0.999999999298241,  0.499999999846435,  0.999999999416969 ]
    mass: 6.940000
    reduced_to: 1
  - symbol: Li # 7
    coordinates: [  0.499999999298241,  0.999999999846435,  0.999999999416969 ]
    mass: 6.940000
    reduced_to: 1
  - symbol: Li # 8
    coordinates: [  0.999999999298241,  0.999999999846435,  0.999999999416969 ]
    mass: 6.940000
    reduced_to: 1
  - symbol: Li # 9
    coordinates: [  0.250000000401978,  0.249999999834705,  0.499999999737322 ]
    mass: 6.940000
    reduced_to: 1
  - symbol: Li # 10
    coordinates: [  0.750000000401978,  0.249999999834705,  0.499999999737322 ]
    mass: 6.940000
    reduced_to: 1
  - symbol: Li # 11
    coordinates: [  0.250000000401978,  0.749999999834705,  0.499999999737322 ]
    mass: 6.940000
    reduced_to: 1
  - symbol: Li # 12
    coordinates: [  0.750000000401978,  0.749999999834705,  0.499999999737322 ]
    mass: 6.940000
    reduced_to: 1
  - symbol: Li # 13
    coordinates: [  0.250000000401978,  0.249999999834705,  0.999999999737322 ]
    mass: 6.940000
    reduced_to: 1
  - symbol: Li # 14
    coordinates: [  0.750000000401978,  0.249999999834705,  0.999999999737322 ]
    mass: 6.940000
    reduced_to: 1
  - symbol: Li # 15
    coordinates: [  0.250000000401978,  0.749999999834705,  0.999999999737322 ]
    mass: 6.940000
    reduced_to: 1
  - symbol: Li # 16
    coordinates: [  0.750000000401978,  0.749999999834705,  0.999999999737322 ]
    mass: 6.940000
    reduced_to: 1
  - symbol: Li # 17
    coordinates: [  0.250000000383229,  0.000000000117839,  0.250000000516200 ]
    mass: 6.940000
    reduced_to: 1
  - symbol: Li # 18
    coordinates: [  0.750000000383229,  0.000000000117839,  0.250000000516200 ]
    mass: 6.940000
    reduced_to: 1
  - symbol: Li # 19
    coordinates: [  0.250000000383229,  0.500000000117839,  0.250000000516200 ]
    mass: 6.940000
    reduced_to: 1
  - symbol: Li # 20
    coordinates: [  0.750000000383229,  0.500000000117839,  0.250000000516200 ]
    mass: 6.940000
    reduced_to: 1
  - symbol: Li # 21
    coordinates: [  0.250000000383229,  0.000000000117839,  0.750000000516200 ]
    mass: 6.940000
    reduced_to: 1
  - symbol: Li # 22
    coordinates: [  0.750000000383229,  0.000000000117839,  0.750000000516200 ]
    mass: 6.940000
    reduced_to: 1
  - symbol: Li # 23
    coordinates: [  0.250000000383229,  0.500000000117839,  0.750000000516200 ]
    mass: 6.940000
    reduced_to: 1
  - symbol: Li # 24
    coordinates: [  0.750000000383229,  0.500000000117839,  0.750000000516200 ]
    mass: 6.940000
    reduced_to: 1
  - symbol: Li # 25
    coordinates: [  0.499999999754884,  0.249999999791025,  0.250000000427442 ]
    mass: 6.940000
    reduced_to: 1
  - symbol: Li # 26
    coordinates: [  0.999999999754884,  0.249999999791025,  0.250000000427442 ]
    mass: 6.940000
    reduced_to: 1
  - symbol: Li # 27
    coordinates: [  0.499999999754884,  0.749999999791025,  0.250000000427442 ]
    mass: 6.940000
    reduced_to: 1
  - symbol: Li # 28
    coordinates: [  0.999999999754884,  0.749999999791025,  0.250000000427442 ]
    mass: 6.940000
    reduced_to: 1
  - symbol: Li # 29
    coordinates: [  0.499999999754884,  0.249999999791025,  0.750000000427442 ]
    mass: 6.940000
    reduced_to: 1
  - symbol: Li # 30
    coordinates: [  0.999999999754884,  0.249999999791025,  0.750000000427442 ]
    mass: 6.940000
    reduced_to: 1
  - symbol: Li # 31
    coordinates: [  0.499999999754884,  0.749999999791025,  0.750000000427442 ]
    mass: 6.940000
    reduced_to: 1
  - symbol: Li # 32
    coordinates: [  0.999999999754884,  0.749999999791025,  0.750000000427442 ]
    mass: 6.940000
    reduced_to: 1
  - symbol: Sn # 33
    coordinates: [  0.124999999899493,  0.124999999546696,  0.124999999699504 ]
    mass: 118.710000
    reduced_to: 33
  - symbol: Sn # 34
    coordinates: [  0.624999999899493,  0.124999999546696,  0.124999999699504 ]
    mass: 118.710000
    reduced_to: 33
  - symbol: Sn # 35
    coordinates: [  0.124999999899493,  0.624999999546696,  0.124999999699504 ]
    mass: 118.710000
    reduced_to: 33
  - symbol: Sn # 36
    coordinates: [  0.624999999899493,  0.624999999546696,  0.124999999699504 ]
    mass: 118.710000
    reduced_to: 33
  - symbol: Sn # 37
    coordinates: [  0.124999999899493,  0.124999999546696,  0.624999999699504 ]
    mass: 118.710000
    reduced_to: 33
  - symbol: Sn # 38
    coordinates: [  0.624999999899493,  0.124999999546696,  0.624999999699504 ]
    mass: 118.710000
    reduced_to: 33
  - symbol: Sn # 39
    coordinates: [  0.124999999899493,  0.624999999546696,  0.624999999699504 ]
    mass: 118.710000
    reduced_to: 33
  - symbol: Sn # 40
    coordinates: [  0.624999999899493,  0.624999999546696,  0.624999999699504 ]
    mass: 118.710000
    reduced_to: 33
  - symbol: Sn # 41
    coordinates: [  0.374999999596618,  0.374999999372928,  0.374999999898161 ]
    mass: 118.710000
    reduced_to: 41
  - symbol: Sn # 42
    coordinates: [  0.874999999596618,  0.374999999372928,  0.374999999898161 ]
    mass: 118.710000
    reduced_to: 41
  - symbol: Sn # 43
    coordinates: [  0.374999999596618,  0.874999999372928,  0.374999999898161 ]
    mass: 118.710000
    reduced_to: 41
  - symbol: Sn # 44
    coordinates: [  0.874999999596618,  0.874999999372928,  0.374999999898161 ]
    mass: 118.710000
    reduced_to: 41
  - symbol: Sn # 45
    coordinates: [  0.374999999596618,  0.374999999372928,  0.874999999898161 ]
    mass: 118.710000
    reduced_to: 41
  - symbol: Sn # 46
    coordinates: [  0.874999999596618,  0.374999999372928,  0.874999999898161 ]
    mass: 118.710000
    reduced_to: 41
  - symbol: Sn # 47
    coordinates: [  0.374999999596618,  0.874999999372928,  0.874999999898161 ]
    mass: 118.710000
    reduced_to: 41
  - symbol: Sn # 48
    coordinates: [  0.874999999596618,  0.874999999372928,  0.874999999898161 ]
    mass: 118.710000
    reduced_to: 41
  - symbol: Sn # 49
    coordinates: [  0.374999999444347,  0.124999999720753,  0.124999999627679 ]
    mass: 118.710000
    reduced_to: 41
  - symbol: Sn # 50
    coordinates: [  0.874999999444347,  0.124999999720753,  0.124999999627679 ]
    mass: 118.710000
    reduced_to: 41
  - symbol: Sn # 51
    coordinates: [  0.374999999444347,  0.624999999720753,  0.124999999627679 ]
    mass: 118.710000
    reduced_to: 41
  - symbol: Sn # 52
    coordinates: [  0.874999999444347,  0.624999999720753,  0.124999999627679 ]
    mass: 118.710000
    reduced_to: 41
  - symbol: Sn # 53
    coordinates: [  0.374999999444347,  0.124999999720753,  0.624999999627679 ]
    mass: 118.710000
    reduced_to: 41
  - symbol: Sn # 54
    coordinates: [  0.874999999444347,  0.124999999720753,  0.624999999627679 ]
    mass: 118.710000
    reduced_to: 41
  - symbol: Sn # 55
    coordinates: [  0.374999999444347,  0.624999999720753,  0.624999999627679 ]
    mass: 118.710000
    reduced_to: 41
  - symbol: Sn # 56
    coordinates: [  0.874999999444347,  0.624999999720753,  0.624999999627679 ]
    mass: 118.710000
    reduced_to: 41
  - symbol: Sn # 57
    coordinates: [  0.124999999968686,  0.374999999809366,  0.374999999888348 ]
    mass: 118.710000
    reduced_to: 33
  - symbol: Sn # 58
    coordinates: [  0.624999999968686,  0.374999999809366,  0.374999999888348 ]
    mass: 118.710000
    reduced_to: 33
  - symbol: Sn # 59
    coordinates: [  0.124999999968686,  0.874999999809366,  0.374999999888348 ]
    mass: 118.710000
    reduced_to: 33
  - symbol: Sn # 60
    coordinates: [  0.624999999968686,  0.874999999809366,  0.374999999888348 ]
    mass: 118.710000
    reduced_to: 33
  - symbol: Sn # 61
    coordinates: [  0.124999999968686,  0.374999999809366,  0.874999999888348 ]
    mass: 118.710000
    reduced_to: 33
  - symbol: Sn # 62
    coordinates: [  0.624999999968686,  0.374999999809366,  0.874999999888348 ]
    mass: 118.710000
    reduced_to: 33
  - symbol: Sn # 63
    coordinates: [  0.124999999968686,  0.874999999809366,  0.874999999888348 ]
    mass: 118.710000
    reduced_to: 33
  - symbol: Sn # 64
    coordinates: [  0.624999999968686,  0.874999999809366,  0.874999999888348 ]
    mass: 118.710000
    reduced_to: 33
  - symbol: Sn # 65
    coordinates: [  0.374999999930439,  0.374999999795902,  0.124999999389553 ]
    mass: 118.710000
    reduced_to: 33
  - symbol: Sn # 66
    coordinates: [  0.874999999930439,  0.374999999795902,  0.124999999389553 ]
    mass: 118.710000
    reduced_to: 33
  - symbol: Sn # 67
    coordinates: [  0.374999999930439,  0.874999999795902,  0.124999999389553 ]
    mass: 118.710000
    reduced_to: 33
  - symbol: Sn # 68
    coordinates: [  0.874999999930439,  0.874999999795902,  0.124999999389553 ]
    mass: 118.710000
    reduced_to: 33
  - symbol: Sn # 69
    coordinates: [  0.374999999930439,  0.374999999795902,  0.624999999389553 ]
    mass: 118.710000
    reduced_to: 33
  - symbol: Sn # 70
    coordinates: [  0.874999999930439,  0.374999999795902,  0.624999999389553 ]
    mass: 118.710000
    reduced_to: 33
  - symbol: Sn # 71
    coordinates: [  0.374999999930439,  0.874999999795902,  0.624999999389553 ]
    mass: 118.710000
    reduced_to: 33
  - symbol: Sn # 72
    coordinates: [  0.874999999930439,  0.874999999795902,  0.624999999389553 ]
    mass: 118.710000
    reduced_to: 33
  - symbol: Sn # 73
    coordinates: [  0.125000000085073,  0.124999999802685,  0.374999999035125 ]
    mass: 118.710000
    reduced_to: 41
  - symbol: Sn # 74
    coordinates: [  0.625000000085073,  0.124999999802685,  0.374999999035125 ]
    mass: 118.710000
    reduced_to: 41
  - symbol: Sn # 75
    coordinates: [  0.125000000085073,  0.624999999802685,  0.374999999035125 ]
    mass: 118.710000
    reduced_to: 41
  - symbol: Sn # 76
    coordinates: [  0.625000000085073,  0.624999999802685,  0.374999999035125 ]
    mass: 118.710000
    reduced_to: 41
  - symbol: Sn # 77
    coordinates: [  0.125000000085073,  0.124999999802685,  0.874999999035125 ]
    mass: 118.710000
    reduced_to: 41
  - symbol: Sn # 78
    coordinates: [  0.625000000085073,  0.124999999802685,  0.874999999035125 ]
    mass: 118.710000
    reduced_to: 41
  - symbol: Sn # 79
    coordinates: [  0.125000000085073,  0.624999999802685,  0.874999999035125 ]
    mass: 118.710000
    reduced_to: 41
  - symbol: Sn # 80
    coordinates: [  0.625000000085073,  0.624999999802685,  0.874999999035125 ]
    mass: 118.710000
    reduced_to: 41
  - symbol: Sn # 81
    coordinates: [  0.124999999839375,  0.374999999449412,  0.124999999608204 ]
    mass: 118.710000
    reduced_to: 41
  - symbol: Sn # 82
    coordinates: [  0.624999999839375,  0.374999999449412,  0.124999999608204 ]
    mass: 118.710000
    reduced_to: 41
  - symbol: Sn # 83
    coordinates: [  0.124999999839375,  0.874999999449412,  0.124999999608204 ]
    mass: 118.710000
    reduced_to: 41
  - symbol: Sn # 84
    coordinates: [  0.624999999839375,  0.874999999449412,  0.124999999608204 ]
    mass: 118.710000
    reduced_to: 41
  - symbol: Sn # 85
    coordinates: [  0.124999999839375,  0.374999999449412,  0.624999999608204 ]
    mass: 118.710000
    reduced_to: 41
  - symbol: Sn # 86
    coordinates: [  0.624999999839375,  0.374999999449412,  0.624999999608204 ]
    mass: 118.710000
    reduced_to: 41
  - symbol: Sn # 87
    coordinates: [  0.124999999839375,  0.874999999449412,  0.624999999608204 ]
    mass: 118.710000
    reduced_to: 41
  - symbol: Sn # 88
    coordinates: [  0.624999999839375,  0.874999999449412,  0.624999999608204 ]
    mass: 118.710000
    reduced_to: 41
  - symbol: Sn # 89
    coordinates: [  0.374999999788858,  0.124999999710701,  0.374999999738900 ]
    mass: 118.710000
    reduced_to: 33
  - symbol: Sn # 90
    coordinates: [  0.874999999788858,  0.124999999710701,  0.374999999738900 ]
    mass: 118.710000
    reduced_to: 33
  - symbol: Sn # 91
    coordinates: [  0.374999999788858,  0.624999999710701,  0.374999999738900 ]
    mass: 118.710000
    reduced_to: 33
  - symbol: Sn # 92
    coordinates: [  0.874999999788858,  0.624999999710701,  0.374999999738900 ]
    mass: 118.710000
    reduced_to: 33
  - symbol: Sn # 93
    coordinates: [  0.374999999788858,  0.124999999710701,  0.874999999738900 ]
    mass: 118.710000
    reduced_to: 33
  - symbol: Sn # 94
    coordinates: [  0.874999999788858,  0.124999999710701,  0.874999999738900 ]
    mass: 118.710000
    reduced_to: 33
  - symbol: Sn # 95
    coordinates: [  0.374999999788858,  0.624999999710701,  0.874999999738900 ]
    mass: 118.710000
    reduced_to: 33
  - symbol: Sn # 96
    coordinates: [  0.874999999788858,  0.624999999710701,  0.874999999738900 ]
    mass: 118.710000
    reduced_to: 33
  - symbol: Sn # 97
    coordinates: [  0.000000000806610,  0.000000001328951,  0.250000000742343 ]
    mass: 118.710000
    reduced_to: 97
  - symbol: Sn # 98
    coordinates: [  0.500000000806610,  0.000000001328951,  0.250000000742343 ]
    mass: 118.710000
    reduced_to: 97
  - symbol: Sn # 99
    coordinates: [  0.000000000806610,  0.500000001328951,  0.250000000742343 ]
    mass: 118.710000
    reduced_to: 97
  - symbol: Sn # 100
    coordinates: [  0.500000000806610,  0.500000001328951,  0.250000000742343 ]
    mass: 118.710000
    reduced_to: 97
  - symbol: Sn # 101
    coordinates: [  0.000000000806610,  0.000000001328951,  0.750000000742343 ]
    mass: 118.710000
    reduced_to: 97
  - symbol: Sn # 102
    coordinates: [  0.500000000806610,  0.000000001328951,  0.750000000742343 ]
    mass: 118.710000
    reduced_to: 97
  - symbol: Sn # 103
    coordinates: [  0.000000000806610,  0.500000001328951,  0.750000000742343 ]
    mass: 118.710000
    reduced_to: 97
  - symbol: Sn # 104
    coordinates: [  0.500000000806610,  0.500000001328951,  0.750000000742343 ]
    mass: 118.710000
    reduced_to: 97
  - symbol: Sn # 105
    coordinates: [  0.250000000496568,  0.000000000837584,  0.000000000887776 ]
    mass: 118.710000
    reduced_to: 97
  - symbol: Sn # 106
    coordinates: [  0.750000000496568,  0.000000000837584,  0.000000000887776 ]
    mass: 118.710000
    reduced_to: 97
  - symbol: Sn # 107
    coordinates: [  0.250000000496568,  0.500000000837584,  0.000000000887776 ]
    mass: 118.710000
    reduced_to: 97
  - symbol: Sn # 108
    coordinates: [  0.750000000496568,  0.500000000837584,  0.000000000887776 ]
    mass: 118.710000
    reduced_to: 97
  - symbol: Sn # 109
    coordinates: [  0.250000000496568,  0.000000000837584,  0.500000000887776 ]
    mass: 118.710000
    reduced_to: 97
  - symbol: Sn # 110
    coordinates: [  0.750000000496568,  0.000000000837584,  0.500000000887776 ]
    mass: 118.710000
    reduced_to: 97
  - symbol: Sn # 111
    coordinates: [  0.250000000496568,  0.500000000837584,  0.500000000887776 ]
    mass: 118.710000
    reduced_to: 97
  - symbol: Sn # 112
    coordinates: [  0.750000000496568,  0.500000000837584,  0.500000000887776 ]
    mass: 118.710000
    reduced_to: 97
  - symbol: Sn # 113
    coordinates: [  0.000000000232796,  0.250000000748570,  0.000000000651279 ]
    mass: 118.710000
    reduced_to: 97
  - symbol: Sn # 114
    coordinates: [  0.500000000232796,  0.250000000748570,  0.000000000651279 ]
    mass: 118.710000
    reduced_to: 97
  - symbol: Sn # 115
    coordinates: [  0.000000000232796,  0.750000000748570,  0.000000000651279 ]
    mass: 118.710000
    reduced_to: 97
  - symbol: Sn # 116
    coordinates: [  0.500000000232796,  0.750000000748570,  0.000000000651279 ]
    mass: 118.710000
    reduced_to: 97
  - symbol: Sn # 117
    coordinates: [  0.000000000232796,  0.250000000748570,  0.500000000651279 ]
    mass: 118.710000
    reduced_to: 97
  - symbol: Sn # 118
    coordinates: [  0.500000000232796,  0.250000000748570,  0.500000000651279 ]
    mass: 118.710000
    reduced_to: 97
  - symbol: Sn # 119
    coordinates: [  0.000000000232796,  0.750000000748570,  0.500000000651279 ]
    mass: 118.710000
    reduced_to: 97
  - symbol: Sn # 120
    coordinates: [  0.500000000232796,  0.750000000748570,  0.500000000651279 ]
    mass: 118.710000
    reduced_to: 97
  - symbol: Sn # 121
    coordinates: [  0.250000000071162,  0.250000000294997,  0.250000000738631 ]
    mass: 118.710000
    reduced_to: 97
  - symbol: Sn # 122
    coordinates: [  0.750000000071162,  0.250000000294997,  0.250000000738631 ]
    mass: 118.710000
    reduced_to: 97
  - symbol: Sn # 123
    coordinates: [  0.250000000071162,  0.750000000294997,  0.250000000738631 ]
    mass: 118.710000
    reduced_to: 97
  - symbol: Sn # 124
    coordinates: [  0.750000000071162,  0.750000000294997,  0.250000000738631 ]
    mass: 118.710000
    reduced_to: 97
  - symbol: Sn # 125
    coordinates: [  0.250000000071162,  0.250000000294997,  0.750000000738630 ]
    mass: 118.710000
    reduced_to: 97
  - symbol: Sn # 126
    coordinates: [  0.750000000071162,  0.250000000294997,  0.750000000738630 ]
    mass: 118.710000
    reduced_to: 97
  - symbol: Sn # 127
    coordinates: [  0.250000000071162,  0.750000000294997,  0.750000000738630 ]
    mass: 118.710000
    reduced_to: 97
  - symbol: Sn # 128
    coordinates: [  0.750000000071162,  0.750000000294997,  0.750000000738630 ]
    mass: 118.710000
    reduced_to: 97

displacements:
- atom:    1
  displacement:
    [   0.0100000000000000,  0.0000000000000000,  0.0000000000000000 ]
  forces:
  - [  -0.0108584780246019, -0.0000005640426366, -0.0000007474292261 ]
  - [   0.0002043440035777,  0.0000015161931515, -0.0000022853871542 ]
  - [   0.0000512120641361,  0.0000017917154764,  0.0000003528921297 ]
  - [  -0.0000306220099446, -0.0000002039596438,  0.0000006860752819 ]
  - [   0.0000535751678399,  0.0000010245698832, -0.0000003415852916 ]
  - [  -0.0000289733561658,  0.0000010207295418, -0.0000003527353556 ]
  - [   0.0000232523361774,  0.0000001376422460, -0.0000006655210996 ]
  - [  -0.0000220231995627, -0.0000020228326321, -0.0000017444858713 ]
  - [   0.0004429460095707,  0.0005963614676148, -0.0000011958181858 ]
  - [   0.0004416994634084, -0.0005964228184894, -0.0000005383044481 ]
  - [   0.0004404939536471, -0.0005984979798086, -0.0000006202608347 ]
  - [   0.0004430719127413,  0.0005947840400040, -0.0000005811452866 ]
  - [  -0.0000060867050706, -0.0000098234067991, -0.0000012731179595 ]
  - [  -0.0000073855908340,  0.0000080140598584, -0.0000007068738341 ]
  - [  -0.0000078760258475,  0.0000091075371529, -0.0000013010576367 ]
  - [  -0.0000075345878940, -0.0000081516136561, -0.0000007804483175 ]
  - [  -0.0000051287115639,  0.0000012703239918, -0.0000097865167845 ]
  - [  -0.0000060182260313, -0.0000014463439584,  0.0000073356186476 ]
  - [   0.0004400456382427,  0.0000004861503839,  0.0005970157217234 ]
  - [   0.0004422030469868,  0.0000014631077647, -0.0005951217026450 ]
  - [  -0.0000058020350480,  0.0000011427327991,  0.0000102852909549 ]
  - [  -0.0000057607480812, -0.0000004805624485, -0.0000079467663454 ]
  - [   0.0004409310058691,  0.0000000651925802, -0.0005953843938187 ]
  - [   0.0004424463259056,  0.0000017806887627,  0.0005979490233585 ]
  - [  -0.0002186279743910,  0.0000019935675937,  0.0000025126130367 ]
  - [   0.0000531682744622,  0.0000019367516870,  0.0000000190129867 ]
  - [  -0.0002163555473089, -0.0000035195369037,  0.0000010192720765 ]
  - [   0.0000520069152117, -0.0000022386229830, -0.0000003656271019 ]
  - [  -0.0002184621989727,  0.0000003562807365, -0.0000021760943127 ]
  - [   0.0000527119264007, -0.0000020941251933,  0.0000010952153389 ]
  - [  -0.0002165138721466, -0.0000027021017104, -0.0000010717751593 ]
  - [   0.0000518867745996, -0.0000007972711273,  0.0000022024346436 ]
  - [   0.0000302083790302,  0.0000318359889206,  0.0000303283650283 ]
  - [  -0.0000170618295670, -0.0000175023451447, -0.0000163326039910 ]
  - [   0.0000012591481209,  0.0000324258398905,  0.0000042687788664 ]
  - [  -0.0000154413282871, -0.0000508856028318, -0.0000566104426980 ]
  - [   0.0000015720725060,  0.0000047838057071,  0.0000334407814080 ]
  - [  -0.0000154087319970, -0.0000552767887712, -0.0000481642782688 ]
  - [   0.0000607613474131,  0.0000097617485153,  0.0000114142821985 ]
  - [   0.0009802663698792,  0.0014759050682187,  0.0014774361625314 ]
  - [   0.0009831916540861,  0.0014494704082608,  0.0014504492282867 ]
  - [   0.0000593811273575,  0.0000122050405480,  0.0000134937508847 ]
  - [  -0.0000138894920383, -0.0000538975000381, -0.0000490994716529 ]
  - [   0.0000017844140530,  0.0000059007347772,  0.0000339679390891 ]
  - [  -0.0000143325087265, -0.0000501835966134, -0.0000548176467419 ]
  - [   0.0000026319175959,  0.0000348529429175,  0.0000049253430916 ]
  - [  -0.0000164906978171, -0.0000160727649927, -0.0000178124882950 ]
  - [   0.0000302921980619,  0.0000341348968504,  0.0000328712485498 ]
  - [  -0.0000168288788700,  0.0000195056200027,  0.0000183834090421 ]
  - [   0.0000310074537992, -0.0000330581060553, -0.0000312806259899 ]
  - [  -0.0000155894085765,  0.0000508567318320,  0.0000564865767956 ]
  - [   0.0000020992010832, -0.0000331133051077, -0.0000038579528336 ]
  - [  -0.0000145240046550,  0.0000561960041523,  0.0000503699266119 ]
  - [   0.0000021010637283, -0.0000039223928070, -0.0000337578712788 ]
  - [   0.0009838985279202, -0.0014502722769976, -0.0014506410807371 ]
  - [   0.0000592917203903, -0.0000122265992104, -0.0000125103397295 ]
  - [   0.0000595543533564, -0.0000101735458884, -0.0000099587450677 ]
  - [   0.0009805727750063, -0.0014764820225537, -0.0014774645678699 ]
  - [   0.0000014249235392, -0.0000025671215553, -0.0000322449086525 ]
  - [  -0.0000148676335812,  0.0000574132427573,  0.0000502802431583 ]
  - [   0.0000012982636690, -0.0000313820746669, -0.0000030695891837 ]
  - [  -0.0000145407393575,  0.0000519165769219,  0.0000564195215702 ]
  - [   0.0000297855585814, -0.0000301259624393, -0.0000313454220304 ]
  - [  -0.0000166120007634,  0.0000186711549759,  0.0000189496204257 ]
  - [  -0.0000146685961226, -0.0000501720132888,  0.0000565163791180 ]
  - [   0.0000026952475309,  0.0000331855917466, -0.0000032342900340 ]
  - [  -0.0000167524685821, -0.0000153463333845,  0.0000179762537300 ]
  - [   0.0000292528420687,  0.0000342355670000, -0.0000329570866597 ]
  - [   0.0009850135538727,  0.0014512930065393, -0.0014507118612528 ]
  - [   0.0000600181519985,  0.0000126664563140, -0.0000127087550936 ]
  - [  -0.0000149637653521, -0.0000538285821676,  0.0000499070629303 ]
  - [   0.0000022538006306,  0.0000058719474509, -0.0000332593444909 ]
  - [   0.0000010896474123,  0.0000040592467485, -0.0000350918853655 ]
  - [  -0.0000155884772539, -0.0000559864565730,  0.0000516278669238 ]
  - [   0.0000616963952780,  0.0000110922046588, -0.0000087935404736 ]
  - [   0.0009812377393246,  0.0014768159016967, -0.0014758938923478 ]
  - [   0.0000298097729683,  0.0000338256359100, -0.0000328134556185 ]
  - [  -0.0000183172523975, -0.0000171456485987,  0.0000172462314367 ]
  - [   0.0000009741634130,  0.0000335965269187, -0.0000035206830944 ]
  - [  -0.0000145081430674, -0.0000504022464156,  0.0000571282580495 ]
  - [   0.0000023040920496, -0.0000342447383446,  0.0000044375110519 ]
  - [  -0.0000143488869071,  0.0000483989715576, -0.0000568004325032 ]
  - [   0.0000281408429146, -0.0000316242367262,  0.0000331676128553 ]
  - [  -0.0000171139836311,  0.0000170907005668, -0.0000175647437572 ]
  - [   0.0000606328248978, -0.0000079472956713,  0.0000109499160317 ]
  - [   0.0009800670668483, -0.0014756908640265,  0.0014772834256291 ]
  - [   0.0000002868473530, -0.0000022993644961,  0.0000340079604939 ]
  - [  -0.0000149272382259,  0.0000569815747440, -0.0000491724349558 ]
  - [  -0.0000148364961206,  0.0000555645674467, -0.0000486022618134 ]
  - [   0.0000020209699869, -0.0000035269729324,  0.0000372508075088 ]
  - [   0.0009854844538495, -0.0014517512172461,  0.0014511640183628 ]
  - [   0.0000600274652243, -0.0000131351152959,  0.0000136162125273 ]
  - [  -0.0000185374956345,  0.0000167526304722, -0.0000173068183358 ]
  - [   0.0000297874212265, -0.0000325846085616,  0.0000336226621585 ]
  - [  -0.0000159442424774,  0.0000499784946442, -0.0000561811029911 ]
  - [   0.0000019650906324, -0.0000341284830938,  0.0000042013998609 ]
  - [  -0.0000152437505676, -0.0000017236703798, -0.0000014370307326 ]
  - [   0.0000128722749650, -0.0000023255590804, -0.0000009431626040 ]
  - [  -0.0000783687646617, -0.0000003967434168, -0.0000005922756827 ]
  - [   0.0000625252723694,  0.0000015664177226,  0.0000076807991718 ]
  - [  -0.0000155813195306, -0.0000018668361008, -0.0000009411778592 ]
  - [   0.0000135842710733, -0.0000020847155611, -0.0000004822250048 ]
  - [  -0.0000759942195145, -0.0000012437812984, -0.0000014670672499 ]
  - [   0.0000643399544060, -0.0000005937031347, -0.0000075243224273 ]
  - [  -0.0000018505379558, -0.0000013232245237, -0.0000002011838092 ]
  - [  -0.0000001997686923, -0.0000007699295566, -0.0000006295242656 ]
  - [   0.0000040722079575,  0.0000008562856237, -0.0000019805265765 ]
  - [   0.0000022370866191,  0.0000002696178854, -0.0000016110400338 ]
  - [   0.0000041923485696, -0.0000031421784570, -0.0000011302909115 ]