# Thermal properties / unit cell (natom)

unit:
  temperature:   K
  free_energy:   kJ/mol
  entropy:       J/K/mol
  heat_capacity: J/K/mol

natom: 5    
cutoff_frequency: 0.00000
num_modes: 206250
num_integrated_modes: 206248

zero_point_energy:      21.0062803

thermal_properties:
- temperature:         0.0000000
  free_energy:        21.0062803
  entropy:             0.0000000
  heat_capacity:       0.0000000
  energy:             21.0062803

- temperature:        10.0000000
  free_energy:        21.0057669
  entropy:             0.1894055
  heat_capacity:       0.5855845
  energy:             21.0076610

- temperature:        20.0000000
  free_energy:        20.9983627
  entropy:             1.5615771
  heat_capacity:       4.3338995
  energy:             21.0295943

- temperature:        30.0000000
  free_energy:        20.9697833
  entropy:             4.3408729
  heat_capacity:       9.8753099
  energy:             21.1000095

- temperature:        40.0000000
  free_energy:        20.9086397
  entropy:             8.0028873
  heat_capacity:      15.9435140
  energy:             21.2287551

- temperature:        50.0000000
  free_energy:        20.8077930
  entropy:            12.2494648
  heat_capacity:      22.4268684
  energy:             21.4202663

- temperature:        60.0000000
  free_energy:        20.6621779
  entropy:            16.9392328
  heat_capacity:      29.2780352
  energy:             21.6785318

- temperature:        70.0000000
  free_energy:        20.4678332
  entropy:            21.9818138
  heat_capacity:      36.3470127
  energy:             22.0065602

- temperature:        80.0000000
  free_energy:        20.2216289
  entropy:            27.2982420
  heat_capacity:      43.4211745
  energy:             22.4054883

- temperature:        90.0000000
  free_energy:        19.9212106
  entropy:            32.8121616
  heat_capacity:      50.2935092
  energy:             22.8743051

- temperature:       100.0000000
  free_energy:        19.5649675
  entropy:            38.4518188
  heat_capacity:      56.8051741
  energy:             23.4101494

- temperature:       110.0000000
  free_energy:        19.1519681
  entropy:            44.1536494
  heat_capacity:      62.8568968
  energy:             24.0088696

- temperature:       120.0000000
  free_energy:        18.6818660
  entropy:            49.8643986
  heat_capacity:      68.4018609
  energy:             24.6655938

- temperature:       130.0000000
  free_energy:        18.1547934
  entropy:            55.5414982
  heat_capacity:      73.4320841
  energy:             25.3751882

- temperature:       140.0000000
  free_energy:        17.5712581
  entropy:            61.1522724
  heat_capacity:      77.9649908
  energy:             26.1325762

- temperature:       150.0000000
  free_energy:        16.9320503
  entropy:            66.6725758
  heat_capacity:      82.0327298
  energy:             26.9329367

- temperature:       160.0000000
  free_energy:        16.2381658
  entropy:            72.0852826
  heat_capacity:      85.6746082
  energy:             27.7718110

- temperature:       170.0000000
  free_energy:        15.4907423
  entropy:            77.3788564
  heat_capacity:      88.9321519
  energy:             28.6451479

- temperature:       180.0000000
  free_energy:        14.6910102
  entropy:            82.5461050
  heat_capacity:      91.8461052
  energy:             29.5493091

- temperature:       190.0000000
  free_energy:        13.8402545
  entropy:            87.5831484
  heat_capacity:      94.4547611
  energy:             30.4810527

- temperature:       200.0000000
  free_energy:        12.9397861
  entropy:            92.4885887
  heat_capacity:      96.7931515
  energy:             31.4375038

- temperature:       210.0000000
  free_energy:        11.9909201
  entropy:            97.2628577
  heat_capacity:      98.8927695
  energy:             32.4161202

- temperature:       220.0000000
  free_energy:        10.9949604
  entropy:           101.9077116
  heat_capacity:     100.7816035
  energy:             33.4146569

- temperature:       230.0000000
  free_energy:         9.9531883
  entropy:           106.4258432
  heat_capacity:     102.4843403
  energy:             34.4311323

- temperature:       240.0000000
  free_energy:         8.8668549
  entropy:           110.8205879
  heat_capacity:     104.0226514
  energy:             35.4637960

- temperature:       250.0000000
  free_energy:         7.7371754
  entropy:           115.0957014
  heat_capacity:     105.4155066
  energy:             36.5111007

- temperature:       260.0000000
  free_energy:         6.5653263
  entropy:           119.2551942
  heat_capacity:     106.6794868
  energy:             37.5716767

- temperature:       270.0000000
  free_energy:         5.3524431
  entropy:           123.3032084
  heat_capacity:     107.8290777
  energy:             38.6443094

- temperature:       280.0000000
  free_energy:         4.0996197
  entropy:           127.2439273
  heat_capacity:     108.8769386
  energy:             39.7279194

- temperature:       290.0000000
  free_energy:         2.8079083
  entropy:           131.0815095
  heat_capacity:     109.8341413
  energy:             40.8215461

- temperature:       300.0000000
  free_energy:         1.4783197
  entropy:           134.8200425
  heat_capacity:     110.7103808
  energy:             41.9243325

- temperature:       310.0000000
  free_energy:         0.1118243
  entropy:           138.4635095
  heat_capacity:     111.5141598
  energy:             43.0355123

- temperature:       320.0000000
  free_energy:        -1.2906465
  entropy:           142.0157675
  heat_capacity:     112.2529474
  energy:             44.1543991

- temperature:       330.0000000
  free_energy:        -2.7281994
  entropy:           145.4805332
  heat_capacity:     112.9333173
  energy:             45.2803766

- temperature:       340.0000000
  free_energy:        -4.1999774
  entropy:           148.8613751
  heat_capacity:     113.5610666
  energy:             46.4128901

- temperature:       350.0000000
  free_energy:        -5.7051585
  entropy:           152.1617091
  heat_capacity:     114.1413173
  energy:             47.5514397

- temperature:       360.0000000
  free_energy:        -7.2429541
  entropy:           155.3847985
  heat_capacity:     114.6786048
  energy:             48.6955733

- temperature:       370.0000000
  free_energy:        -8.8126074
  entropy:           158.5337552
  heat_capacity:     115.1769533
  energy:             49.8448820

- temperature:       380.0000000
  free_energy:       -10.4133920
  entropy:           161.6115436
  heat_capacity:     115.6399405
  energy:             50.9989946

- temperature:       390.0000000
  free_energy:       -12.0446105
  entropy:           164.6209848
  heat_capacity:     116.0707540
  energy:             52.1575736

- temperature:       400.0000000
  free_energy:       -13.7055929
  entropy:           167.5647619
  heat_capacity:     116.4722395
  energy:             53.3203119

- temperature:       410.0000000
  free_energy:       -15.3956954
  entropy:           170.4454256
  heat_capacity:     116.8469427
  energy:             54.4869292

- temperature:       420.0000000
  free_energy:       -17.1142991
  entropy:           173.2654005
  heat_capacity:     117.1971454
  energy:             55.6571691

- temperature:       430.0000000
  free_energy:       -18.8608088
  entropy:           176.0269907
  heat_capacity:     117.5248965
  energy:             56.8307972

- temperature:       440.0000000
  free_energy:       -20.6346516
  entropy:           178.7323863
  heat_capacity:     117.8320398
  energy:             58.0075984

- temperature:       450.0000000
  free_energy:       -22.4352761
  entropy:           181.3836690
  heat_capacity:     118.1202371
  energy:             59.1873749

- temperature:       460.0000000
  free_energy:       -24.2621512
  entropy:           183.9828178
  heat_capacity:     118.3909892
  energy:             60.3699450

- temperature:       470.0000000
  free_energy:       -26.1147650
  entropy:           186.5317150
  heat_capacity:     118.6456539
  energy:             61.5551411

- temperature:       480.0000000
  free_energy:       -27.9926240
  entropy:           189.0321511
  heat_capacity:     118.8854615
  energy:             62.7428086

- temperature:       490.0000000
  free_energy:       -29.8952522
  entropy:           191.4858300
  heat_capacity:     119.1115287
  energy:             63.9328045

- temperature:       500.0000000
  free_energy:       -31.8221901
  entropy:           193.8943737
  heat_capacity:     119.3248709
  energy:             65.1249967

- temperature:       510.0000000
  free_energy:       -33.7729943
  entropy:           196.2593274
  heat_capacity:     119.5264129
  energy:             66.3192626

- temperature:       520.0000000
  free_energy:       -35.7472363
  entropy:           198.5821630
  heat_capacity:     119.7169978
  energy:             67.5154885

- temperature:       530.0000000
  free_energy:       -37.7445019
  entropy:           200.8642840
  heat_capacity:     119.8973962
  energy:             68.7135686

- temperature:       540.0000000
  free_energy:       -39.7643907
  entropy:           203.1070287
  heat_capacity:     120.0683125
  energy:             69.9134048

- temperature:       550.0000000
  free_energy:       -41.8065155
  entropy:           205.3116744
  heat_capacity:     120.2303923
  energy:             71.1149054

- temperature:       560.0000000
  free_energy:       -43.8705013
  entropy:           207.4794401
  heat_capacity:     120.3842278
  energy:             72.3179852

- temperature:       570.0000000
  free_energy:       -45.9559852
  entropy:           209.6114904
  heat_capacity:     120.5303627
  energy:             73.5225643

- temperature:       580.0000000
  free_energy:       -48.0626158
  entropy:           211.7089382
  heat_capacity:     120.6692975
  energy:             74.7285684

- temperature:       590.0000000
  free_energy:       -50.1900522
  entropy:           213.7728475
  heat_capacity:     120.8014929
  energy:             75.9359278

- temperature:       600.0000000
  free_energy:       -52.3379643
  entropy:           215.8042359
  heat_capacity:     120.9273735
  energy:             77.1445772

- temperature:       610.0000000
  free_energy:       -54.5060318
  entropy:           217.8040776
  heat_capacity:     121.0473317
  energy:             78.3544555

- temperature:       620.0000000
  free_energy:       -56.6939438
  entropy:           219.7733051
  heat_capacity:     121.1617299
  energy:             79.5655053

- temperature:       630.0000000
  free_energy:       -58.9013988
  entropy:           221.7128120
  heat_capacity:     121.2709036
  energy:             80.7776727

- temperature:       640.0000000
  free_energy:       -61.1281039
  entropy:           223.6234545
  heat_capacity:     121.3751634
  energy:             81.9909070

- temperature:       650.0000000
  free_energy:       -63.3737744
  entropy:           225.5060538
  heat_capacity:     121.4747976
  energy:             83.2051606

- temperature:       660.0000000
  free_energy:       -65.6381341
  entropy:           227.3613978
  heat_capacity:     121.5700736
  energy:             84.4203885

- temperature:       670.0000000
  free_energy:       -67.9209141
  entropy:           229.1902424
  heat_capacity:     121.6612401
  energy:             85.6365483

- temperature:       680.0000000
  free_energy:       -70.2218530
  entropy:           230.9933137
  heat_capacity:     121.7485283
  energy:             86.8536003

- temperature:       690.0000000
  free_energy:       -72.5406967
  entropy:           232.7713094
  heat_capacity:     121.8321535
  energy:             88.0715067

- temperature:       700.0000000
  free_energy:       -74.8771979
  entropy:           234.5248996
  heat_capacity:     121.9123165
  energy:             89.2902319

- temperature:       710.0000000
  free_energy:       -77.2311155
  entropy:           236.2547291
  heat_capacity:     121.9892046
  energy:             90.5097421

- temperature:       720.0000000
  free_energy:       -79.6022153
  entropy:           237.9614180
  heat_capacity:     122.0629924
  energy:             91.7300056

- temperature:       730.0000000
  free_energy:       -81.9902688
  entropy:           239.6455629
  heat_capacity:     122.1338435
  energy:             92.9509922

- temperature:       740.0000000
  free_energy:       -84.3950533
  entropy:           241.3077386
  heat_capacity:     122.2019107
  energy:             94.1726732

- temperature:       750.0000000
  free_energy:       -86.8163521
  entropy:           242.9484983
  heat_capacity:     122.2673371
  energy:             95.3950216

- temperature:       760.0000000
  free_energy:       -89.2539537
  entropy:           244.5683754
  heat_capacity:     122.3302567
  energy:             96.6180116

- temperature:       770.0000000
  free_energy:       -91.7076518
  entropy:           246.1678838
  heat_capacity:     122.3907953
  energy:             97.8416188

- temperature:       780.0000000
  free_energy:       -94.1772451
  entropy:           247.7475193
  heat_capacity:     122.4490708
  energy:             99.0658200

- temperature:       790.0000000
  free_energy:       -96.6625375
  entropy:           249.3077602
  heat_capacity:     122.5051940
  energy:            100.2905930

- temperature:       800.0000000
  free_energy:       -99.1633372
  entropy:           250.8490678
  heat_capacity:     122.5592692
  energy:            101.5159170

- temperature:       810.0000000
  free_energy:      -101.6794572
  entropy:           252.3718878
  heat_capacity:     122.6113941
  energy:            102.7417719

- temperature:       820.0000000
  free_energy:      -104.2107148
  entropy:           253.8766506
  heat_capacity:     122.6616611
  energy:            103.9681387

- temperature:       830.0000000
  free_energy:      -106.7569314
  entropy:           255.3637719
  heat_capacity:     122.7101570
  energy:            105.1949992

- temperature:       840.0000000
  free_energy:      -109.3179328
  entropy:           256.8336535
  heat_capacity:     122.7569636
  energy:            106.4223362

- temperature:       850.0000000
  free_energy:      -111.8935483
  entropy:           258.2866841
  heat_capacity:     122.8021580
  energy:            107.6501331

- temperature:       860.0000000
  free_energy:      -114.4836115
  entropy:           259.7232393
  heat_capacity:     122.8458132
  energy:            108.8783742

- temperature:       870.0000000
  free_energy:      -117.0879594
  entropy:           261.1436827
  heat_capacity:     122.8879980
  energy:            110.1070445

- temperature:       880.0000000
  free_energy:      -119.7064327
  entropy:           262.5483661
  heat_capacity:     122.9287774
  energy:            111.3361295

- temperature:       890.0000000
  free_energy:      -122.3388753
  entropy:           263.9376302
  heat_capacity:     122.9682128
  energy:            112.5656156

- temperature:       900.0000000
  free_energy:      -124.9851350
  entropy:           265.3118049
  heat_capacity:     123.0063625
  energy:            113.7954895

- temperature:       910.0000000
  free_energy:      -127.6450622
  entropy:           266.6712098
  heat_capacity:     123.0432814
  energy:            115.0257387

- temperature:       920.0000000
  free_energy:      -130.3185110
  entropy:           268.0161545
  heat_capacity:     123.0790218
  energy:            116.2563512

- temperature:       930.0000000
  free_energy:      -133.0053381
  entropy:           269.3469392
  heat_capacity:     123.1136332
  energy:            117.4873154

- temperature:       940.0000000
  free_energy:      -135.7054035
  entropy:           270.6638551
  heat_capacity:     123.1471623
  energy:            118.7186202

- temperature:       950.0000000
  free_energy:      -138.4185699
  entropy:           271.9671843
  heat_capacity:     123.1796537
  energy:            119.9502552

- temperature:       960.0000000
  free_energy:      -141.1447028
  entropy:           273.2572009
  heat_capacity:     123.2111495
  energy:            121.1822100

- temperature:       970.0000000
  free_energy:      -143.8836704
  entropy:           274.5341705
  heat_capacity:     123.2416900
  energy:            122.4144750

- temperature:       980.0000000
  free_energy:      -146.6353436
  entropy:           275.7983514
  heat_capacity:     123.2713133
  energy:            123.6470407

- temperature:       990.0000000
  free_energy:      -149.3995957
  entropy:           277.0499939
  heat_capacity:     123.3000555
  energy:            124.8798983

- temperature:      1000.0000000
  free_energy:      -152.1763025
  entropy:           278.2893415
  heat_capacity:     123.3279512
  energy:            126.1130390
