phonopy:
  version: "2.37.1"
  frequency_unit_conversion_factor: 15.633302
  symmetry_tolerance: 1.00000e-05

space_group:
  type: "Fd-3m"
  number: 227
  Hall_symbol: "F 4d 2 3 -1d"

primitive_matrix:
- [ -0.000000000000000,  1.000000000000000,  0.000000000000000 ]
- [ -0.000000000000000,  0.000000000000000,  1.000000000000000 ]
- [  1.000000000000000,  0.000000000000000,  0.000000000000000 ]

supercell_matrix:
- [   3,   0,   0 ]
- [   0,   3,   0 ]
- [   0,   0,   3 ]

primitive_cell:
  lattice:
  - [     2.342927779153554,     1.352690497081643,     3.825985709262410 ] # a
  - [     4.685856189267151,     0.000000000000000,     0.000000000000000 ] # b
  - [     2.342927664970084,     4.058069699417155,     0.000000000000000 ] # c
  points:
  - symbol: Sn # 1
    coordinates: [  0.749999980020561,  0.749999988270307,  0.750000036627597 ]
    mass: 118.710000
  - symbol: Sn # 2
    coordinates: [  0.500000019968737,  0.500000011749906,  0.499999963372403 ]
    mass: 118.710000
  reciprocal_lattice: # without 2pi
  - [     0.000000000000000,     0.000000000000000,     0.261370552843174 ] # a*
  - [     0.213408171230367,    -0.123211266770039,    -0.087123488771479 ] # b*
  - [    -0.000000000000000,     0.246422578730874,    -0.087123556083504 ] # c*

unit_cell:
  lattice:
  - [     4.685856189267151,     0.000000000000000,     0.000000000000000 ] # a
  - [     2.342927664970083,     4.058069699417155,     0.000000000000000 ] # b
  - [     2.342927779153556,     1.352690497081643,     3.825985709262409 ] # c
  points:
  - symbol: Sn # 1
    coordinates: [  0.749999988270307,  0.750000036627597,  0.749999980020561 ]
    mass: 118.710000
    reduced_to: 1
  - symbol: Sn # 2
    coordinates: [  0.500000011749906,  0.499999963372403,  0.500000019968737 ]
    mass: 118.710000
    reduced_to: 2

supercell:
  lattice:
  - [    14.057568567801452,     0.000000000000000,     0.000000000000000 ] # a
  - [     7.028782994910250,    12.174209098251465,     0.000000000000000 ] # b
  - [     7.028783337460668,     4.058071491244929,    11.477957127787228 ] # c
  points:
  - symbol: Sn # 1
    coordinates: [  0.249999996090102,  0.250000012209199,  0.249999993340187 ]
    mass: 118.710000
    reduced_to: 1
  - symbol: Sn # 2
    coordinates: [  0.583333329423436,  0.250000012209199,  0.249999993340187 ]
    mass: 118.710000
    reduced_to: 1
  - symbol: Sn # 3
    coordinates: [  0.916666662756769,  0.250000012209199,  0.249999993340187 ]
    mass: 118.710000
    reduced_to: 1
  - symbol: Sn # 4
    coordinates: [  0.249999996090102,  0.583333345542532,  0.249999993340187 ]
    mass: 118.710000
    reduced_to: 1
  - symbol: Sn # 5
    coordinates: [  0.583333329423436,  0.583333345542532,  0.249999993340187 ]
    mass: 118.710000
    reduced_to: 1
  - symbol: Sn # 6
    coordinates: [  0.916666662756769,  0.583333345542532,  0.249999993340187 ]
    mass: 118.710000
    reduced_to: 1
  - symbol: Sn # 7
    coordinates: [  0.249999996090102,  0.916666678875866,  0.249999993340187 ]
    mass: 118.710000
    reduced_to: 1
  - symbol: Sn # 8
    coordinates: [  0.583333329423436,  0.916666678875866,  0.249999993340187 ]
    mass: 118.710000
    reduced_to: 1
  - symbol: Sn # 9
    coordinates: [  0.916666662756769,  0.916666678875866,  0.249999993340187 ]
    mass: 118.710000
    reduced_to: 1
  - symbol: Sn # 10
    coordinates: [  0.249999996090102,  0.250000012209199,  0.583333326673520 ]
    mass: 118.710000
    reduced_to: 1
  - symbol: Sn # 11
    coordinates: [  0.583333329423436,  0.250000012209199,  0.583333326673520 ]
    mass: 118.710000
    reduced_to: 1
  - symbol: Sn # 12
    coordinates: [  0.916666662756769,  0.250000012209199,  0.583333326673520 ]
    mass: 118.710000
    reduced_to: 1
  - symbol: Sn # 13
    coordinates: [  0.249999996090102,  0.583333345542532,  0.583333326673520 ]
    mass: 118.710000
    reduced_to: 1
  - symbol: Sn # 14
    coordinates: [  0.583333329423436,  0.583333345542532,  0.583333326673520 ]
    mass: 118.710000
    reduced_to: 1
  - symbol: Sn # 15
    coordinates: [  0.916666662756769,  0.583333345542532,  0.583333326673520 ]
    mass: 118.710000
    reduced_to: 1
  - symbol: Sn # 16
    coordinates: [  0.249999996090102,  0.916666678875866,  0.583333326673520 ]
    mass: 118.710000
    reduced_to: 1
  - symbol: Sn # 17
    coordinates: [  0.583333329423436,  0.916666678875866,  0.583333326673520 ]
    mass: 118.710000
    reduced_to: 1
  - symbol: Sn # 18
    coordinates: [  0.916666662756769,  0.916666678875866,  0.583333326673520 ]
    mass: 118.710000
    reduced_to: 1
  - symbol: Sn # 19
    coordinates: [  0.249999996090102,  0.250000012209199,  0.916666660006854 ]
    mass: 118.710000
    reduced_to: 1
  - symbol: Sn # 20
    coordinates: [  0.583333329423436,  0.250000012209199,  0.916666660006854 ]
    mass: 118.710000
    reduced_to: 1
  - symbol: Sn # 21
    coordinates: [  0.916666662756769,  0.250000012209199,  0.916666660006854 ]
    mass: 118.710000
    reduced_to: 1
  - symbol: Sn # 22
    coordinates: [  0.249999996090102,  0.583333345542532,  0.916666660006854 ]
    mass: 118.710000
    reduced_to: 1
  - symbol: Sn # 23
    coordinates: [  0.583333329423436,  0.583333345542532,  0.916666660006854 ]
    mass: 118.710000
    reduced_to: 1
  - symbol: Sn # 24
    coordinates: [  0.916666662756769,  0.583333345542532,  0.916666660006854 ]
    mass: 118.710000
    reduced_to: 1
  - symbol: Sn # 25
    coordinates: [  0.249999996090102,  0.916666678875866,  0.916666660006854 ]
    mass: 118.710000
    reduced_to: 1
  - symbol: Sn # 26
    coordinates: [  0.583333329423436,  0.916666678875866,  0.916666660006854 ]
    mass: 118.710000
    reduced_to: 1
  - symbol: Sn # 27
    coordinates: [  0.916666662756769,  0.916666678875866,  0.916666660006854 ]
    mass: 118.710000
    reduced_to: 1
  - symbol: Sn # 28
    coordinates: [  0.166666670583302,  0.166666654457468,  0.166666673322912 ]
    mass: 118.710000
    reduced_to: 28
  - symbol: Sn # 29
    coordinates: [  0.500000003916635,  0.166666654457468,  0.166666673322912 ]
    mass: 118.710000
    reduced_to: 28
  - symbol: Sn # 30
    coordinates: [  0.833333337249969,  0.166666654457468,  0.166666673322912 ]
    mass: 118.710000
    reduced_to: 28
  - symbol: Sn # 31
    coordinates: [  0.166666670583302,  0.499999987790801,  0.166666673322912 ]
    mass: 118.710000
    reduced_to: 28
  - symbol: Sn # 32
    coordinates: [  0.500000003916635,  0.499999987790801,  0.166666673322912 ]
    mass: 118.710000
    reduced_to: 28
  - symbol: Sn # 33
    coordinates: [  0.833333337249969,  0.499999987790801,  0.166666673322912 ]
    mass: 118.710000
    reduced_to: 28
  - symbol: Sn # 34
    coordinates: [  0.166666670583302,  0.833333321124134,  0.166666673322912 ]
    mass: 118.710000
    reduced_to: 28
  - symbol: Sn # 35
    coordinates: [  0.500000003916635,  0.833333321124134,  0.166666673322912 ]
    mass: 118.710000
    reduced_to: 28
  - symbol: Sn # 36
    coordinates: [  0.833333337249969,  0.833333321124134,  0.166666673322912 ]
    mass: 118.710000
    reduced_to: 28
  - symbol: Sn # 37
    coordinates: [  0.166666670583302,  0.166666654457468,  0.500000006656246 ]
    mass: 118.710000
    reduced_to: 28
  - symbol: Sn # 38
    coordinates: [  0.500000003916635,  0.166666654457468,  0.500000006656246 ]
    mass: 118.710000
    reduced_to: 28
  - symbol: Sn # 39
    coordinates: [  0.833333337249969,  0.166666654457468,  0.500000006656246 ]
    mass: 118.710000
    reduced_to: 28
  - symbol: Sn # 40
    coordinates: [  0.166666670583302,  0.499999987790801,  0.500000006656246 ]
    mass: 118.710000
    reduced_to: 28
  - symbol: Sn # 41
    coordinates: [  0.500000003916635,  0.499999987790801,  0.500000006656246 ]
    mass: 118.710000
    reduced_to: 28
  - symbol: Sn # 42
    coordinates: [  0.833333337249969,  0.499999987790801,  0.500000006656246 ]
    mass: 118.710000
    reduced_to: 28
  - symbol: Sn # 43
    coordinates: [  0.166666670583302,  0.833333321124134,  0.500000006656246 ]
    mass: 118.710000
    reduced_to: 28
  - symbol: Sn # 44
    coordinates: [  0.500000003916635,  0.833333321124134,  0.500000006656246 ]
    mass: 118.710000
    reduced_to: 28
  - symbol: Sn # 45
    coordinates: [  0.833333337249969,  0.833333321124134,  0.500000006656246 ]
    mass: 118.710000
    reduced_to: 28
  - symbol: Sn # 46
    coordinates: [  0.166666670583302,  0.166666654457468,  0.833333339989579 ]
    mass: 118.710000
    reduced_to: 28
  - symbol: Sn # 47
    coordinates: [  0.500000003916635,  0.166666654457468,  0.833333339989579 ]
    mass: 118.710000
    reduced_to: 28
  - symbol: Sn # 48
    coordinates: [  0.833333337249969,  0.166666654457468,  0.833333339989579 ]
    mass: 118.710000
    reduced_to: 28
  - symbol: Sn # 49
    coordinates: [  0.166666670583302,  0.499999987790801,  0.833333339989579 ]
    mass: 118.710000
    reduced_to: 28
  - symbol: Sn # 50
    coordinates: [  0.500000003916635,  0.499999987790801,  0.833333339989579 ]
    mass: 118.710000
    reduced_to: 28
  - symbol: Sn # 51
    coordinates: [  0.833333337249969,  0.499999987790801,  0.833333339989579 ]
    mass: 118.710000
    reduced_to: 28
  - symbol: Sn # 52
    coordinates: [  0.166666670583302,  0.833333321124134,  0.833333339989579 ]
    mass: 118.710000
    reduced_to: 28
  - symbol: Sn # 53
    coordinates: [  0.500000003916635,  0.833333321124134,  0.833333339989579 ]
    mass: 118.710000
    reduced_to: 28
  - symbol: Sn # 54
    coordinates: [  0.833333337249969,  0.833333321124134,  0.833333339989579 ]
    mass: 118.710000
    reduced_to: 28

displacements:
- atom:    1
  displacement:
    [   0.0100000000000000,  0.0000000000000000,  0.0000000000000000 ]
  forces:
  - [  -0.0800981521606445,  0.0006700981175527,  0.0004779789596796 ]
  - [   0.0055727493017912,  0.0008124647429213,  0.0005856426432729 ]
  - [   0.0054999236017466, -0.0008619265863672, -0.0005990937352180 ]
  - [   0.0004204141441733,  0.0021174740977585, -0.0002121459692717 ]
  - [   0.0001878254115582, -0.0000039017759264,  0.0000067865476012 ]
  - [   0.0004212632775307, -0.0021003163419664,  0.0002231840044260 ]
  - [   0.0004118671640754,  0.0038008205592632, -0.0008226251229644 ]
  - [   0.0004326067864895, -0.0037726098671556,  0.0007983660325408 ]
  - [   0.0001873280853033, -0.0000083693303168,  0.0000035092234612 ]
  - [   0.0004260297864676,  0.0004980764351785,  0.0020781541243196 ]
  - [   0.0001873970031738, -0.0000057686120272,  0.0000031068921089 ]
  - [   0.0004214262589812, -0.0004995889030397, -0.0020462451502681 ]
  - [   0.0000053858384490,  0.0001057439876604,  0.0000828430056572 ]
  - [  -0.0000022584572434, -0.0001150014068116, -0.0000744033604860 ]
  - [   0.0000044647604227, -0.0000061176588133,  0.0000040745362639 ]
  - [  -0.0004377178847790, -0.0000051078386605,  0.0000057322904468 ]
  - [   0.0000955965369940, -0.0000590034760535,  0.0000774851068854 ]
  - [   0.0000940989702940,  0.0000463644973934, -0.0000716447830200 ]
  - [   0.0004090231377631,  0.0004928153939545,  0.0038635572418571 ]
  - [   0.0004330091178417, -0.0005042687989771, -0.0038163261488080 ]
  - [   0.0001899963244796,  0.0000011557713151, -0.0000038528814912 ]
  - [  -0.0004400555044413, -0.0000036954879761,  0.0000003036111593 ]
  - [   0.0000966219231486,  0.0000446792691946, -0.0000776657834649 ]
  - [   0.0000944947823882, -0.0000608637928963,  0.0000720918178558 ]
  - [  -0.0000083167105913,  0.0001018904149532,  0.0000783037394285 ]
  - [   0.0000037606805563, -0.0000072345137596,  0.0000013597309589 ]
  - [  -0.0000007022172213, -0.0001163911074400, -0.0000748634338379 ]
  - [   0.0287329033017159,  0.0135771613568068,  0.0095938658341765 ]
  - [   0.0294145755469799, -0.0140735283493996, -0.0099587170407176 ]
  - [  -0.0016747200861573,  0.0000121900811791,  0.0000022528693080 ]
  - [   0.0051317140460014, -0.0001719668507576,  0.0000454019755125 ]
  - [  -0.0003341324627399, -0.0007708948105574,  0.0002266289666295 ]
  - [  -0.0003310050815344,  0.0007679220288992, -0.0002244673669338 ]
  - [  -0.0004949970170856, -0.0006663869135082, -0.0000383295118809 ]
  - [   0.0009978143498302,  0.0000103851780295,  0.0000042635947466 ]
  - [  -0.0005034413188696,  0.0006794086657465,  0.0000446485355496 ]
  - [   0.0051246574148536, -0.0000077812001109, -0.0001851953566074 ]
  - [  -0.0003323443233967, -0.0000364491716027, -0.0008148839697242 ]
  - [  -0.0003301380202174,  0.0000530993565917,  0.0007874220609665 ]
  - [  -0.0000327602028847, -0.0002191802486777, -0.0001647965982556 ]
  - [   0.0000516837462783,  0.0000062119215727, -0.0000035287812352 ]
  - [  -0.0000265566632152,  0.0002249251119792,  0.0001509310677648 ]
  - [   0.0000521317124367, -0.0001725293695927,  0.0006321687251329 ]
  - [   0.0000458927825093,  0.0001821382902563, -0.0006536273285747 ]
  - [  -0.0001016892492771,  0.0000044968910515, -0.0000082375481725 ]
  - [  -0.0004965309053659, -0.0002489462494850, -0.0006226422265172 ]
  - [   0.0010003205388784,  0.0000153109431267, -0.0000007264316082 ]
  - [  -0.0005029877647758,  0.0002769958227873,  0.0006166081875563 ]
  - [   0.0000525470823050,  0.0005418285727501, -0.0003768997266889 ]
  - [   0.0000477442517877, -0.0005535744130611,  0.0003848159685731 ]
  - [  -0.0001006480306387, -0.0000028405338526,  0.0000024493783712 ]
  - [  -0.0000413218513131,  0.0000036051496863, -0.0000013606622815 ]
  - [   0.0000213794410229, -0.0000670882873237, -0.0000512003898621 ]
  - [   0.0000217892229557,  0.0000741863623261,  0.0000495584681630 ]

force_constants:
  format: "full"
  shape: [ 54, 54 ]
  elements:
  - # (1, 1)
    - [     8.009815124524074,     0.000000016533803,    -0.000000000363519 ]
    - [     0.000000016533803,     8.009815167998362,    -0.000000016478901 ]
    - [    -0.000000000363519,    -0.000000016478901,     8.009815114518597 ]
  - # (1, 2)
    - [    -0.553233180921493,    -0.083817705720224,    -0.059268053332014 ]
    - [     0.083817540446369,     0.127979396087102,     0.059381683895994 ]
    - [     0.059267951121858,     0.059381680706793,     0.085990132879602 ]
  - # (1, 3)
    - [    -0.553233174424589,     0.083817661659542,     0.059268030962386 ]
    - [    -0.083817665103567,     0.127979430690871,     0.059381690187206 ]
    - [    -0.059268025037220,     0.059381677722621,     0.085990114352007 ]
  - # (1, 4)
    - [    -0.042323757552123,    -0.211156005356422,     0.021792061870307 ]
    - [    -0.378791368470073,    -0.382930097310851,    -0.081018476226125 ]
    - [     0.081060117556570,     0.021636795722583,     0.085990165418447 ]
  - # (1, 5)
    - [    -0.018825958607052,     0.000000015457544,     0.000000017024549 ]
    - [     0.000000022138331,    -0.018825974227262,    -0.000000000372727 ]
    - [     0.000000000748215,     0.000000008345658,     0.009652147645355 ]
  - # (1, 6)
    - [    -0.042323730983646,     0.211155981459596,    -0.021792065087551 ]
    - [     0.378791503997912,    -0.382930127686601,    -0.081018468912532 ]
    - [    -0.081060181084613,     0.021636892019639,     0.085990148364983 ]
  - # (1, 7)
    - [    -0.042323745139634,    -0.378791352425022,     0.081060110437173 ]
    - [    -0.211156063735564,    -0.382930219112890,     0.021636820408216 ]
    - [     0.021792078250260,    -0.081018446241297,     0.085990141281983 ]
  - # (1, 8)
    - [    -0.042323809370152,     0.378791454223678,    -0.081060120891542 ]
    - [     0.211156065248061,    -0.382930024079114,     0.021636799600054 ]
    - [    -0.021792050218272,    -0.081018469542449,     0.085990144565345 ]
  - # (1, 9)
    - [    -0.018825987188324,     0.000000001484022,     0.000000003153781 ]
    - [    -0.000000003389074,    -0.018825938397663,    -0.000000011754785 ]
    - [    -0.000000007271276,    -0.000000016961525,     0.009652123289040 ]
  - # (1, 10)
    - [    -0.042323817886379,    -0.049839620830203,    -0.206343845416988 ]
    - [    -0.049839652201149,     0.015226048943036,    -0.119132764269753 ]
    - [    -0.384147929813198,    -0.221788007007456,    -0.312165938727209 ]
  - # (1, 11)
    - [    -0.018825964930986,    -0.000000007696022,    -0.000000006040571 ]
    - [    -0.000000020069145,     0.006487947641491,    -0.008949824219250 ]
    - [    -0.000000008647382,    -0.008949822465420,    -0.015661751329048 ]
  - # (1, 12)
    - [    -0.042323809844202,     0.049839661519421,     0.206343850555109 ]
    - [     0.049839648638632,     0.015226082012515,    -0.119132694336570 ]
    - [     0.384148012285473,    -0.221787970353073,    -0.312165955552444 ]
  - # (1, 13)
    - [     0.000159450678964,    -0.010961216703238,    -0.007750760928594 ]
    - [    -0.010961228111347,    -0.012497501063739,     0.004474915792511 ]
    - [    -0.007750765943040,     0.004474911647943,    -0.015661740278214 ]
  - # (1, 14)
    - [     0.000159473891603,     0.010961238703738,     0.007750770679207 ]
    - [     0.010961244545435,    -0.012497490495887,     0.004474915790071 ]
    - [     0.007750761821792,     0.004474918957705,    -0.015661772705691 ]
  - # (1, 15)
    - [    -0.000393231450034,    -0.000000009608828,    -0.000000015703336 ]
    - [    -0.000000008712141,    -0.012574822360486,    -0.008613692604392 ]
    - [    -0.000000010311998,    -0.008613681609277,    -0.006484042494125 ]
  - # (1, 16)
    - [     0.044000952787398,     0.000000011360389,     0.000000015739009 ]
    - [     0.000000007945333,    -0.071098590622474,     0.238265291424697 ]
    - [    -0.000000012996374,     0.443575817517502,    -0.312165994966839 ]
  - # (1, 17)
    - [    -0.009529414206128,     0.005274783107070,    -0.007459688770742 ]
    - [     0.005274783100521,    -0.003438621820483,     0.004306839108788 ]
    - [    -0.007459693404529,     0.004306852905277,    -0.006484045438389 ]
  - # (1, 18)
    - [    -0.009529443188408,    -0.005274769353941,     0.007459681532712 ]
    - [    -0.005274775536304,    -0.003438582629439,     0.004306823205510 ]
    - [     0.007459684152744,     0.004306829737978,    -0.006484058563214 ]
  - # (1, 19)
    - [    -0.042323802030916,    -0.049839628479534,    -0.384148025152254 ]
    - [    -0.049839626177463,     0.015226045242084,    -0.221788052387464 ]
    - [    -0.206343794816989,    -0.119132718557547,    -0.312165962186676 ]
  - # (1, 20)
    - [    -0.042323806309954,     0.049839658576316,     0.384148016040258 ]
    - [     0.049839641816094,     0.015226067247368,    -0.221787966275571 ]
    - [     0.206343840742026,    -0.119132699492072,    -0.312165952318418 ]
  - # (1, 21)
    - [    -0.018826003239463,     0.000000000358639,    -0.000000002308525 ]
    - [    -0.000000003176137,     0.006487919450772,    -0.008949827019306 ]
    - [    -0.000000010765502,    -0.008949823683935,    -0.015661736088046 ]
  - # (1, 22)
    - [     0.044000962975507,     0.000000013921880,    -0.000000002919601 ]
    - [     0.000000009064218,    -0.071098702578068,     0.443576031186088 ]
    - [    -0.000000001938450,     0.238265277804202,    -0.312165972244526 ]
  - # (1, 23)
    - [    -0.009529432558458,    -0.005274788024410,     0.007459675551868 ]
    - [    -0.005274794092476,    -0.003438649805033,     0.004306858244153 ]
    - [     0.007459664287899,     0.004306850841366,    -0.006484009342010 ]
  - # (1, 24)
    - [    -0.009529414146223,     0.005274782636852,    -0.007459687755097 ]
    - [     0.005274779214133,    -0.003438642072601,     0.004306855205746 ]
    - [    -0.007459687342064,     0.004306853383975,    -0.006484047661896 ]
  - # (1, 25)
    - [     0.000159471483549,    -0.010961215033903,    -0.007750747817693 ]
    - [    -0.010961217411057,    -0.012497497241930,     0.004474909906775 ]
    - [    -0.007750752363104,     0.004474906565755,    -0.015661755253376 ]
  - # (1, 26)
    - [    -0.000393251961319,     0.000000016501275,     0.000000001514154 ]
    - [     0.000000016911870,    -0.012574800969940,    -0.008613716467121 ]
    - [     0.000000006116098,    -0.008613719847054,    -0.006484029906148 ]
  - # (1, 27)
    - [     0.000159449712009,     0.010961253591606,     0.007750765267585 ]
    - [     0.010961245423461,    -0.012497508636993,     0.004474909020207 ]
    - [     0.007750760935448,     0.004474911318734,    -0.015661711817823 ]
  - # (1, 28)
    - [    -2.907396291021487,    -1.382523187928561,    -0.977591315501250 ]
    - [    -1.382523520283718,    -1.310996989537549,    -0.564412783725105 ]
    - [    -0.977590957054854,    -0.564412428279701,    -0.911896080496844 ]
  - # (1, 29)
    - [    -2.907396255260650,     1.382522855806370,     0.977591158063273 ]
    - [     1.382523201086643,    -1.310996588449412,    -0.564412513407146 ]
    - [     0.977591040849226,    -0.564412301478867,    -0.911896131239785 ]
  - # (1, 30)
    - [     0.166939453336017,     0.000000021069058,     0.000000005357014 ]
    - [     0.000000026518900,     0.011091066350734,     0.004839282096619 ]
    - [     0.000000010258118,     0.004839273894366,     0.007669172300658 ]
  - # (1, 31)
    - [    -0.512796435847191,    -0.000000197297275,     0.000000032541248 ]
    - [     0.000000089179128,    -3.705595977286399,     1.128825381695565 ]
    - [    -0.000000078739160,     1.128825379162730,    -0.911896598261328 ]
  - # (1, 32)
    - [     0.033320713319959,     0.076933217033969,    -0.022429382640640 ]
    - [     0.076933208892692,    -0.055514023680542,    -0.012949623674347 ]
    - [    -0.022429383263083,    -0.012949620907975,     0.001955233112083 ]
  - # (1, 33)
    - [     0.033320715074167,    -0.076933191858412,     0.022429376606095 ]
    - [    -0.076933211413696,    -0.055514092809599,    -0.012949613242873 ]
    - [     0.022429385196742,    -0.012949605339973,     0.001955285054857 ]
  - # (1, 34)
    - [     0.050053160014349,     0.067484361970206,     0.004190946345130 ]
    - [     0.067484349244089,     0.127977414341302,    -0.002419655250064 ]
    - [     0.004190928723821,    -0.002419668015754,     0.007669191985572 ]
  - # (1, 35)
    - [    -0.099931460219665,    -0.000000004071397,    -0.000000006505654 ]
    - [    -0.000000036725852,     0.077738161414755,     0.025899201489064 ]
    - [    -0.000000022505458,     0.025899196630526,     0.001955249851558 ]
  - # (1, 36)
    - [     0.050053166881805,    -0.067484328802729,    -0.004190940547773 ]
    - [    -0.067484331476745,     0.127977409145727,    -0.002419679861178 ]
    - [    -0.004190944179358,    -0.002419682564488,     0.007669161071596 ]
  - # (1, 37)
    - [    -0.512796290440010,     0.000000025506189,     0.000000140385981 ]
    - [     0.000000026448596,    -0.512796520091338,     0.000000292416311 ]
    - [     0.000000091053573,    -0.000000191524453,    -4.104696155871842 ]
  - # (1, 38)
    - [     0.033320747642254,     0.004497783711182,     0.080009752701548 ]
    - [     0.004497782993401,    -0.012569533297668,    -0.028132772953936 ]
    - [     0.080009767718005,    -0.028132786181290,    -0.040989243854305 ]
  - # (1, 39)
    - [     0.033320709893913,    -0.004497766315448,    -0.080009760420880 ]
    - [    -0.004497769105958,    -0.012569582233576,    -0.028132800275161 ]
    - [    -0.080009747066460,    -0.028132787547284,    -0.040989212181137 ]
  - # (1, 40)
    - [     0.002798209729054,     0.022119982382069,     0.015641178454731 ]
    - [     0.022119986799777,     0.017952977222679,     0.083356906656073 ]
    - [     0.015641172915411,     0.083356886241018,    -0.040989291915269 ]
  - # (1, 41)
    - [    -0.005168467016686,     0.000000014069621,     0.000000006777064 ]
    - [     0.000000014290825,    -0.005168399351316,    -0.000000020362855 ]
    - [    -0.000000004167595,    -0.000000019914782,    -0.005168456255373 ]
  - # (1, 42)
    - [     0.002798184761567,    -0.022119951801348,    -0.015641178718156 ]
    - [    -0.022119974328110,     0.017952980665565,     0.083356891909419 ]
    - [    -0.015641173249337,     0.083356848755774,    -0.040989232799140 ]
  - # (1, 43)
    - [    -0.004992179138408,     0.017622187982476,    -0.064368606515946 ]
    - [     0.017622185619693,     0.025743367582323,    -0.055224130418697 ]
    - [    -0.064368572009524,    -0.055224108240841,    -0.040989202278181 ]
  - # (1, 44)
    - [    -0.004992179348447,    -0.017622176220072,     0.064368585925653 ]
    - [    -0.017622193634038,     0.025743365421311,    -0.055224112585251 ]
    - [     0.064368571643283,    -0.055224091709572,    -0.040989187555266 ]
  - # (1, 45)
    - [     0.010115437108770,     0.000000020723585,     0.000000019157528 ]
    - [     0.000000026131420,     0.010115460755799,    -0.000000008879094 ]
    - [     0.000000008894338,    -0.000000004240814,    -0.008293462032417 ]
  - # (1, 46)
    - [     0.050053184499422,     0.026446046808565,     0.062227863667232 ]
    - [     0.026446045172531,     0.019515929551781,     0.035927286018340 ]
    - [     0.062227839875363,     0.035927284457437,     0.116130616396587 ]
  - # (1, 47)
    - [    -0.099931424647854,    -0.000000003307142,     0.000000001454896 ]
    - [    -0.000000024699918,     0.026654250135530,     0.043960108755873 ]
    - [    -0.000000023211605,     0.043960094414959,     0.053039112058500 ]
  - # (1, 48)
    - [     0.050053189974658,    -0.026446017750251,    -0.062227859719452 ]
    - [    -0.026446028567485,     0.019515940009626,     0.035927275241734 ]
    - [    -0.062227857207586,     0.035927272138868,     0.116130612308235 ]
  - # (1, 49)
    - [    -0.004992188348760,    -0.054813200088624,     0.038070568398040 ]
    - [    -0.054813201605580,    -0.068285015469890,    -0.021980051690444 ]
    - [     0.038070561189251,    -0.021980055300055,     0.053039114059496 ]
  - # (1, 50)
    - [    -0.004992190194679,     0.054813240007200,    -0.038070562600973 ]
    - [     0.054813232308634,    -0.068285003614845,    -0.021980060712020 ]
    - [    -0.038070555412713,    -0.021980056534284,     0.053039131847250 ]
  - # (1, 51)
    - [     0.010115437050109,     0.000000019806793,     0.000000006674837 ]
    - [     0.000000013903823,    -0.006248000939310,     0.005785351527446 ]
    - [     0.000000006737270,     0.005785346620978,     0.008069998489773 ]
  - # (1, 52)
    - [     0.004247262801207,    -0.000000000086578,    -0.000000004595631 ]
    - [    -0.000000010530514,     0.065321842222419,    -0.071854568142189 ]
    - [    -0.000000007648823,    -0.071854556754174,     0.116130619223832 ]
  - # (1, 53)
    - [    -0.002157186606017,     0.007085611852633,     0.005010280828689 ]
    - [     0.007085616507988,     0.006024625088494,    -0.002892706711700 ]
    - [     0.005010282359447,    -0.002892708199425,     0.008070006418983 ]
  - # (1, 54)
    - [    -0.002157174111017,    -0.007085595065705,    -0.005010283412676 ]
    - [    -0.007085601565202,     0.006024622651255,    -0.002892707565904 ]
    - [    -0.005010287399142,    -0.002892702540646,     0.008069995120635 ]
  - # (2, 1)
    - [    -0.553233180921493,     0.083817540446369,     0.059267951121858 ]
    - [    -0.083817705720224,     0.127979396087102,     0.059381680706793 ]
    - [    -0.059268053332014,     0.059381683895994,     0.085990132879602 ]
  - # (2, 2)
    - [     8.009813517936722,     0.000002583540537,     0.000001596782618 ]
    - [     0.000002583540537,     8.009816748559498,    -0.000001556284747 ]
    - [     0.000001596782618,    -0.000001556284747,     8.009815107307423 ]
  - # (2, 3)
    - [    -0.553233142367624,    -0.083817831462327,    -0.059268110266783 ]
    - [     0.083817710447118,     0.127979437615542,     0.059381704913170 ]
    - [     0.059268053793938,     0.059381705667736,     0.085990116526540 ]
  - # (2, 4)
    - [    -0.042323766282150,     0.211156054452079,    -0.021792089478211 ]
    - [     0.378791302610309,    -0.382930028807058,    -0.081018372367162 ]
    - [    -0.081060120858298,     0.021636787267336,     0.085990146852845 ]
  - # (2, 5)
    - [    -0.042323731175771,    -0.211156030838768,     0.021792074852655 ]
    - [    -0.378791512497691,    -0.382930317216411,    -0.081018480858708 ]
    - [     0.081060163040415,     0.021636898752972,     0.085990175865291 ]
  - # (2, 6)
    - [    -0.018825938898057,    -0.000000034858866,    -0.000000024429962 ]
    - [    -0.000000038265128,    -0.018826015393119,     0.000000026644443 ]
    - [    -0.000000014008966,     0.000000017733399,     0.009652124650023 ]
  - # (2, 7)
    - [    -0.018825946195527,    -0.000000035168223,    -0.000000017036483 ]
    - [    -0.000000027732899,    -0.018825990103514,     0.000000012591509 ]
    - [    -0.000000019630132,     0.000000009236228,     0.009652119204490 ]
  - # (2, 8)
    - [    -0.042323789150881,    -0.378791450961182,     0.081060144043636 ]
    - [    -0.211156088086259,    -0.382930187658668,     0.021636827985884 ]
    - [     0.021792042703646,    -0.081018487186358,     0.085990155705696 ]
  - # (2, 9)
    - [    -0.042323722269408,     0.378791391559151,    -0.081060172378417 ]
    - [     0.211155937543906,    -0.382930018647304,     0.021636871883804 ]
    - [    -0.021792082284945,    -0.081018451223586,     0.085990130819030 ]
  - # (2, 10)
    - [    -0.042323794088531,     0.049839588357723,     0.206343837420276 ]
    - [     0.049839609944387,     0.015226061537003,    -0.119132698817907 ]
    - [     0.384147860222879,    -0.221787881581454,    -0.312165850132964 ]
  - # (2, 11)
    - [    -0.042323796581380,    -0.049839680019754,    -0.206343865931499 ]
    - [    -0.049839679208378,     0.015226030304651,    -0.119132730354800 ]
    - [    -0.384148026838238,    -0.221788050053779,    -0.312166004480309 ]
  - # (2, 12)
    - [    -0.018825962047799,    -0.000000019514164,    -0.000000010763933 ]
    - [    -0.000000004914434,     0.006487939500514,    -0.008949814597713 ]
    - [    -0.000000013686574,    -0.008949822353860,    -0.015661761916123 ]