# Thermal properties / unit cell (natom)

unit:
  temperature:   K
  free_energy:   kJ/mol
  entropy:       J/K/mol
  heat_capacity: J/K/mol

natom: 2    
cutoff_frequency: 0.00000
num_modes: 105456
num_integrated_modes: 105454

zero_point_energy:       4.5232949

thermal_properties:
- temperature:         0.0000000
  free_energy:         4.5232949
  entropy:             0.0000000
  heat_capacity:       0.0000000
  energy:              4.5232949

- temperature:        10.0000000
  free_energy:         4.5226810
  entropy:             0.2312304
  heat_capacity:       0.6956782
  energy:              4.5249933

- temperature:        20.0000000
  free_energy:         4.5141636
  entropy:             1.7466819
  heat_capacity:       4.6026990
  energy:              4.5490972

- temperature:        30.0000000
  free_energy:         4.4832811
  entropy:             4.5915681
  heat_capacity:       9.8429259
  energy:              4.6210281

- temperature:        40.0000000
  free_energy:         4.4199349
  entropy:             8.1675282
  heat_capacity:      15.2904456
  energy:              4.7466361

- temperature:        50.0000000
  free_energy:         4.3185644
  entropy:            12.1556264
  heat_capacity:      20.5882811
  energy:              4.9263457

- temperature:        60.0000000
  free_energy:         4.1761763
  entropy:            16.3392866
  heat_capacity:      25.3347255
  energy:              5.1565335

- temperature:        70.0000000
  free_energy:         3.9916757
  entropy:            20.5557464
  heat_capacity:      29.3489977
  energy:              5.4305779

- temperature:        80.0000000
  free_energy:         3.7653161
  entropy:            24.6973227
  heat_capacity:      32.6423987
  energy:              5.7411019

- temperature:        90.0000000
  free_energy:         3.4981900
  entropy:            28.7016811
  heat_capacity:      35.3108757
  energy:              6.0813413

- temperature:       100.0000000
  free_energy:         3.1918457
  entropy:            32.5377161
  heat_capacity:      37.4682982
  energy:              6.4456173

- temperature:       110.0000000
  free_energy:         2.8480369
  entropy:            36.1937739
  heat_capacity:      39.2184991
  energy:              6.8293520

- temperature:       120.0000000
  free_energy:         2.4685718
  entropy:            39.6695513
  heat_capacity:      40.6473044
  energy:              7.2289180

- temperature:       130.0000000
  free_energy:         2.0552273
  entropy:            42.9709822
  heat_capacity:      41.8226846
  energy:              7.6414550

- temperature:       140.0000000
  free_energy:         1.6097032
  entropy:            46.1071517
  heat_capacity:      42.7974941
  energy:              8.0647044

- temperature:       150.0000000
  free_energy:         1.1336004
  entropy:            49.0884873
  heat_capacity:      43.6125877
  energy:              8.4968735

- temperature:       160.0000000
  free_energy:         0.6284137
  entropy:            51.9257260
  heat_capacity:      44.2995625
  energy:              8.9365299

- temperature:       170.0000000
  free_energy:         0.0955312
  entropy:            54.6293462
  heat_capacity:      44.8829567
  energy:              9.3825201

- temperature:       180.0000000
  free_energy:        -0.4637610
  entropy:            57.2092727
  heat_capacity:      45.3819426
  energy:              9.8339081

- temperature:       190.0000000
  free_energy:        -1.0482728
  entropy:            59.6747421
  heat_capacity:      45.8116060
  energy:             10.2899282

- temperature:       200.0000000
  free_energy:        -1.6569027
  entropy:            62.0342600
  heat_capacity:      46.1839066
  energy:             10.7499493

- temperature:       210.0000000
  free_energy:        -2.2886308
  entropy:            64.2956096
  heat_capacity:      46.5083985
  energy:             11.2134472

- temperature:       220.0000000
  free_energy:        -2.9425114
  entropy:            66.4658868
  heat_capacity:      46.7927715
  energy:             11.6799837

- temperature:       230.0000000
  free_energy:        -3.6176666
  entropy:            68.5515495
  heat_capacity:      47.0432604
  energy:             12.1491898

- temperature:       240.0000000
  free_energy:        -4.3132800
  entropy:            70.5584708
  heat_capacity:      47.2649562
  energy:             12.6207530

- temperature:       250.0000000
  free_energy:        -5.0285914
  entropy:            72.4919934
  heat_capacity:      47.4620441
  energy:             13.0944070

- temperature:       260.0000000
  free_energy:        -5.7628915
  entropy:            74.3569805
  heat_capacity:      47.6379870
  energy:             13.5699235

- temperature:       270.0000000
  free_energy:        -6.5155174
  entropy:            76.1578639
  heat_capacity:      47.7956676
  energy:             14.0471059

- temperature:       280.0000000
  free_energy:        -7.2858486
  entropy:            77.8986879
  heat_capacity:      47.9374996
  energy:             14.5257840

- temperature:       290.0000000
  free_energy:        -8.0733033
  entropy:            79.5831488
  heat_capacity:      48.0655155
  energy:             15.0058099

- temperature:       300.0000000
  free_energy:        -8.8773350
  entropy:            81.2146301
  heat_capacity:      48.1814355
  energy:             15.4870541

- temperature:       310.0000000
  free_energy:        -9.6974297
  entropy:            82.7962349
  heat_capacity:      48.2867227
  energy:             15.9694032

- temperature:       320.0000000
  free_energy:       -10.5331030
  entropy:            84.3308132
  heat_capacity:      48.3826278
  energy:             16.4527573

- temperature:       330.0000000
  free_energy:       -11.3838979
  entropy:            85.8209878
  heat_capacity:      48.4702241
  energy:             16.9370280

- temperature:       340.0000000
  free_energy:       -12.2493828
  entropy:            87.2691762
  heat_capacity:      48.5504371
  energy:             17.4221371

- temperature:       350.0000000
  free_energy:       -13.1291490
  entropy:            88.6776109
  heat_capacity:      48.6240680
  energy:             17.9080148

- temperature:       360.0000000
  free_energy:       -14.0228094
  entropy:            90.0483563
  heat_capacity:      48.6918129
  energy:             18.3945989

- temperature:       370.0000000
  free_energy:       -14.9299968
  entropy:            91.3833253
  heat_capacity:      48.7542787
  energy:             18.8818335

- temperature:       380.0000000
  free_energy:       -15.8503626
  entropy:            92.6842927
  heat_capacity:      48.8119968
  energy:             19.3696686

- temperature:       390.0000000
  free_energy:       -16.7835749
  entropy:            93.9529078
  heat_capacity:      48.8654336
  energy:             19.8580592

- temperature:       400.0000000
  free_energy:       -17.7293180
  entropy:            95.1907061
  heat_capacity:      48.9150000
  energy:             20.3469644

- temperature:       410.0000000
  free_energy:       -18.6872910
  entropy:            96.3991184
  heat_capacity:      48.9610590
  energy:             20.8363475

- temperature:       420.0000000
  free_energy:       -19.6572069
  entropy:            97.5794806
  heat_capacity:      49.0039323
  energy:             21.3261750

- temperature:       430.0000000
  free_energy:       -20.6387913
  entropy:            98.7330414
  heat_capacity:      49.0439057
  energy:             21.8164165

- temperature:       440.0000000
  free_energy:       -21.6317823
  entropy:            99.8609695
  heat_capacity:      49.0812337
  energy:             22.3070443

- temperature:       450.0000000
  free_energy:       -22.6359289
  entropy:           100.9643601
  heat_capacity:      49.1161437
  energy:             22.7980331

- temperature:       460.0000000
  free_energy:       -23.6509911
  entropy:           102.0442411
  heat_capacity:      49.1488393
  energy:             23.2893598

- temperature:       470.0000000
  free_energy:       -24.6767386
  entropy:           103.1015782
  heat_capacity:      49.1795031
  energy:             23.7810031

- temperature:       480.0000000
  free_energy:       -25.7129506
  entropy:           104.1372796
  heat_capacity:      49.2082995
  energy:             24.2729436

- temperature:       490.0000000
  free_energy:       -26.7594149
  entropy:           105.1522007
  heat_capacity:      49.2353765
  energy:             24.7651634

- temperature:       500.0000000
  free_energy:       -27.8159280
  entropy:           106.1471478
  heat_capacity:      49.2608678
  energy:             25.2576459

- temperature:       510.0000000
  free_energy:       -28.8822939
  entropy:           107.1228818
  heat_capacity:      49.2848945
  energy:             25.7503758

- temperature:       520.0000000
  free_energy:       -29.9583240
  entropy:           108.0801216
  heat_capacity:      49.3075662
  energy:             26.2433392

- temperature:       530.0000000
  free_energy:       -31.0438369
  entropy:           109.0195470
  heat_capacity:      49.3289828
  energy:             26.7365230

- temperature:       540.0000000
  free_energy:       -32.1386577
  entropy:           109.9418013
  heat_capacity:      49.3492348
  energy:             27.2299150

- temperature:       550.0000000
  free_energy:       -33.2426177
  entropy:           110.8474942
  heat_capacity:      49.3684050
  energy:             27.7235041

- temperature:       560.0000000
  free_energy:       -34.3555543
  entropy:           111.7372037
  heat_capacity:      49.3865689
  energy:             28.2172798

- temperature:       570.0000000
  free_energy:       -35.4773104
  entropy:           112.6114784
  heat_capacity:      49.4037954
  energy:             28.7112323

- temperature:       580.0000000
  free_energy:       -36.6077342
  entropy:           113.4708395
  heat_capacity:      49.4201479
  energy:             29.2053528

- temperature:       590.0000000
  free_energy:       -37.7466791
  entropy:           114.3157825
  heat_capacity:      49.4356843
  energy:             29.6996326

- temperature:       600.0000000
  free_energy:       -38.8940033
  entropy:           115.1467787
  heat_capacity:      49.4504579
  energy:             30.1940639

- temperature:       610.0000000
  free_energy:       -40.0495697
  entropy:           115.9642771
  heat_capacity:      49.4645177
  energy:             30.6886394

- temperature:       620.0000000
  free_energy:       -41.2132453
  entropy:           116.7687054
  heat_capacity:      49.4779089
  energy:             31.1833520

- temperature:       630.0000000
  free_energy:       -42.3849016
  entropy:           117.5604715
  heat_capacity:      49.4906731
  energy:             31.6781954

- temperature:       640.0000000
  free_energy:       -43.5644138
  entropy:           118.3399646
  heat_capacity:      49.5028488
  energy:             32.1731635

- temperature:       650.0000000
  free_energy:       -44.7516612
  entropy:           119.1075566
  heat_capacity:      49.5144715
  energy:             32.6682506

- temperature:       660.0000000
  free_energy:       -45.9465265
  entropy:           119.8636026
  heat_capacity:      49.5255741
  energy:             33.1634512

- temperature:       670.0000000
  free_energy:       -47.1488959
  entropy:           120.6084423
  heat_capacity:      49.5361872
  energy:             33.6587604

- temperature:       680.0000000
  free_energy:       -48.3586591
  entropy:           121.3424007
  heat_capacity:      49.5463391
  energy:             34.1541734

- temperature:       690.0000000
  free_energy:       -49.5757087
  entropy:           122.0657891
  heat_capacity:      49.5560561
  energy:             34.6496858

- temperature:       700.0000000
  free_energy:       -50.7999406
  entropy:           122.7789054
  heat_capacity:      49.5653625
  energy:             35.1452932

- temperature:       710.0000000
  free_energy:       -52.0312535
  entropy:           123.4820355
  heat_capacity:      49.5742812
  energy:             35.6409917

- temperature:       720.0000000
  free_energy:       -53.2695489
  entropy:           124.1754535
  heat_capacity:      49.5828334
  energy:             36.1367776

- temperature:       730.0000000
  free_energy:       -54.5147311
  entropy:           124.8594224
  heat_capacity:      49.5910389
  energy:             36.6326472

- temperature:       740.0000000
  free_energy:       -55.7667067
  entropy:           125.5341946
  heat_capacity:      49.5989161
  energy:             37.1285973

- temperature:       750.0000000
  free_energy:       -57.0253851
  entropy:           126.2000129
  heat_capacity:      49.6064822
  energy:             37.6246245

- temperature:       760.0000000
  free_energy:       -58.2906779
  entropy:           126.8571103
  heat_capacity:      49.6137535
  energy:             38.1207259

- temperature:       770.0000000
  free_energy:       -59.5624990
  entropy:           127.5057113
  heat_capacity:      49.6207450
  energy:             38.6168986

- temperature:       780.0000000
  free_energy:       -60.8407646
  entropy:           128.1460314
  heat_capacity:      49.6274709
  energy:             39.1131399

- temperature:       790.0000000
  free_energy:       -62.1253927
  entropy:           128.7782784
  heat_capacity:      49.6339444
  energy:             39.6094472

- temperature:       800.0000000
  free_energy:       -63.4163039
  entropy:           129.4026524
  heat_capacity:      49.6401780
  energy:             40.1058180

- temperature:       810.0000000
  free_energy:       -64.7134202
  entropy:           130.0193459
  heat_capacity:      49.6461834
  energy:             40.6022500

- temperature:       820.0000000
  free_energy:       -66.0166658
  entropy:           130.6285449
  heat_capacity:      49.6519715
  energy:             41.0987410

- temperature:       830.0000000
  free_energy:       -67.3259667
  entropy:           131.2304283
  heat_capacity:      49.6575528
  energy:             41.5952888

- temperature:       840.0000000
  free_energy:       -68.6412506
  entropy:           131.8251690
  heat_capacity:      49.6629369
  energy:             42.0918914

- temperature:       850.0000000
  free_energy:       -69.9624468
  entropy:           132.4129338
  heat_capacity:      49.6681330
  energy:             42.5885469

- temperature:       860.0000000
  free_energy:       -71.2894865
  entropy:           132.9938837
  heat_capacity:      49.6731498
  energy:             43.0852534

- temperature:       870.0000000
  free_energy:       -72.6223023
  entropy:           133.5681743
  heat_capacity:      49.6779954
  energy:             43.5820093

- temperature:       880.0000000
  free_energy:       -73.9608283
  entropy:           134.1359558
  heat_capacity:      49.6826775
  energy:             44.0788128

- temperature:       890.0000000
  free_energy:       -75.3050002
  entropy:           134.6973736
  heat_capacity:      49.6872033
  energy:             44.5756623

- temperature:       900.0000000
  free_energy:       -76.6547551
  entropy:           135.2525682
  heat_capacity:      49.6915798
  energy:             45.0725564

- temperature:       910.0000000
  free_energy:       -78.0100313
  entropy:           135.8016755
  heat_capacity:      49.6958134
  energy:             45.5694935

- temperature:       920.0000000
  free_energy:       -79.3707687
  entropy:           136.3448271
  heat_capacity:      49.6999103
  energy:             46.0664722

- temperature:       930.0000000
  free_energy:       -80.7369084
  entropy:           136.8821501
  heat_capacity:      49.7038763
  energy:             46.5634912

- temperature:       940.0000000
  free_energy:       -82.1083927
  entropy:           137.4137681
  heat_capacity:      49.7077168
  energy:             47.0605493

- temperature:       950.0000000
  free_energy:       -83.4851651
  entropy:           137.9398003
  heat_capacity:      49.7114372
  energy:             47.5576452

- temperature:       960.0000000
  free_energy:       -84.8671705
  entropy:           138.4603626
  heat_capacity:      49.7150424
  energy:             48.0547776

- temperature:       970.0000000
  free_energy:       -86.2543545
  entropy:           138.9755672
  heat_capacity:      49.7185371
  energy:             48.5519456

- temperature:       980.0000000
  free_energy:       -87.6466643
  entropy:           139.4855228
  heat_capacity:      49.7219257
  energy:             49.0491480

- temperature:       990.0000000
  free_energy:       -89.0440479
  entropy:           139.9903350
  heat_capacity:      49.7252125
  energy:             49.5463838

- temperature:      1000.0000000
  free_energy:       -90.4464542
  entropy:           140.4901062
  heat_capacity:      49.7284016
  energy:             50.0436520
