# Thermal properties / unit cell (natom)

unit:
  temperature:   K
  free_energy:   kJ/mol
  entropy:       J/K/mol
  heat_capacity: J/K/mol

natom: 105  
cutoff_frequency: 0.00000
num_modes: 229635
num_integrated_modes: 229634

zero_point_energy:     440.0071931

thermal_properties:
- temperature:         0.0000000
  free_energy:       440.0071931
  entropy:             0.0000000
  heat_capacity:       0.0000000
  energy:            440.0071931

- temperature:        10.0000000
  free_energy:       439.9994386
  entropy:             2.3519546
  heat_capacity:       6.7744934
  energy:            440.0229581

- temperature:        20.0000000
  free_energy:       439.9038323
  entropy:            21.4340600
  heat_capacity:      68.2977528
  energy:            440.3325135

- temperature:        30.0000000
  free_energy:       439.4671650
  entropy:            70.6965262
  heat_capacity:     188.4411339
  energy:            441.5880608

- temperature:        40.0000000
  free_energy:       438.4107710
  entropy:           143.7554200
  heat_capacity:     327.7162578
  energy:            444.1609878

- temperature:        50.0000000
  free_energy:       436.5401950
  entropy:           232.4990087
  heat_capacity:     474.0403905
  energy:            448.1651454

- temperature:        60.0000000
  free_energy:       433.7244187
  entropy:           332.2102609
  heat_capacity:     624.8920154
  energy:            453.6570344

- temperature:        70.0000000
  free_energy:       429.8691638
  entropy:           439.9898937
  heat_capacity:     777.3512734
  energy:            460.6684564

- temperature:        80.0000000
  free_energy:       424.9050711
  entropy:           553.6443205
  heat_capacity:     927.5870980
  energy:            469.1966168

- temperature:        90.0000000
  free_energy:       418.7829427
  entropy:           671.3073871
  heat_capacity:    1071.9788155
  energy:            479.2006076

- temperature:       100.0000000
  free_energy:       411.4709657
  entropy:           791.3663400
  heat_capacity:    1207.8299478
  energy:            490.6075997

- temperature:       110.0000000
  free_energy:       402.9521809
  entropy:           912.4644349
  heat_capacity:    1333.5313976
  energy:            503.3232687

- temperature:       120.0000000
  free_energy:       393.2219072
  entropy:          1033.5014958
  heat_capacity:    1448.4134486
  energy:            517.2420867

- temperature:       130.0000000
  free_energy:       382.2852455
  entropy:          1153.6172371
  heat_capacity:    1552.4947376
  energy:            532.2554863

- temperature:       140.0000000
  free_energy:       370.1548186
  entropy:          1272.1620126
  heat_capacity:    1646.2399433
  energy:            548.2575004

- temperature:       150.0000000
  free_energy:       356.8488352
  entropy:          1388.6625335
  heat_capacity:    1730.3679160
  energy:            565.1482153

- temperature:       160.0000000
  free_energy:       342.3894970
  entropy:          1502.7880729
  heat_capacity:    1805.7157050
  energy:            582.8355886

- temperature:       170.0000000
  free_energy:       326.8017282
  entropy:          1614.3201452
  heat_capacity:    1873.1496430
  energy:            601.2361529

- temperature:       180.0000000
  free_energy:       310.1121860
  entropy:          1723.1268212
  heat_capacity:    1933.5113836
  energy:            620.2750138

- temperature:       190.0000000
  free_energy:       292.3485030
  entropy:          1829.1417634
  heat_capacity:    1987.5880238
  energy:            639.8854380

- temperature:       200.0000000
  free_energy:       273.5387185
  entropy:          1932.3475408
  heat_capacity:    2036.0979300
  energy:            660.0082267

- temperature:       210.0000000
  free_energy:       253.7108574
  entropy:          2032.7625815
  heat_capacity:    2079.6863146
  energy:            680.5909996

- temperature:       220.0000000
  free_energy:       232.8926239
  entropy:          2130.4311031
  heat_capacity:    2118.9265453
  energy:            701.5874666

- temperature:       230.0000000
  free_energy:       211.1111841
  entropy:          2225.4154170
  heat_capacity:    2154.3245805
  energy:            722.9567300

- temperature:       240.0000000
  free_energy:       188.3930152
  entropy:          2317.7900974
  heat_capacity:    2186.3248927
  energy:            744.6626386

- temperature:       250.0000000
  free_energy:       164.7638066
  entropy:          2407.6375959
  heat_capacity:    2215.3168925
  energy:            766.6732055

- temperature:       260.0000000
  free_energy:       140.2483973
  entropy:          2495.0449686
  heat_capacity:    2241.6412769
  energy:            788.9600892

- temperature:       270.0000000
  free_energy:       114.8707435
  entropy:          2580.1014549
  heat_capacity:    2265.5959960
  energy:            811.4981363

- temperature:       280.0000000
  free_energy:        88.6539056
  entropy:          2662.8967036
  heat_capacity:    2287.4416872
  energy:            834.2649826

- temperature:       290.0000000
  free_energy:        61.6200508
  entropy:          2743.5194928
  heat_capacity:    2307.4065294
  energy:            857.2407037

- temperature:       300.0000000
  free_energy:        33.7904670
  entropy:          2822.0568202
  heat_capacity:    2325.6905210
  energy:            880.4075130

- temperature:       310.0000000
  free_energy:         5.1855836
  entropy:          2898.5932748
  heat_capacity:    2342.4692158
  energy:            903.7494988

- temperature:       320.0000000
  free_energy:       -24.1750018
  entropy:          2973.2106190
  heat_capacity:    2357.8969676
  energy:            927.2523963

- temperature:       330.0000000
  free_energy:       -54.2724943
  entropy:          3045.9875282
  heat_capacity:    2372.1097362
  energy:            950.9033900

- temperature:       340.0000000
  free_energy:       -85.0888695
  entropy:          3116.9994470
  heat_capacity:    2385.2275080
  energy:            974.6909425

- temperature:       350.0000000
  free_energy:      -116.6068408
  entropy:          3186.3185315
  heat_capacity:    2397.3563823
  energy:            998.6046452

- temperature:       360.0000000
  free_energy:      -148.8098272
  entropy:          3254.0136545
  heat_capacity:    2408.5903672
  energy:           1022.6350884

- temperature:       370.0000000
  free_energy:      -181.6819199
  entropy:          3320.1504559
  heat_capacity:    2419.0129276
  energy:           1046.7737488

- temperature:       380.0000000
  free_energy:      -215.2078506
  entropy:          3384.7914241
  heat_capacity:    2428.6983174
  energy:           1071.0128906

- temperature:       390.0000000
  free_energy:      -249.3729607
  entropy:          3447.9960001
  heat_capacity:    2437.7127310
  energy:           1095.3454793

- temperature:       400.0000000
  free_energy:      -284.1631713
  entropy:          3509.8206942
  heat_capacity:    2446.1152952
  energy:           1119.7651064

- temperature:       410.0000000
  free_energy:      -319.5649543
  entropy:          3570.3192123
  heat_capacity:    2453.9589292
  energy:           1144.2659227

- temperature:       420.0000000
  free_energy:      -355.5653053
  entropy:          3629.5425856
  heat_capacity:    2461.2910877
  energy:           1168.8425806

- temperature:       430.0000000
  free_energy:      -392.1517174
  entropy:          3687.5393014
  heat_capacity:    2468.1544072
  energy:           1193.4901822

- temperature:       440.0000000
  free_energy:      -429.3121563
  entropy:          3744.3554333
  heat_capacity:    2474.5872660
  energy:           1218.2042343

- temperature:       450.0000000
  free_energy:      -467.0350370
  entropy:          3800.0347675
  heat_capacity:    2480.6242733
  energy:           1242.9806084

- temperature:       460.0000000
  free_energy:      -505.3092013
  entropy:          3854.6189264
  heat_capacity:    2486.2966949
  energy:           1267.8155048

- temperature:       470.0000000
  free_energy:      -544.1238971
  entropy:          3908.1474865
  heat_capacity:    2491.6328252
  energy:           1292.7054216

- temperature:       480.0000000
  free_energy:      -583.4687581
  entropy:          3960.6580920
  heat_capacity:    2496.6583136
  energy:           1317.6471261

- temperature:       490.0000000
  free_energy:      -623.3337853
  entropy:          4012.1865624
  heat_capacity:    2501.3964499
  energy:           1342.6376302

- temperature:       500.0000000
  free_energy:      -663.7093294
  entropy:          4062.7669949
  heat_capacity:    2505.8684155
  energy:           1367.6741681

- temperature:       510.0000000
  free_energy:      -704.5860735
  entropy:          4112.4318615
  heat_capacity:    2510.0935050
  energy:           1392.7541758

- temperature:       520.0000000
  free_energy:      -745.9550180
  entropy:          4161.2121002
  heat_capacity:    2514.0893204
  energy:           1417.8752741

- temperature:       530.0000000
  free_energy:      -787.8074652
  entropy:          4209.1372018
  heat_capacity:    2517.8719443
  energy:           1443.0352517

- temperature:       540.0000000
  free_energy:      -830.1350055
  entropy:          4256.2352908
  heat_capacity:    2521.4560918
  energy:           1468.2320515

- temperature:       550.0000000
  free_energy:      -872.9295039
  entropy:          4302.5332018
  heat_capacity:    2524.8552460
  energy:           1493.4637571

- temperature:       560.0000000
  free_energy:      -916.1830878
  entropy:          4348.0565517
  heat_capacity:    2528.0817780
  energy:           1518.7285811

- temperature:       570.0000000
  free_energy:      -959.8881348
  entropy:          4392.8298069
  heat_capacity:    2531.1470538
  energy:           1544.0248552

- temperature:       580.0000000
  free_energy:     -1004.0372617
  entropy:          4436.8763471
  heat_capacity:    2534.0615297
  energy:           1569.3510196

- temperature:       590.0000000
  free_energy:     -1048.6233139
  entropy:          4480.2185241
  heat_capacity:    2536.8348371
  energy:           1594.7056153

- temperature:       600.0000000
  free_energy:     -1093.6393556
  entropy:          4522.8777186
  heat_capacity:    2539.4758584
  energy:           1620.0872755

- temperature:       610.0000000
  free_energy:     -1139.0786600
  entropy:          4564.8743917
  heat_capacity:    2541.9927954
  energy:           1645.4947189

- temperature:       620.0000000
  free_energy:     -1184.9347005
  entropy:          4606.2281348
  heat_capacity:    2544.3932300
  energy:           1670.9267431

- temperature:       630.0000000
  free_energy:     -1231.2011422
  entropy:          4646.9577157
  heat_capacity:    2546.6841792
  energy:           1696.3822186

- temperature:       640.0000000
  free_energy:     -1277.8718343
  entropy:          4687.0811215
  heat_capacity:    2548.8721442
  energy:           1721.8600835

- temperature:       650.0000000
  free_energy:     -1324.9408016
  entropy:          4726.6156001
  heat_capacity:    2550.9631550
  energy:           1747.3593384

- temperature:       660.0000000
  free_energy:     -1372.4022384
  entropy:          4765.5776978
  heat_capacity:    2552.9628103
  energy:           1772.8790421

- temperature:       670.0000000
  free_energy:     -1420.2505007
  entropy:          4803.9832957
  heat_capacity:    2554.8763139
  energy:           1798.4183075

- temperature:       680.0000000
  free_energy:     -1468.4801002
  entropy:          4841.8476436
  heat_capacity:    2556.7085069
  energy:           1823.9762974

- temperature:       690.0000000
  free_energy:     -1517.0856983
  entropy:          4879.1853912
  heat_capacity:    2558.4638980
  energy:           1849.5522216

- temperature:       700.0000000
  free_energy:     -1566.0620997
  entropy:          4916.0106187
  heat_capacity:    2560.1466898
  energy:           1875.1453334

- temperature:       710.0000000
  free_energy:     -1615.4042474
  entropy:          4952.3368647
  heat_capacity:    2561.7608035
  energy:           1900.7549265

- temperature:       720.0000000
  free_energy:     -1665.1072172
  entropy:          4988.1771527
  heat_capacity:    2563.3099008
  energy:           1926.3803328

- temperature:       730.0000000
  free_energy:     -1715.1662125
  entropy:          5023.5440160
  heat_capacity:    2564.7974043
  energy:           1952.0209193

- temperature:       740.0000000
  free_energy:     -1765.5765597
  entropy:          5058.4495215
  heat_capacity:    2566.2265160
  energy:           1977.6760862

- temperature:       750.0000000
  free_energy:     -1816.3337038
  entropy:          5092.9052917
  heat_capacity:    2567.6002334
  energy:           2003.3452649

- temperature:       760.0000000
  free_energy:     -1867.4332038
  entropy:          5126.9225256
  heat_capacity:    2568.9213658
  energy:           2029.0279156

- temperature:       770.0000000
  free_energy:     -1918.8707286
  entropy:          5160.5120186
  heat_capacity:    2570.1925473
  energy:           2054.7235258

- temperature:       780.0000000
  free_energy:     -1970.6420531
  entropy:          5193.6841813
  heat_capacity:    2571.4162503
  energy:           2080.4316083

- temperature:       790.0000000
  free_energy:     -2022.7430546
  entropy:          5226.4490568
  heat_capacity:    2572.5947970
  energy:           2106.1517003

- temperature:       800.0000000
  free_energy:     -2075.1697090
  entropy:          5258.8163375
  heat_capacity:    2573.7303700
  energy:           2131.8833611

- temperature:       810.0000000
  free_energy:     -2127.9180873
  entropy:          5290.7953809
  heat_capacity:    2574.8250224
  energy:           2157.6261713

- temperature:       820.0000000
  free_energy:     -2180.9843526
  entropy:          5322.3952246
  heat_capacity:    2575.8806869
  energy:           2183.3797316

- temperature:       830.0000000
  free_energy:     -2234.3647569
  entropy:          5353.6246001
  heat_capacity:    2576.8991837
  energy:           2209.1436611

- temperature:       840.0000000
  free_energy:     -2288.0556379
  entropy:          5384.4919464
  heat_capacity:    2577.8822289
  energy:           2234.9175971

- temperature:       850.0000000
  free_energy:     -2342.0534163
  entropy:          5415.0054227
  heat_capacity:    2578.8314411
  energy:           2260.7011930

- temperature:       860.0000000
  free_energy:     -2396.3545931
  entropy:          5445.1729201
  heat_capacity:    2579.7483478
  energy:           2286.4941182

- temperature:       870.0000000
  free_energy:     -2450.9557469
  entropy:          5475.0020735
  heat_capacity:    2580.6343918
  energy:           2312.2960570

- temperature:       880.0000000
  free_energy:     -2505.8535314
  entropy:          5504.5002718
  heat_capacity:    2581.4909367
  energy:           2338.1067077

- temperature:       890.0000000
  free_energy:     -2561.0446730
  entropy:          5533.6746683
  heat_capacity:    2582.3192718
  energy:           2363.9257818

- temperature:       900.0000000
  free_energy:     -2616.5259686
  entropy:          5562.5321908
  heat_capacity:    2583.1206172
  energy:           2389.7530032

- temperature:       910.0000000
  free_energy:     -2672.2942830
  entropy:          5591.0795505
  heat_capacity:    2583.8961278
  energy:           2415.5881080

- temperature:       920.0000000
  free_energy:     -2728.3465474
  entropy:          5619.3232508
  heat_capacity:    2584.6468978
  energy:           2441.4308433

- temperature:       930.0000000
  free_energy:     -2784.6797568
  entropy:          5647.2695955
  heat_capacity:    2585.3739644
  energy:           2467.2809669

- temperature:       940.0000000
  free_energy:     -2841.2909685
  entropy:          5674.9246972
  heat_capacity:    2586.0783109
  energy:           2493.1382469

- temperature:       950.0000000
  free_energy:     -2898.1772998
  entropy:          5702.2944845
  heat_capacity:    2586.7608708
  energy:           2519.0024605

- temperature:       960.0000000
  free_energy:     -2955.3359263
  entropy:          5729.3847093
  heat_capacity:    2587.4225298
  energy:           2544.8733946

- temperature:       970.0000000
  free_energy:     -3012.7640807
  entropy:          5756.2009536
  heat_capacity:    2588.0641297
  energy:           2570.7508443

- temperature:       980.0000000
  free_energy:     -3070.4590502
  entropy:          5782.7486360
  heat_capacity:    2588.6864702
  energy:           2596.6346130

- temperature:       990.0000000
  free_energy:     -3128.4181758
  entropy:          5809.0330180
  heat_capacity:    2589.2903118
  energy:           2622.5245120

- temperature:      1000.0000000
  free_energy:     -3186.6388500
  entropy:          5835.0592100
  heat_capacity:    2589.8763778
  energy:           2648.4203600
