# Thermal properties / unit cell (natom)

unit:
  temperature:   K
  free_energy:   kJ/mol
  entropy:       J/K/mol
  heat_capacity: J/K/mol

natom: 18   
cutoff_frequency: 0.00000
num_modes: 163296
num_integrated_modes: 163293

zero_point_energy:      75.0695954

thermal_properties:
- temperature:         0.0000000
  free_energy:        75.0695954
  entropy:             0.0000000
  heat_capacity:       0.0000000
  energy:             75.0695954

- temperature:        10.0000000
  free_energy:        75.0684664
  entropy:             0.4854240
  heat_capacity:       1.6267647
  energy:             75.0733207

- temperature:        20.0000000
  free_energy:        75.0466406
  entropy:             4.8996899
  heat_capacity:      15.1634413
  energy:             75.1446344

- temperature:        30.0000000
  free_energy:        74.9501752
  entropy:            15.2409241
  heat_capacity:      37.9914069
  energy:             75.4074029

- temperature:        40.0000000
  free_energy:        74.7289799
  entropy:            29.4704876
  heat_capacity:      62.0762733
  energy:             75.9077994

- temperature:        50.0000000
  free_energy:        74.3535175
  entropy:            45.9057987
  heat_capacity:      86.1600524
  energy:             76.6488074

- temperature:        60.0000000
  free_energy:        73.8061376
  entropy:            63.7711498
  heat_capacity:     110.6455438
  energy:             77.6324066

- temperature:        70.0000000
  free_energy:        73.0745823
  entropy:            82.6932767
  heat_capacity:     135.5322904
  energy:             78.8631117

- temperature:        80.0000000
  free_energy:        72.1496078
  entropy:           102.4151820
  heat_capacity:     160.3458167
  energy:             80.3428224

- temperature:        90.0000000
  free_energy:        71.0243917
  entropy:           122.7035164
  heat_capacity:     184.4670608
  energy:             82.0677082

- temperature:       100.0000000
  free_energy:        69.6943899
  entropy:           143.3368491
  heat_capacity:     207.3679529
  energy:             84.0280748

- temperature:       110.0000000
  free_energy:        68.1571757
  entropy:           164.1148842
  heat_capacity:     228.6985195
  energy:             86.2098130

- temperature:       120.0000000
  free_energy:        66.4121826
  entropy:           184.8669033
  heat_capacity:     248.2833519
  energy:             88.5962110

- temperature:       130.0000000
  free_energy:        64.4603881
  entropy:           205.4548412
  heat_capacity:     266.0824198
  energy:             91.1695175

- temperature:       140.0000000
  free_energy:        62.3039915
  entropy:           225.7719994
  heat_capacity:     282.1468495
  energy:             93.9120714

- temperature:       150.0000000
  free_energy:        59.9461167
  entropy:           245.7393596
  heat_capacity:     296.5820086
  energy:             96.8070206

- temperature:       160.0000000
  free_energy:        57.3905587
  entropy:           265.3010228
  heat_capacity:     309.5206859
  energy:             99.8387223

- temperature:       170.0000000
  free_energy:        54.6415745
  entropy:           284.4196846
  heat_capacity:     321.1052623
  energy:            102.9929209

- temperature:       180.0000000
  free_energy:        51.7037187
  entropy:           303.0725886
  heat_capacity:     331.4767071
  energy:            106.2567847

- temperature:       190.0000000
  free_energy:        48.5817149
  entropy:           321.2481154
  heat_capacity:     340.7683229
  energy:            109.6188568

- temperature:       200.0000000
  free_energy:        45.2803592
  entropy:           338.9430109
  heat_capacity:     349.1026058
  energy:            113.0689614

- temperature:       210.0000000
  free_energy:        41.8044476
  entropy:           356.1601902
  heat_capacity:     356.5900539
  energy:            116.5980875

- temperature:       220.0000000
  free_energy:        38.1587235
  entropy:           372.9070255
  heat_capacity:     363.3291315
  energy:            120.1982692

- temperature:       230.0000000
  free_energy:        34.3478401
  entropy:           389.1940296
  heat_capacity:     369.4068787
  energy:            123.8624669

- temperature:       240.0000000
  free_energy:        30.3763337
  entropy:           405.0338532
  heat_capacity:     374.8998398
  energy:            127.5844585

- temperature:       250.0000000
  free_energy:        26.2486069
  entropy:           420.4405283
  heat_capacity:     379.8751187
  energy:            131.3587390

- temperature:       260.0000000
  free_energy:        21.9689175
  entropy:           435.4289012
  heat_capacity:     384.3914431
  energy:            135.1804318

- temperature:       270.0000000
  free_energy:        17.5413725
  entropy:           450.0142129
  heat_capacity:     388.5001774
  energy:            139.0452100

- temperature:       280.0000000
  free_energy:        12.9699257
  entropy:           464.2117908
  heat_capacity:     392.2462515
  energy:            142.9492271

- temperature:       290.0000000
  free_energy:         8.2583784
  entropy:           478.0368253
  heat_capacity:     395.6689944
  energy:            146.8890578

- temperature:       300.0000000
  free_energy:         3.4103813
  entropy:           491.5042110
  heat_capacity:     398.8028706
  energy:            150.8616446

- temperature:       310.0000000
  free_energy:        -1.5705620
  entropy:           504.6284370
  heat_capacity:     401.6781243
  energy:            154.8642535

- temperature:       320.0000000
  free_energy:        -6.6810903
  entropy:           517.4235134
  heat_capacity:     404.3213402
  energy:            158.8944340

- temperature:       330.0000000
  free_energy:       -11.9179801
  entropy:           529.9029251
  heat_capacity:     406.7559276
  energy:            162.9499852

- temperature:       340.0000000
  free_energy:       -17.2781398
  entropy:           542.0796059
  heat_capacity:     409.0025395
  energy:            167.0289262

- temperature:       350.0000000
  free_energy:       -22.7586044
  entropy:           553.9659282
  heat_capacity:     411.0794327
  energy:            171.1294705

- temperature:       360.0000000
  free_energy:       -28.3565299
  entropy:           565.5737032
  heat_capacity:     413.0027786
  energy:            175.2500032

- temperature:       370.0000000
  free_energy:       -34.0691876
  entropy:           576.9141887
  heat_capacity:     414.7869306
  energy:            179.3890622

- temperature:       380.0000000
  free_energy:       -39.8939585
  entropy:           587.9981029
  heat_capacity:     416.4446544
  energy:            183.5453206

- temperature:       390.0000000
  free_energy:       -45.8283284
  entropy:           598.8356420
  heat_capacity:     417.9873268
  energy:            187.7175720

- temperature:       400.0000000
  free_energy:       -51.8698825
  entropy:           609.4365002
  heat_capacity:     419.4251073
  energy:            191.9047176

- temperature:       410.0000000
  free_energy:       -58.0163003
  entropy:           619.8098906
  heat_capacity:     420.7670862
  energy:            196.1057549

- temperature:       420.0000000
  free_energy:       -64.2653513
  entropy:           629.9645679
  heat_capacity:     422.0214132
  energy:            200.3197672

- temperature:       430.0000000
  free_energy:       -70.6148904
  entropy:           639.9088507
  heat_capacity:     423.1954088
  energy:            204.5459154

- temperature:       440.0000000
  free_energy:       -77.0628534
  entropy:           649.6506433
  heat_capacity:     424.2956607
  energy:            208.7834297

- temperature:       450.0000000
  free_energy:       -83.6072533
  entropy:           659.1974579
  heat_capacity:     425.3281084
  energy:            213.0316027

- temperature:       460.0000000
  free_energy:       -90.2461765
  entropy:           668.5564352
  heat_capacity:     426.2981165
  energy:            217.2897838

- temperature:       470.0000000
  free_energy:       -96.9777786
  entropy:           677.7343654
  heat_capacity:     427.2105388
  energy:            221.5573731

- temperature:       480.0000000
  free_energy:      -103.8002818
  entropy:           686.7377065
  heat_capacity:     428.0697746
  energy:            225.8338173

- temperature:       490.0000000
  free_energy:      -110.7119713
  entropy:           695.5726040
  heat_capacity:     428.8798175
  energy:            230.1186047

- temperature:       500.0000000
  free_energy:      -117.7111920
  entropy:           704.2449075
  heat_capacity:     429.6442992
  energy:            234.4112618

- temperature:       510.0000000
  free_energy:      -124.7963460
  entropy:           712.7601880
  heat_capacity:     430.3665271
  energy:            238.7113499

- temperature:       520.0000000
  free_energy:      -131.9658900
  entropy:           721.1237531
  heat_capacity:     431.0495183
  energy:            243.0184616

- temperature:       530.0000000
  free_energy:      -139.2183323
  entropy:           729.3406621
  heat_capacity:     431.6960286
  energy:            247.3322186

- temperature:       540.0000000
  free_energy:      -146.5522305
  entropy:           737.4157398
  heat_capacity:     432.3085796
  energy:            251.6522690

- temperature:       550.0000000
  free_energy:      -153.9661897
  entropy:           745.3535899
  heat_capacity:     432.8894811
  energy:            255.9782848

- temperature:       560.0000000
  free_energy:      -161.4588596
  entropy:           753.1586067
  heat_capacity:     433.4408523
  energy:            260.3099602

- temperature:       570.0000000
  free_energy:      -169.0289330
  entropy:           760.8349876
  heat_capacity:     433.9646399
  energy:            264.6470099

- temperature:       580.0000000
  free_energy:      -176.6751439
  entropy:           768.3867430
  heat_capacity:     434.4626346
  energy:            268.9891670

- temperature:       590.0000000
  free_energy:      -184.3962653
  entropy:           775.8177074
  heat_capacity:     434.9364856
  energy:            273.3361821

- temperature:       600.0000000
  free_energy:      -192.1911077
  entropy:           783.1315484
  heat_capacity:     435.3877138
  energy:            277.6878214

- temperature:       610.0000000
  free_energy:      -200.0585176
  entropy:           790.3317758
  heat_capacity:     435.8177233
  energy:            282.0438657

- temperature:       620.0000000
  free_energy:      -207.9973757
  entropy:           797.4217502
  heat_capacity:     436.2278120
  energy:            286.4041094

- temperature:       630.0000000
  free_energy:      -216.0065958
  entropy:           804.4046910
  heat_capacity:     436.6191809
  energy:            290.7683595

- temperature:       640.0000000
  free_energy:      -224.0851230
  entropy:           811.2836834
  heat_capacity:     436.9929427
  energy:            295.1364344

- temperature:       650.0000000
  free_energy:      -232.2319328
  entropy:           818.0616861
  heat_capacity:     437.3501293
  energy:            299.5081631

- temperature:       660.0000000
  free_energy:      -240.4460296
  entropy:           824.7415371
  heat_capacity:     437.6916988
  energy:            303.8833849

- temperature:       670.0000000
  free_energy:      -248.7264455
  entropy:           831.3259605
  heat_capacity:     438.0185416
  energy:            308.2619480

- temperature:       680.0000000
  free_energy:      -257.0722394
  entropy:           837.8175718
  heat_capacity:     438.3314860
  energy:            312.6437094

- temperature:       690.0000000
  free_energy:      -265.4824960
  entropy:           844.2188840
  heat_capacity:     438.6313032
  energy:            317.0285340

- temperature:       700.0000000
  free_energy:      -273.9563242
  entropy:           850.5323119
  heat_capacity:     438.9187122
  energy:            321.4162941

- temperature:       710.0000000
  free_energy:      -282.4928570
  entropy:           856.7601776
  heat_capacity:     439.1943838
  energy:            325.8068691

- temperature:       720.0000000
  free_energy:      -291.0912500
  entropy:           862.9047149
  heat_capacity:     439.4589442
  energy:            330.2001448

- temperature:       730.0000000
  free_energy:      -299.7506807
  entropy:           868.9680735
  heat_capacity:     439.7129788
  energy:            334.5960129

- temperature:       740.0000000
  free_energy:      -308.4703478
  entropy:           874.9523228
  heat_capacity:     439.9570352
  energy:            338.9943711

- temperature:       750.0000000
  free_energy:      -317.2494701
  entropy:           880.8594563
  heat_capacity:     440.1916261
  energy:            343.3951221

- temperature:       760.0000000
  free_energy:      -326.0872863
  entropy:           886.6913946
  heat_capacity:     440.4172318
  energy:            347.7981737

- temperature:       770.0000000
  free_energy:      -334.9830535
  entropy:           892.4499894
  heat_capacity:     440.6343026
  energy:            352.2034383

- temperature:       780.0000000
  free_energy:      -343.9360475
  entropy:           898.1370259
  heat_capacity:     440.8432615
  energy:            356.6108327

- temperature:       790.0000000
  free_energy:      -352.9455613
  entropy:           903.7542266
  heat_capacity:     441.0445053
  energy:            361.0202778

- temperature:       800.0000000
  free_energy:      -362.0109048
  entropy:           909.3032539
  heat_capacity:     441.2384072
  energy:            365.4316983

- temperature:       810.0000000
  free_energy:      -371.1314045
  entropy:           914.7857125
  heat_capacity:     441.4253182
  energy:            369.8450226

- temperature:       820.0000000
  free_energy:      -380.3064023
  entropy:           920.2031522
  heat_capacity:     441.6055688
  energy:            374.2601825

- temperature:       830.0000000
  free_energy:      -389.5352558
  entropy:           925.5570706
  heat_capacity:     441.7794700
  energy:            378.6771128

- temperature:       840.0000000
  free_energy:      -398.8173368
  entropy:           930.8489149
  heat_capacity:     441.9473151
  energy:            383.0957517

- temperature:       850.0000000
  free_energy:      -408.1520318
  entropy:           936.0800844
  heat_capacity:     442.1093809
  energy:            387.5160399

- temperature:       860.0000000
  free_energy:      -417.5387408
  entropy:           941.2519322
  heat_capacity:     442.2659285
  energy:            391.9379209

- temperature:       870.0000000
  free_energy:      -426.9768771
  entropy:           946.3657678
  heat_capacity:     442.4172043
  energy:            396.3613409

- temperature:       880.0000000
  free_energy:      -436.4658670
  entropy:           951.4228582
  heat_capacity:     442.5634415
  energy:            400.7862482

- temperature:       890.0000000
  free_energy:      -446.0051492
  entropy:           956.4244302
  heat_capacity:     442.7048604
  energy:            405.2125936

- temperature:       900.0000000
  free_energy:      -455.5941745
  entropy:           961.3716717
  heat_capacity:     442.8416695
  energy:            409.6403300

- temperature:       910.0000000
  free_energy:      -465.2324054
  entropy:           966.2657337
  heat_capacity:     442.9740661
  energy:            414.0694123

- temperature:       920.0000000
  free_energy:      -474.9193156
  entropy:           971.1077314
  heat_capacity:     443.1022373
  energy:            418.4997973

- temperature:       930.0000000
  free_energy:      -484.6543901
  entropy:           975.8987459
  heat_capacity:     443.2263603
  energy:            422.9314436

- temperature:       940.0000000
  free_energy:      -494.4371241
  entropy:           980.6398252
  heat_capacity:     443.3466030
  energy:            427.3643116

- temperature:       950.0000000
  free_energy:      -504.2670235
  entropy:           985.3319861
  heat_capacity:     443.4631250
  energy:            431.7983632

- temperature:       960.0000000
  free_energy:      -514.1436041
  entropy:           989.9762148
  heat_capacity:     443.5760777
  energy:            436.2335622

- temperature:       970.0000000
  free_energy:      -524.0663912
  entropy:           994.5734687
  heat_capacity:     443.6856047
  energy:            440.6698734

- temperature:       980.0000000
  free_energy:      -534.0349200
  entropy:           999.1246768
  heat_capacity:     443.7918429
  energy:            445.1072633

- temperature:       990.0000000
  free_energy:      -544.0487343
  entropy:          1003.6307414
  heat_capacity:     443.8949220
  energy:            449.5456997

- temperature:      1000.0000000
  free_energy:      -554.1073872
  entropy:          1008.0925388
  heat_capacity:     443.9949657
  energy:            453.9851516
