phonopy:
  version: "2.37.1"
  frequency_unit_conversion_factor: 15.633302
  symmetry_tolerance: 1.00000e-05

space_group:
  type: "P1"
  number: 1
  Hall_symbol: "P 1"

primitive_matrix:
- [  1.000000000000000,  0.000000000000000, -1.000000000000000 ]
- [  0.000000000000000, -1.000000000000000,  0.000000000000000 ]
- [  0.000000000000000,  0.000000000000000, -1.000000000000000 ]

supercell_matrix:
- [   4,   0,   0 ]
- [   0,   3,   0 ]
- [   0,   0,   1 ]

primitive_cell:
  lattice:
  - [     3.259438204396852,     0.000000000000000,     0.000000000000000 ] # a
  - [    -0.000008456369801,    -4.269522175490750,     0.000000000000000 ] # b
  - [    -1.629558258035757,     2.129746681797463,   -11.373785967146604 ] # c
  points:
  - symbol: Li # 1
    coordinates: [  0.011824457435268,  0.701016705007478,  0.562448565052253 ]
    mass: 6.940000
  - symbol: Li # 2
    coordinates: [  0.149104109899923,  0.838643180000956,  0.836851554802444 ]
    mass: 6.940000
  - symbol: Li # 3
    coordinates: [  0.285543797037870,  0.976377897415549,  0.110184296486586 ]
    mass: 6.940000
  - symbol: Sn # 4
    coordinates: [  0.580315537631982,  0.269826382858111,  0.699785862344591 ]
    mass: 118.710000
  - symbol: Sn # 5
    coordinates: [  0.440017204747948,  0.128915439042195,  0.418476712139017 ]
    mass: 118.710000
  - symbol: Sn # 6
    coordinates: [  0.857422839241881,  0.547898712136243,  0.254631334810867 ]
    mass: 118.710000
  - symbol: Sn # 7
    coordinates: [  0.717493649185359,  0.407448886451029,  0.973433909158901 ]
    mass: 118.710000
  reciprocal_lattice: # without 2pi
  - [     0.306801337313602,    -0.000000607661808,    -0.043956510910759 ] # a*
  - [     0.000000000000000,    -0.234218247123885,    -0.043857475080802 ] # b*
  - [     0.000000000000000,    -0.000000000000000,    -0.087921471609235 ] # c*

unit_cell:
  lattice:
  - [     3.259438204396852,     0.000000000000000,     0.000000000000000 ] # a
  - [     0.000008456369801,     4.269522175490749,     0.000000000000000 ] # b
  - [    -1.629879946361095,    -2.129746681797463,    11.373785967146604 ] # c
  points:
  - symbol: Li # 1
    coordinates: [  0.449375892383015,  0.298983294992522,  0.437551434947747 ]
    mass: 6.940000
    reduced_to: 1
  - symbol: Li # 2
    coordinates: [  0.312252555097479,  0.161356819999044,  0.163148445197556 ]
    mass: 6.940000
    reduced_to: 2
  - symbol: Li # 3
    coordinates: [  0.175359500551284,  0.023622102584451,  0.889815703513414 ]
    mass: 6.940000
    reduced_to: 3
  - symbol: Sn # 4
    coordinates: [  0.880529675287391,  0.730173617141889,  0.300214137655409 ]
    mass: 118.710000
    reduced_to: 4
  - symbol: Sn # 5
    coordinates: [  0.021540492608931,  0.871084560957805,  0.581523287860983 ]
    mass: 118.710000
    reduced_to: 5
  - symbol: Sn # 6
    coordinates: [  0.602791504431013,  0.452101287863757,  0.745368665189133 ]
    mass: 118.710000
    reduced_to: 6
  - symbol: Sn # 7
    coordinates: [  0.744059740026458,  0.592551113548971,  0.026566090841099 ]
    mass: 118.710000
    reduced_to: 7

supercell:
  lattice:
  - [    13.037752817587407,     0.000000000000000,     0.000000000000000 ] # a
  - [     0.000025369109403,    12.808566526472248,     0.000000000000000 ] # b
  - [    -1.629879946361095,    -2.129746681797463,    11.373785967146604 ] # c
  points:
  - symbol: Li # 1
    coordinates: [  0.112343973095754,  0.099661098330841,  0.437551434947747 ]
    mass: 6.940000
    reduced_to: 1
  - symbol: Li # 2
    coordinates: [  0.362343973095754,  0.099661098330841,  0.437551434947747 ]
    mass: 6.940000
    reduced_to: 1
  - symbol: Li # 3
    coordinates: [  0.612343973095754,  0.099661098330841,  0.437551434947747 ]
    mass: 6.940000
    reduced_to: 1
  - symbol: Li # 4
    coordinates: [  0.862343973095754,  0.099661098330841,  0.437551434947747 ]
    mass: 6.940000
    reduced_to: 1
  - symbol: Li # 5
    coordinates: [  0.112343973095754,  0.432994431664174,  0.437551434947747 ]
    mass: 6.940000
    reduced_to: 1
  - symbol: Li # 6
    coordinates: [  0.362343973095754,  0.432994431664174,  0.437551434947747 ]
    mass: 6.940000
    reduced_to: 1
  - symbol: Li # 7
    coordinates: [  0.612343973095754,  0.432994431664174,  0.437551434947747 ]
    mass: 6.940000
    reduced_to: 1
  - symbol: Li # 8
    coordinates: [  0.862343973095754,  0.432994431664174,  0.437551434947747 ]
    mass: 6.940000
    reduced_to: 1
  - symbol: Li # 9
    coordinates: [  0.112343973095754,  0.766327764997507,  0.437551434947747 ]
    mass: 6.940000
    reduced_to: 1
  - symbol: Li # 10
    coordinates: [  0.362343973095754,  0.766327764997507,  0.437551434947747 ]
    mass: 6.940000
    reduced_to: 1
  - symbol: Li # 11
    coordinates: [  0.612343973095754,  0.766327764997507,  0.437551434947747 ]
    mass: 6.940000
    reduced_to: 1
  - symbol: Li # 12
    coordinates: [  0.862343973095754,  0.766327764997507,  0.437551434947747 ]
    mass: 6.940000
    reduced_to: 1
  - symbol: Li # 13
    coordinates: [  0.078063138774370,  0.053785606666348,  0.163148445197556 ]
    mass: 6.940000
    reduced_to: 13
  - symbol: Li # 14
    coordinates: [  0.328063138774370,  0.053785606666348,  0.163148445197556 ]
    mass: 6.940000
    reduced_to: 13
  - symbol: Li # 15
    coordinates: [  0.578063138774370,  0.053785606666348,  0.163148445197556 ]
    mass: 6.940000
    reduced_to: 13
  - symbol: Li # 16
    coordinates: [  0.828063138774370,  0.053785606666348,  0.163148445197556 ]
    mass: 6.940000
    reduced_to: 13
  - symbol: Li # 17
    coordinates: [  0.078063138774370,  0.387118939999681,  0.163148445197556 ]
    mass: 6.940000
    reduced_to: 13
  - symbol: Li # 18
    coordinates: [  0.328063138774370,  0.387118939999681,  0.163148445197556 ]
    mass: 6.940000
    reduced_to: 13
  - symbol: Li # 19
    coordinates: [  0.578063138774370,  0.387118939999681,  0.163148445197556 ]
    mass: 6.940000
    reduced_to: 13
  - symbol: Li # 20
    coordinates: [  0.828063138774370,  0.387118939999681,  0.163148445197556 ]
    mass: 6.940000
    reduced_to: 13
  - symbol: Li # 21
    coordinates: [  0.078063138774370,  0.720452273333015,  0.163148445197556 ]
    mass: 6.940000
    reduced_to: 13
  - symbol: Li # 22
    coordinates: [  0.328063138774370,  0.720452273333015,  0.163148445197556 ]
    mass: 6.940000
    reduced_to: 13
  - symbol: Li # 23
    coordinates: [  0.578063138774370,  0.720452273333015,  0.163148445197556 ]
    mass: 6.940000
    reduced_to: 13
  - symbol: Li # 24
    coordinates: [  0.828063138774370,  0.720452273333015,  0.163148445197556 ]
    mass: 6.940000
    reduced_to: 13
  - symbol: Li # 25
    coordinates: [  0.043839875137821,  0.007874034194817,  0.889815703513414 ]
    mass: 6.940000
    reduced_to: 25
  - symbol: Li # 26
    coordinates: [  0.293839875137821,  0.007874034194817,  0.889815703513414 ]
    mass: 6.940000
    reduced_to: 25
  - symbol: Li # 27
    coordinates: [  0.543839875137821,  0.007874034194817,  0.889815703513414 ]
    mass: 6.940000
    reduced_to: 25
  - symbol: Li # 28
    coordinates: [  0.793839875137821,  0.007874034194817,  0.889815703513414 ]
    mass: 6.940000
    reduced_to: 25
  - symbol: Li # 29
    coordinates: [  0.043839875137821,  0.341207367528150,  0.889815703513414 ]
    mass: 6.940000
    reduced_to: 25
  - symbol: Li # 30
    coordinates: [  0.293839875137821,  0.341207367528150,  0.889815703513414 ]
    mass: 6.940000
    reduced_to: 25
  - symbol: Li # 31
    coordinates: [  0.543839875137821,  0.341207367528150,  0.889815703513414 ]
    mass: 6.940000
    reduced_to: 25
  - symbol: Li # 32
    coordinates: [  0.793839875137821,  0.341207367528150,  0.889815703513414 ]
    mass: 6.940000
    reduced_to: 25
  - symbol: Li # 33
    coordinates: [  0.043839875137821,  0.674540700861484,  0.889815703513414 ]
    mass: 6.940000
    reduced_to: 25
  - symbol: Li # 34
    coordinates: [  0.293839875137821,  0.674540700861484,  0.889815703513414 ]
    mass: 6.940000
    reduced_to: 25
  - symbol: Li # 35
    coordinates: [  0.543839875137821,  0.674540700861484,  0.889815703513414 ]
    mass: 6.940000
    reduced_to: 25
  - symbol: Li # 36
    coordinates: [  0.793839875137821,  0.674540700861484,  0.889815703513414 ]
    mass: 6.940000
    reduced_to: 25
  - symbol: Sn # 37
    coordinates: [  0.220132418821848,  0.243391205713963,  0.300214137655409 ]
    mass: 118.710000
    reduced_to: 37
  - symbol: Sn # 38
    coordinates: [  0.470132418821848,  0.243391205713963,  0.300214137655409 ]
    mass: 118.710000
    reduced_to: 37
  - symbol: Sn # 39
    coordinates: [  0.720132418821848,  0.243391205713963,  0.300214137655409 ]
    mass: 118.710000
    reduced_to: 37
  - symbol: Sn # 40
    coordinates: [  0.970132418821848,  0.243391205713963,  0.300214137655409 ]
    mass: 118.710000
    reduced_to: 37
  - symbol: Sn # 41
    coordinates: [  0.220132418821848,  0.576724539047296,  0.300214137655409 ]
    mass: 118.710000
    reduced_to: 37
  - symbol: Sn # 42
    coordinates: [  0.470132418821848,  0.576724539047296,  0.300214137655409 ]
    mass: 118.710000
    reduced_to: 37
  - symbol: Sn # 43
    coordinates: [  0.720132418821848,  0.576724539047296,  0.300214137655409 ]
    mass: 118.710000
    reduced_to: 37
  - symbol: Sn # 44
    coordinates: [  0.970132418821848,  0.576724539047296,  0.300214137655409 ]
    mass: 118.710000
    reduced_to: 37
  - symbol: Sn # 45
    coordinates: [  0.220132418821848,  0.910057872380629,  0.300214137655409 ]
    mass: 118.710000
    reduced_to: 37
  - symbol: Sn # 46
    coordinates: [  0.470132418821848,  0.910057872380629,  0.300214137655409 ]
    mass: 118.710000
    reduced_to: 37
  - symbol: Sn # 47
    coordinates: [  0.720132418821848,  0.910057872380629,  0.300214137655409 ]
    mass: 118.710000
    reduced_to: 37
  - symbol: Sn # 48
    coordinates: [  0.970132418821848,  0.910057872380629,  0.300214137655409 ]
    mass: 118.710000
    reduced_to: 37
  - symbol: Sn # 49
    coordinates: [  0.005385123152233,  0.290361520319268,  0.581523287860983 ]
    mass: 118.710000
    reduced_to: 49
  - symbol: Sn # 50
    coordinates: [  0.255385123152233,  0.290361520319268,  0.581523287860983 ]
    mass: 118.710000
    reduced_to: 49
  - symbol: Sn # 51
    coordinates: [  0.505385123152233,  0.290361520319268,  0.581523287860983 ]
    mass: 118.710000
    reduced_to: 49
  - symbol: Sn # 52
    coordinates: [  0.755385123152233,  0.290361520319268,  0.581523287860983 ]
    mass: 118.710000
    reduced_to: 49
  - symbol: Sn # 53
    coordinates: [  0.005385123152233,  0.623694853652602,  0.581523287860983 ]
    mass: 118.710000
    reduced_to: 49
  - symbol: Sn # 54
    coordinates: [  0.255385123152233,  0.623694853652602,  0.581523287860983 ]
    mass: 118.710000
    reduced_to: 49
  - symbol: Sn # 55
    coordinates: [  0.505385123152233,  0.623694853652602,  0.581523287860983 ]
    mass: 118.710000
    reduced_to: 49
  - symbol: Sn # 56
    coordinates: [  0.755385123152233,  0.623694853652602,  0.581523287860983 ]
    mass: 118.710000
    reduced_to: 49
  - symbol: Sn # 57
    coordinates: [  0.005385123152233,  0.957028186985935,  0.581523287860983 ]
    mass: 118.710000
    reduced_to: 49
  - symbol: Sn # 58
    coordinates: [  0.255385123152233,  0.957028186985935,  0.581523287860983 ]
    mass: 118.710000
    reduced_to: 49
  - symbol: Sn # 59
    coordinates: [  0.505385123152233,  0.957028186985935,  0.581523287860983 ]
    mass: 118.710000
    reduced_to: 49
  - symbol: Sn # 60
    coordinates: [  0.755385123152233,  0.957028186985935,  0.581523287860983 ]
    mass: 118.710000
    reduced_to: 49
  - symbol: Sn # 61
    coordinates: [  0.150697876107753,  0.150700429287919,  0.745368665189133 ]
    mass: 118.710000
    reduced_to: 61
  - symbol: Sn # 62
    coordinates: [  0.400697876107753,  0.150700429287919,  0.745368665189133 ]
    mass: 118.710000
    reduced_to: 61
  - symbol: Sn # 63
    coordinates: [  0.650697876107753,  0.150700429287919,  0.745368665189133 ]
    mass: 118.710000
    reduced_to: 61
  - symbol: Sn # 64
    coordinates: [  0.900697876107753,  0.150700429287919,  0.745368665189133 ]
    mass: 118.710000
    reduced_to: 61
  - symbol: Sn # 65
    coordinates: [  0.150697876107753,  0.484033762621252,  0.745368665189133 ]
    mass: 118.710000
    reduced_to: 61
  - symbol: Sn # 66
    coordinates: [  0.400697876107753,  0.484033762621252,  0.745368665189133 ]
    mass: 118.710000
    reduced_to: 61
  - symbol: Sn # 67
    coordinates: [  0.650697876107753,  0.484033762621252,  0.745368665189133 ]
    mass: 118.710000
    reduced_to: 61
  - symbol: Sn # 68
    coordinates: [  0.900697876107753,  0.484033762621252,  0.745368665189133 ]
    mass: 118.710000
    reduced_to: 61
  - symbol: Sn # 69
    coordinates: [  0.150697876107753,  0.817367095954586,  0.745368665189133 ]
    mass: 118.710000
    reduced_to: 61
  - symbol: Sn # 70
    coordinates: [  0.400697876107753,  0.817367095954586,  0.745368665189133 ]
    mass: 118.710000
    reduced_to: 61
  - symbol: Sn # 71
    coordinates: [  0.650697876107753,  0.817367095954586,  0.745368665189133 ]
    mass: 118.710000
    reduced_to: 61
  - symbol: Sn # 72
    coordinates: [  0.900697876107753,  0.817367095954586,  0.745368665189133 ]
    mass: 118.710000
    reduced_to: 61
  - symbol: Sn # 73
    coordinates: [  0.186014935006615,  0.197517037849657,  0.026566090841099 ]
    mass: 118.710000
    reduced_to: 73
  - symbol: Sn # 74
    coordinates: [  0.436014935006615,  0.197517037849657,  0.026566090841099 ]
    mass: 118.710000
    reduced_to: 73
  - symbol: Sn # 75
    coordinates: [  0.686014935006615,  0.197517037849657,  0.026566090841099 ]
    mass: 118.710000
    reduced_to: 73
  - symbol: Sn # 76
    coordinates: [  0.936014935006615,  0.197517037849657,  0.026566090841099 ]
    mass: 118.710000
    reduced_to: 73
  - symbol: Sn # 77
    coordinates: [  0.186014935006615,  0.530850371182990,  0.026566090841099 ]
    mass: 118.710000
    reduced_to: 73
  - symbol: Sn # 78
    coordinates: [  0.436014935006615,  0.530850371182990,  0.026566090841099 ]
    mass: 118.710000
    reduced_to: 73
  - symbol: Sn # 79
    coordinates: [  0.686014935006615,  0.530850371182990,  0.026566090841099 ]
    mass: 118.710000
    reduced_to: 73
  - symbol: Sn # 80
    coordinates: [  0.936014935006615,  0.530850371182990,  0.026566090841099 ]
    mass: 118.710000
    reduced_to: 73
  - symbol: Sn # 81
    coordinates: [  0.186014935006615,  0.864183704516323,  0.026566090841099 ]
    mass: 118.710000
    reduced_to: 73
  - symbol: Sn # 82
    coordinates: [  0.436014935006615,  0.864183704516323,  0.026566090841099 ]
    mass: 118.710000
    reduced_to: 73
  - symbol: Sn # 83
    coordinates: [  0.686014935006615,  0.864183704516323,  0.026566090841099 ]
    mass: 118.710000
    reduced_to: 73
  - symbol: Sn # 84
    coordinates: [  0.936014935006615,  0.864183704516323,  0.026566090841099 ]
    mass: 118.710000
    reduced_to: 73

displacements:
- atom:    1
  displacement:
    [   0.0100000000000000,  0.0000000000000000,  0.0000000000000000 ]
  forces:
  - [  -0.0125639438629150,  0.0004766243509948, -0.0469348542392254 ]
  - [   0.0016130963340402,  0.0004798359004781, -0.0468425080180168 ]
  - [  -0.0007983755785972,  0.0004764818586409, -0.0469592846930027 ]
  - [   0.0015591130359098,  0.0004734426620416, -0.0470819994807243 ]
  - [  -0.0003472232201602,  0.0004742313758470, -0.0469608902931213 ]
  - [  -0.0000840933644213,  0.0004867400857620, -0.0470870286226273 ]
  - [  -0.0001410417025909,  0.0004761290620081, -0.0469599701464176 ]
  - [  -0.0000851022559800,  0.0004654369549826, -0.0468327626585960 ]
  - [  -0.0003464797337074,  0.0004785812925547, -0.0469600111246109 ]
  - [  -0.0000839107087813,  0.0004656375385821, -0.0470878779888153 ]
  - [  -0.0001412339624949,  0.0004766384954564, -0.0469591021537781 ]
  - [  -0.0000854445534060,  0.0004877559258603, -0.0468338318169117 ]
  - [  -0.0006269319565035, -0.0005458490923047,  0.0048487754538655 ]
  - [  -0.0000238995999098, -0.0005527380853891,  0.0048343352973461 ]
  - [  -0.0001315632835031, -0.0005503232241608,  0.0048457747325301 ]
  - [  -0.0000332143681590, -0.0005468586459756,  0.0048633161932230 ]
  - [   0.0001466664834879, -0.0005555222742260,  0.0048495903611183 ]
  - [  -0.0004902896471322, -0.0009941600728780,  0.0051828529685736 ]
  - [  -0.0001921653747559, -0.0005482166889124,  0.0048454878851771 ]
  - [  -0.0004919745260850, -0.0001077647320926,  0.0045155868865550 ]
  - [   0.0001460872590542, -0.0005461261607707,  0.0048514856025577 ]
  - [  -0.0004849270917475, -0.0001064332318492,  0.0051776999607682 ]
  - [  -0.0001934831961989, -0.0005501299747266,  0.0048425747081637 ]
  - [  -0.0004896806785837, -0.0009885730687529,  0.0045212348923087 ]
  - [  -0.0000379686243832,  0.0044799284078181,  0.0370169989764690 ]
  - [   0.0000162324868143,  0.0045618941076100,  0.0370185971260071 ]
  - [  -0.0000342956627719,  0.0045348210260272,  0.0370026156306267 ]
  - [  -0.0000200886279345,  0.0045068645849824,  0.0370470359921455 ]
  - [  -0.0000024810433388,  0.0045620081946254,  0.0370162464678288 ]
  - [   0.0000093611888587,  0.0044800089672208,  0.0370335616171360 ]
  - [  -0.0000397190451622,  0.0045059025287628,  0.0370026566088200 ]
  - [  -0.0000284165143967,  0.0045328969135880,  0.0370343141257763 ]
  - [  -0.0000418294221163,  0.0045209629461169,  0.0370356664061546 ]
  - [  -0.0000296793878078,  0.0045181382447481,  0.0370149835944176 ]
  - [  -0.0000045020133257,  0.0045202579349279,  0.0370521731674671 ]
  - [   0.0000062528997660,  0.0045219417661428,  0.0369854494929314 ]
  - [   0.0022502320352942,  0.0018287502462044,  0.0148863159120083 ]
  - [   0.0007438727188855, -0.0003984329523519,  0.0161687880754471 ]
  - [   0.0007482426590286, -0.0004119187069591,  0.0162038747221231 ]
  - [   0.0022343019954860, -0.0025968849658966,  0.0174760501831770 ]
  - [   0.0008152229711413, -0.0004059339989908,  0.0162037722766399 ]
  - [   0.0008197678835131, -0.0004056738980580,  0.0162055082619190 ]
  - [   0.0008217864669859, -0.0004056410980411,  0.0161726810038090 ]
  - [   0.0008157971897162, -0.0004057341720909,  0.0161788649857044 ]
  - [   0.0022426703944802, -0.0026285550557077,  0.0148952556774020 ]
  - [   0.0007434778381139, -0.0004129710723646,  0.0161738134920597 ]
  - [   0.0007470874115825, -0.0004018475883640,  0.0162036903202534 ]
  - [   0.0022272933274508,  0.0017695684218779,  0.0174605753272772 ]
  - [   0.0002418674703222, -0.0059851706027985,  0.0158816035836935 ]
  - [   0.0002460003597662, -0.0030799093656242,  0.0184897780418396 ]
  - [  -0.0010688006877899, -0.0045456495136023,  0.0171706266701221 ]
  - [  -0.0010733492672443, -0.0045371837913990,  0.0171808563172817 ]
  - [  -0.0010730706853792, -0.0045428555458784,  0.0171975176781416 ]
  - [  -0.0010791384847835, -0.0045406026765704,  0.0171565674245358 ]
  - [  -0.0010672073112801, -0.0045428890734911,  0.0171520821750164 ]
  - [  -0.0010731294751167, -0.0045451577752829,  0.0171990636736155 ]
  - [   0.0002572957600933, -0.0030913548544049,  0.0158671326935291 ]
  - [   0.0002542473375797, -0.0060193696990609,  0.0185079164803028 ]
  - [  -0.0010698541300371, -0.0045415898784995,  0.0171720720827579 ]
  - [  -0.0010795909911394, -0.0045466963201761,  0.0171777829527855 ]
  - [   0.0011289555113763,  0.0015241894870996, -0.0144518641754985 ]
  - [   0.0016367373755202,  0.0015220416244119, -0.0140688074752688 ]
  - [   0.0013034157454967,  0.0015253125457093, -0.0143819674849510 ]
  - [   0.0016525930259377,  0.0015271782176569, -0.0145588256418705 ]
  - [   0.0012983032502234,  0.0015253771562129, -0.0143658714368939 ]
  - [   0.0014392959419638,  0.0016099892091006, -0.0142571227625012 ]
  - [   0.0013979843351990,  0.0015245447866619, -0.0143631724640727 ]
  - [   0.0014428098220378,  0.0014356877654791, -0.0144706778228283 ]
  - [   0.0013078160118312,  0.0015245154500008, -0.0144458152353764 ]
  - [   0.0014321673661470,  0.0014396229526028, -0.0142374653369188 ]
  - [   0.0013896960299462,  0.0015244556125253, -0.0143824443221092 ]
  - [   0.0014520621625707,  0.0016147042624652, -0.0143929831683636 ]
  - [  -0.0008512778440490, -0.0010603761766106, -0.0139760402962565 ]
  - [  -0.0007844440988265, -0.0010220143012702, -0.0139301111921668 ]
  - [  -0.0007944777607918, -0.0010224501602352, -0.0139142638072371 ]
  - [  -0.0008857666398399, -0.0009856802644208, -0.0138309737667441 ]
  - [  -0.0008040685206652, -0.0010228089522570, -0.0139148859307170 ]
  - [  -0.0008129976340570, -0.0010235314257443, -0.0138923060148954 ]
  - [  -0.0008347980328836, -0.0010212971828878, -0.0139063773676753 ]
  - [  -0.0008319071494043, -0.0010228878818452, -0.0139329330995679 ]
  - [  -0.0008566270116717, -0.0009845828171819, -0.0139735070988536 ]
  - [  -0.0007832545088604, -0.0010249579790980, -0.0138835571706295 ]
  - [  -0.0008056657388806, -0.0010222301352769, -0.0139139145612717 ]
  - [  -0.0008843752439134, -0.0010615495266393, -0.0138751082122326 ]
- atom:    1
  displacement:
    [  -0.0100000000000000,  0.0000000000000000,  0.0000000000000000 ]
  forces:
  - [   0.0123485196381807,  0.0004757842980325, -0.0469664856791496 ]
  - [  -0.0017747660167515,  0.0004726899205707, -0.0470790453255177 ]
  - [   0.0005822135135531,  0.0004767156206071, -0.0469612926244736 ]
  - [  -0.0018288046121597,  0.0004802498151548, -0.0468390174210072 ]
  - [   0.0001303753233515,  0.0004763174802065, -0.0469599142670631 ]
  - [  -0.0001308195060119,  0.0004645806620829, -0.0468321666121483 ]
  - [  -0.0000745032448322,  0.0004761605523527, -0.0469608940184116 ]
  - [  -0.0001319525326835,  0.0004867949755862, -0.0470859482884407 ]
  - [   0.0001309036160819,  0.0004770589875989, -0.0469610802829266 ]
  - [  -0.0001306603080593,  0.0004880824126303, -0.0468320325016975 ]
  - [  -0.0000744744902477,  0.0004763372417074, -0.0469610802829266 ]
  - [  -0.0001321987656411,  0.0004664266889449, -0.0470849908888340 ]
  - [   0.0002904449938796, -0.0005522742867470,  0.0048499889671803 ]
  - [  -0.0003072395920753, -0.0005457829684019,  0.0048608994111419 ]
  - [  -0.0002055661752820, -0.0005464885616675,  0.0048491600900888 ]
  - [  -0.0003079741145484, -0.0005516270175576,  0.0048320861533284 ]
  - [  -0.0004843175993301, -0.0005484060384333,  0.0048487018793821 ]
  - [   0.0001516179181635, -0.0001096369232982,  0.0045139892026782 ]
  - [  -0.0001446306705475, -0.0005521766724996,  0.0048488504253328 ]
  - [   0.0001588987652212, -0.0009950301609933,  0.0051816198974848 ]
  - [  -0.0004822779446840, -0.0005469648167491,  0.0048464378342032 ]
  - [   0.0001455373130739, -0.0009886299958453,  0.0045197932049632 ]
  - [  -0.0001418697647750, -0.0005500881234184,  0.0048501724377275 ]
  - [   0.0001557424257044, -0.0001061232178472,  0.0051761032082140 ]
  - [   0.0000031909148674,  0.0045623537153006,  0.0370235480368137 ]
  - [  -0.0000519487075508,  0.0044802185148001,  0.0370232202112675 ]
  - [  -0.0000011809097487,  0.0045070070773363,  0.0370405428111553 ]
  - [  -0.0000142063945532,  0.0045348135754466,  0.0369968488812447 ]
  - [  -0.0000329017639160,  0.0044776368886232,  0.0370252765715122 ]
  - [  -0.0000442760065198,  0.0045599015429616,  0.0370093584060669 ]
  - [   0.0000045560300350,  0.0045344093814492,  0.0370416454970837 ]
  - [  -0.0000058449804783,  0.0045079076662660,  0.0370092242956161 ]
  - [   0.0000064708292484,  0.0045195762068033,  0.0370073840022087 ]
  - [  -0.0000045658089221,  0.0045228051021695,  0.0370289571583271 ]
  - [  -0.0000308249145746,  0.0045206174254417,  0.0369930043816566 ]
  - [  -0.0000408776104450,  0.0045179165899754,  0.0370589420199394 ]
  - [  -0.0005959322443232, -0.0026031460147351,  0.0174712352454662 ]
  - [   0.0008900247630663, -0.0004106552223675,  0.0162113718688488 ]
  - [   0.0008880789973773, -0.0004000692279078,  0.0161767676472664 ]
  - [  -0.0006145960069261,  0.0018248965498060,  0.0148794716224074 ]
  - [   0.0008213503169827, -0.0004056807956658,  0.0161769911646843 ]
  - [   0.0008159283315763, -0.0004048557602800,  0.0161742754280567 ]
  - [   0.0008151038782671, -0.0004056183970533,  0.0162080954760313 ]
  - [   0.0008201272576116, -0.0004067398549523,  0.0162012521177530 ]
  - [  -0.0005913120112382,  0.0017754638101906,  0.0174605436623096 ]
  - [   0.0008905549766496, -0.0004016255552415,  0.0162062291055918 ]
  - [   0.0008919234969653, -0.0004136006755289,  0.0161761529743671 ]
  - [  -0.0006058849394321, -0.0026224381290376,  0.0148950936272740 ]
  - [  -0.0024004047736526, -0.0030747354030609,  0.0184912104159594 ]
  - [  -0.0023816318716854, -0.0059782993048429,  0.0158817078918219 ]
  - [  -0.0010780170559883, -0.0045394003391266,  0.0171827655285597 ]
  - [  -0.0010734833776951, -0.0045468248426914,  0.0171727463603020 ]
  - [  -0.0010750654619187, -0.0045432019978762,  0.0171550791710615 ]
  - [  -0.0010660202242434, -0.0045447605662048,  0.0171954929828644 ]
  - [  -0.0010769005166367, -0.0045431647449732,  0.0172009989619255 ]
  - [  -0.0010744612663984, -0.0045404843986034,  0.0171541366726160 ]
  - [  -0.0024145273491740, -0.0060224202461541,  0.0185069702565670 ]
  - [  -0.0023903232067823, -0.0030957998242229,  0.0158645771443844 ]
  - [  -0.0010741456644610, -0.0045475624501705,  0.0171817783266306 ]
  - [  -0.0010680761188269, -0.0045418236404657,  0.0171760134398937 ]
  - [   0.0016077234176919,  0.0015248113777488, -0.0142812468111515 ]
  - [   0.0011029278393835,  0.0015277748461813, -0.0146591234952211 ]
  - [   0.0014364942908287,  0.0015239216154441, -0.0143454680219293 ]
  - [   0.0010872227139771,  0.0015226993709803, -0.0141681469976902 ]
  - [   0.0014415225014091,  0.0015235262690112, -0.0143613368272781 ]
  - [   0.0012992497067899,  0.0014369469136000, -0.0144721753895283 ]
  - [   0.0013414099812508,  0.0015247007831931, -0.0143655035644770 ]
  - [   0.0012986415531486,  0.0016112623270601, -0.0142572559416294 ]
  - [   0.0014320577029139,  0.0015261047519743, -0.0142814265564084 ]
  - [   0.0013068534899503,  0.0016127781709656, -0.0144916446879506 ]
  - [   0.0013512843288481,  0.0015257896156982, -0.0143469292670488 ]
  - [   0.0012898487038910,  0.0014373431913555, -0.0143384709954262 ]
  - [  -0.0007897362229414, -0.0009830044582486, -0.0138482842594385 ]
  - [  -0.0008577792323194, -0.0010246154852211, -0.0138942338526249 ]
  - [  -0.0008481666445732, -0.0010198634117842, -0.0139102041721344 ]
  - [  -0.0007564938860014, -0.0010621474357322, -0.0139967901632190 ]
  - [  -0.0008372461306863, -0.0010228666942567, -0.0139082306995988 ]
  - [  -0.0008291607373394, -0.0010225889272988, -0.0139313088729978 ]
  - [  -0.0008068732568063, -0.0010211272165179, -0.0139183150604367 ]
  - [  -0.0008105807355605, -0.0010237710084766, -0.0138899302110076 ]
  - [  -0.0007855959702283, -0.0010620374232531, -0.0138495545834303 ]
  - [  -0.0008597980486229, -0.0010237091919407, -0.0139377461746335 ]
  - [  -0.0008382247760892, -0.0010248700855300, -0.0139096574857831 ]
  - [  -0.0007576966308989, -0.0009836106328294, -0.0139498896896839 ]
- atom:    1
  displacement:
    [   0.0000000198063611,  0.0099999999999804,  0.0000000000000000 ]
  forces:
  - [  -0.0001078997884179, -0.0191842131316662, -0.0468768998980522 ]
  - [  -0.0001145074493252,  0.0000963471393334, -0.0469544604420662 ]
  - [  -0.0001082343515009,  0.0004567319701891, -0.0469602048397064 ]
  - [  -0.0001008359831758,  0.0000966131337918, -0.0469529032707214 ]
  - [  -0.0001073988023563,  0.0004210231127217, -0.0469774305820465 ]
  - [  -0.0000961208133958,  0.0004239432164468, -0.0471279807388783 ]
  - [  -0.0001077069900930,  0.0004820189788006, -0.0469298474490643 ]
  - [  -0.0001204021900776,  0.0004248773911968, -0.0471274107694626 ]
  - [  -0.0001088171266019,  0.0004327931674197, -0.0469429902732372 ]
  - [  -0.0001174649805762,  0.0004235660308041, -0.0467913076281548 ]
  - [  -0.0001078410423361,  0.0004824028001167, -0.0469898432493210 ]
  - [  -0.0000982780911727,  0.0004234882653691, -0.0467921830713749 ]
  - [  -0.0001667524338700, -0.0008071130141616,  0.0048570921644568 ]
  - [  -0.0001698816195130, -0.0007680682465434,  0.0048491498455405 ]
  - [  -0.0001660799607635, -0.0005629459046759,  0.0048497756943107 ]
  - [  -0.0001701560395304, -0.0007682233117521,  0.0048491666093469 ]
  - [  -0.0001700139255263, -0.0006997147575021,  0.0049101458862424 ]
  - [  -0.0006138719618320, -0.0011127234902233,  0.0052462304010987 ]
  - [  -0.0001708627678454, -0.0005391254671849,  0.0048266649246216 ]
  - [   0.0002822679234669, -0.0011128108017147,  0.0052468599751592 ]
  - [  -0.0001684818416834, -0.0007099676877260,  0.0047776978462934 ]
  - [   0.0002699443139136, -0.0011074509238824,  0.0044526304118335 ]
  - [  -0.0001675882376730, -0.0005464300629683,  0.0048633110709488 ]
  - [  -0.0006069180672057, -0.0011075686197728,  0.0044521372765303 ]
  - [  -0.0000593874137849,  0.0045279865153134,  0.0370880700647831 ]
  - [   0.0000234981998801,  0.0045480164699256,  0.0370885953307152 ]
  - [  -0.0000038538128138,  0.0045298561453819,  0.0370381362736225 ]
  - [  -0.0000310800969601,  0.0045254221186042,  0.0370386093854904 ]
  - [   0.0000244677066803,  0.0045323874801397,  0.0369637906551361 ]
  - [  -0.0000571468845010,  0.0045294286683202,  0.0369684025645256 ]
  - [  -0.0000318661332130,  0.0045035071671009,  0.0370114073157310 ]
  - [  -0.0000046510249376,  0.0045061334967613,  0.0370187461376190 ]
  - [  -0.0000169612467289,  0.0044874744489789,  0.0370091833174229 ]
  - [  -0.0000196602195501,  0.0044838795438409,  0.0370063707232475 ]
  - [  -0.0000178571790457,  0.0045279609039426,  0.0370160713791847 ]
  - [  -0.0000153053551912,  0.0045294733718038,  0.0370077267289162 ]
  - [   0.0032120393589139,  0.0033141453750432,  0.0137268919497728 ]
  - [   0.0007241762941703, -0.0004694595118053,  0.0162155348807573 ]