13
Lattice="3.945081406407924 -0.0033308343116979487 1.1143998016698207 1.880538889247916 7.48036998648455 0.9134676490553678 -0.0806866093824441 -0.33867423765777943 7.831614517044772" Properties=species:S:1:pos:R:3:forces:R:3 structure_index=0 total_energy=-36.81877136230469 stress="-0.008153497241437435 0.005975718609988689 0.002826880430802703 0.005975780542939901 -0.001967380987480283 -0.008392437361180782 0.0028269009198993444 -0.00839269533753395 0.0001803193736122921" pbc="T T T"
Li       4.83304256       4.29288267       2.13115801       0.00870408       0.01171295      -0.02891850
Li       3.28245781       2.98922699       7.62452806       0.00193053       0.00420157      -0.01326027
Li       3.89380288       6.49321910       5.47223059      -0.00242170      -0.00629192      -0.00143653
Li       3.47955539       0.17808724       6.91652532      -0.00908264       0.00526719       0.02676480
Li       2.38480402       5.34867155       3.26107747       0.01002224       0.00830706      -0.02774559
Li       3.08713740       5.89844359       8.32669446       0.00292163       0.00679587      -0.00973939
Ga       1.04324468       1.15574175       8.00318052      -0.01000748       0.03090211       0.03846319
Ga       1.78575890       1.94697338       5.37404287      -0.00492543      -0.02126119       0.02085950
Ga       4.06942549       3.64775080       4.83713418       0.01142439      -0.00962563      -0.04616535
Ga       2.61850501       2.61719389       2.42468619       0.00137722       0.01621235      -0.00444164
Ga       4.69787558       7.17401120       2.62623023      -0.00650610       0.00725463       0.01563384
Sn       1.59679604       4.82726997       6.05336494       0.00533148      -0.03984410      -0.00749542
Sn       0.33361693       0.79254006       2.96679872      -0.00876823      -0.01363095       0.03748135
8
Lattice="2.948095104690491 3.998375634616235e-05 -4.4437370833046916e-05 -0.00028668376514414843 6.351557205781245 -3.4035574190076217 0.00017987650040152337 0.013282660193183023 7.641676509036689" Properties=species:S:1:pos:R:3:forces:R:3 structure_index=1 total_energy=-22.831897735595703 stress="0.014555229805409908 -3.410617864574306e-05 5.064975084678736e-06 -3.3882057323353365e-05 -0.0435999371111393 0.0014527076855301857 5.165902621229179e-06 0.0014524784637615085 -0.04229796677827835" pbc="T T T"
Li       0.93958544       3.81703048       4.28530666       0.00013090       0.01628186       0.03777233
Li       0.93996166       1.35640343      -0.29288789      -0.00070118      -0.01759339      -0.03798007
Li       0.93965099       5.76474726       0.29374590      -0.00041558       0.00032810      -0.00448848
Ga       2.41360938       3.60826845      -0.90871348       0.00022065      -0.00124011      -0.04349177
Ga       2.41398067       5.57879852       2.75204723      -0.00040257       0.02664875       0.01934402
Ga       2.41354271       1.56466519       4.90156796       0.00069485       0.00485546       0.04565246
Ga       2.41301190       5.94320554      -2.16835104       0.00112981      -0.02579808      -0.01420525
Sn       2.41445891       2.58450359       1.99808311      -0.00065685      -0.00348260      -0.00260321
10
Lattice="3.138977964270117 0.00021996403767047127 -0.00022347184390597712 -0.00023513728125032908 3.1389293396623 -0.000433754925038508 0.000903886385462096 0.0018809346650920339 16.877511460005184" Properties=species:S:1:pos:R:3:forces:R:3 structure_index=2 total_energy=-28.038846969604492 stress="0.04592304676771164 -0.00016347745258826762 -0.0004240642592776567 -0.0001635382795939222 0.045709144324064255 -0.0009054633555933833 -0.000424199242843315 -0.0009055628906935453 -0.018232394009828568" pbc="T T T"
Li       2.70780721       2.41910177       8.93983065       0.00014226      -0.00003200       0.00319915
Li       2.70749455       2.41865426       2.57536214      -0.00001052      -0.00024406       0.03647108
Li       2.70828718       2.42005961      15.32000162       0.00004408      -0.00001821      -0.04117011
Li       2.70822768       2.41956659      12.14722165      -0.00014844       0.00001280      -0.00440633
Li       2.70770280       2.41864934       5.73784559      -0.00004731       0.00023224       0.00591983
Ga       1.13865631       0.84975881      10.53184572      -0.00002731      -0.00001205      -0.00050174
Ga       1.13826757       0.84907545       4.14658285      -0.00011454       0.00003266       0.02495805
Ga       1.13834638       0.84925238       7.35026973       0.00010268       0.00013156       0.00483236
Ga       1.13892939       0.85023119      13.74424757      -0.00013265       0.00002177      -0.02632561
Sn       1.13790501       0.84894300       0.51090545       0.00019175      -0.00012472      -0.00297669
12
Lattice="4.878400777372437 0.03457815702692319 -0.007195297646750135 -2.430630041339045 4.198153105418839 -0.010803090332935092 0.0020877764130824844 0.03685025180416547 11.64939676309715" Properties=species:S:1:pos:R:3:forces:R:3 structure_index=3 total_energy=-35.03251266479492 stress="-0.015202490612864494 -0.00143471360206604 0.00046954903518781066 -0.00143484678119421 -0.014161758124828339 0.00022172692115418613 0.00046950916294008493 0.00022184508270584047 -0.014522180892527103" pbc="T T T"
Li       2.29944774       3.46403312      -0.06495893      -0.00539006      -0.00119817      -0.05185498
Li      -0.13582895       2.07422814      10.17111544      -0.00057308      -0.00031358      -0.00572178
Li      -0.13655099       2.04687753       1.32473536      -0.00079696      -0.00043758       0.01044361
Li      -0.12951690       2.05567876       4.28868457      -0.00052150       0.00005804       0.01750041
Li      -0.13413002       2.06315278       7.17237128       0.00111346       0.00034813       0.00656032
Ga       2.29481698       0.66914652       5.79555534      -0.00216780      -0.00045702      -0.04673458
Ga       2.29012275       0.68943917      11.59768571      -0.00764504      -0.00202049       0.01868781
Ga       2.31993096       3.49389761       8.59686009       0.00561042       0.00154844       0.04220975
Ga       2.31915659       3.47605931       2.79737172       0.00572130       0.00144522      -0.03144297
Sn       2.30447009       0.68176545       8.77419737       0.00217061       0.00034308      -0.01722268
Sn       2.30364591       0.66328060       2.76551563       0.00150924       0.00016347       0.03045242
Sn       2.30986130       3.48153807       5.69535028       0.00096941       0.00052045       0.02712260
6
Lattice="4.536999863895408 0.00021333517784415966 -0.0005315616548453112 -0.00028023467391163675 4.537651122657463 0.002161353002224075 0.0007798675948209795 -0.0020975311557845776 6.412891311728233" Properties=species:S:1:pos:R:3:forces:R:3 structure_index=4 total_energy=-18.850692749023438 stress="-0.03633430600166321 -0.00020187119662296027 0.0011826091213151813 -0.0002019572420977056 -0.03402765467762947 -0.0012149130925536156 0.001182579668238759 -0.0012149023823440075 -0.051067207008600235" pbc="T T T"
Li       2.07194894       1.41259900       0.14063452      -0.00034960      -0.00103001      -0.00122892
Li       4.34066806       3.67913616       3.34709885      -0.00081682       0.00077866       0.00035378
Ga       2.07109132       3.67992507       1.74428729       0.00191367      -0.00175476      -0.00277166
Ga       4.34066461       1.41061743       4.94884514      -0.00026835      -0.00395625       0.00178780
Sn       2.07192893       1.40972607       3.34553071      -0.00017790       0.00369970       0.00406993
Sn       4.33962250       3.68048423       0.14066138      -0.00030098       0.00226266      -0.00221093
10
Lattice="3.011621981016334 -5.9928515368253356e-05 0.00012532824027031172 0.00021031297974415645 7.912083261963225 -0.000964139437736955 -0.00034604399220951006 0.0010079838296273842 7.90615926616997" Properties=species:S:1:pos:R:3:forces:R:3 structure_index=5 total_energy=-28.909517288208008 stress="-0.014776556752622128 -5.989101282466436e-06 -1.8808264030667488e-06 -6.001575911795953e-06 -0.012444102205336094 -0.00016244431026279926 -1.799343976927048e-06 -0.00016247440362349153 -0.013304651714861393" pbc="T T T"
Li       2.36465594       6.79478364       0.75010856      -0.00069615       0.01853052      -0.01783043
Li       2.36412020       2.83470090       7.53401545      -0.00037314       0.02203716       0.01635906
Li       2.36438624       3.96607827       3.57773227      -0.00040511      -0.02057936       0.01875374
Li       2.36383513       0.01028144       4.70066543       0.00030675      -0.01813495      -0.01569383
Ga       0.85838955       4.45235686       1.23614931       0.00029278       0.01147489       0.00993921
Ga       0.85848955       6.30698245       3.09179508      -0.00017926      -0.01259205      -0.01420038
Ga       0.85847039       2.35153800       5.18905268      -0.00049720      -0.01057200       0.01402364
Ga       0.85808643       0.49542330       7.04331004       0.00002811       0.01086196      -0.01299828
Sn       0.85752638       5.38026602       6.11689757       0.00087075      -0.00180782       0.00137573
Sn       0.85781232       1.42324273       2.16443186       0.00065248       0.00078166       0.00027155
8
Lattice="5.195140079556559 -0.16372987882510495 -3.002571331643574 -3.4103192009847665 4.9413628088898855 0.04271512862562082 -0.11788965374922934 0.1129329011579285 6.001154268106005" Properties=species:S:1:pos:R:3:forces:R:3 structure_index=6 total_energy=-23.273059844970703 stress="-0.03254317492246628 -0.033677227795124054 -0.020502857863903046 -0.033677320927381516 -0.036883220076560974 0.005123182665556669 -0.020502839237451553 0.00512326043099165 -0.008624858222901821" pbc="T T T"
Li       1.35301561       0.41830693       3.15010640      -0.00078206      -0.00220385       0.00008384
Li      -0.29202035       2.83122564       0.17231178      -0.00107695      -0.00106894      -0.00137869
Ga      -0.34924751       2.88536921       3.16970381      -0.00336927       0.00148643      -0.00103324
Ga       3.94824966       0.33198430       1.65102981       0.00714228       0.00062215      -0.00040648
Ga       1.41094638       0.35836103       0.15290445      -0.00089299       0.00095830      -0.00566267
Ga       4.00906162       0.28006260      -1.35098814      -0.00202550      -0.00165211       0.00131309
Ga       2.29945449       2.74748343      -1.33468569       0.00704941       0.00261203       0.00580264
Sn       2.25071779       2.80575054       1.66598651      -0.00604494      -0.00075397       0.00128151
6
Lattice="3.1870928380421684 -0.00019453431264953412 -8.466130819207403e-05 0.00019854844555182923 3.1871012823919496 -0.00020423123880410974 0.00019499648911136777 0.0006152478907256087 10.147278292865751" Properties=species:S:1:pos:R:3:forces:R:3 structure_index=7 total_energy=-17.204193115234375 stress="0.056699831038713455 4.6152519644238055e-05 4.796320354216732e-07 4.6208173444028944e-05 0.056761763989925385 -6.904493830006686e-07 5.016186150896829e-07 -5.844978545610502e-07 0.07597840577363968" pbc="T T T"
Li       0.98147055       2.05758866       8.19144584      -0.00018035      -0.00004741      -0.01416789
Li       0.98117393       2.05711248       1.97333766      -0.00015078      -0.00008701       0.01311804
Li       0.98101891       2.05742556       5.08232663       0.00025769      -0.00020897      -0.00025276
Ga       2.57442876       0.46349739       3.48056755       0.00035673       0.00028436       0.04691601
Ga       2.57471707       0.46386206       6.68386707       0.00000425      -0.00002983      -0.04608759
Sn       2.57485070       0.46333104       0.00861640      -0.00028752       0.00008887       0.00047420
10
Lattice="4.466637997019789 -0.0051920405241868235 0.9777445236948388 2.1282875467879787 3.927217162056082 0.9767732866678359 -0.019226455819383887 -0.007718595530772674 10.742644316783501" Properties=species:S:1:pos:R:3:forces:R:3 structure_index=8 total_energy=-29.29483985900879 stress="0.011292733252048492 -0.0009506166679784656 -0.001007484388537705 -0.0009506799979135394 0.011286372318863869 -0.000138006653287448 -0.0010073547018691897 -0.00013804619084112346 0.0074965921230614185" pbc="T T T"
Li       3.19826942       3.81452160       5.95708397       0.00174944       0.00136729       0.00345272
Li       5.83322175       2.72013927       4.62021398       0.00172561       0.00075614      -0.00765122
Li       4.05022451       1.65918402       2.08507582      -0.00175267      -0.00133501       0.00424807
Li       1.97831825       3.09134682      11.52690084       0.00262721       0.00164689      -0.01469451
Li       4.64554423       2.01531216      10.04110062      -0.00809604      -0.00485330       0.02371143
Ga       1.63709153       0.22458944       2.40273660       0.00535790       0.00271133      -0.02002272
Ga       5.21829342       2.35416009       7.41397485      -0.00901209      -0.00459442       0.03987884
Sn       2.23525083       0.58225589      10.35082941       0.00124416       0.00072065       0.00030554
Sn       2.61622749       3.46942611       8.61985391       0.00326960       0.00195512      -0.00742543
Sn       3.43011986       1.29098284       4.90085653       0.00288691       0.00162530      -0.02180271
8
Lattice="5.2842048268698525 -0.0003161303414646798 -2.9642937372352978 -1.6602484059830311 5.020285542803634 -2.9610338843759667 -0.05015095115816559 -0.07546303870457731 6.104750002824617" Properties=species:S:1:pos:R:3:forces:R:3 structure_index=9 total_energy=-24.317203521728516 stress="0.03059660829603672 -0.019126705825328827 -0.019156349822878838 -0.019126784056425095 0.021006546914577484 -0.03146064653992653 -0.019156327471137047 -0.03146052360534668 0.016706395894289017" pbc="T T T"
Li      -0.39306797       3.85503524      -0.50206294      -0.00130270       0.00158362       0.00194614
Li       3.08071339       1.34476084      -0.50076495       0.00113518      -0.00187297      -0.00092321
Ga      -0.41902477       3.81768102       2.54930196       0.00040495       0.00286622       0.00363539
Ga       2.22681797       3.81886530       1.06912945      -0.00153750      -0.00053658      -0.00145920
Ga       3.05679538       1.30412309       2.55004356      -0.00120637       0.00151769       0.00209513
Ga       0.41047174       1.30685603       4.03652508       0.00047768      -0.00503561      -0.00735455
Sn       0.44001491       1.34753264       0.98159051      -0.00149520      -0.00350325       0.00322379
Sn       2.24735894       3.85054315      -1.98426650       0.00352397       0.00498089      -0.00116351
12
Lattice="5.431988317822324 -0.1757657926119727 -0.9296445251854802 -2.5376694792730983 4.805685958443852 -0.9336253900926479 -0.042105017678941044 -0.06391445229364831 8.705462152497367" Properties=species:S:1:pos:R:3:forces:R:3 structure_index=10 total_energy=-35.195709228515625 stress="-0.018074117600917816 0.006547557655721903 0.0014667073264718056 0.006547535769641399 -0.010826852172613144 0.002714047208428383 0.0014664795016869903 0.0027141221798956394 -0.0012783085694536567" pbc="T T T"
Li      -0.49089235       3.21038763      -0.78767504       0.01436309       0.02328832      -0.00738947
Li       3.48735229       0.70681629      -0.77449625      -0.01505676      -0.02306369       0.00686009
Li       0.75097419       0.77020169       4.03620410       0.00050281      -0.00006872      -0.00004748
Li       2.19930589       3.08518770       3.10485973       0.00001634      -0.00019568       0.00015983
Ga       1.89810626       2.73642100       6.22770828      -0.00682518      -0.00984054      -0.03166978
Ga       0.56758491       0.34777477       7.15768317      -0.00603943      -0.00929405      -0.03092542
Ga       1.05380756       1.11804994       0.91446820       0.00607109       0.00999318       0.03247883
Ga      -0.26242421       3.58166298       4.97262287       0.00792086       0.01048945       0.04714172
Ga       2.38409687       3.50590736      -0.01501283       0.00495979       0.01087978       0.03015619
Ga       3.21411723       0.27383059       2.16956783      -0.00724564      -0.01206693      -0.04701872
Sn      -0.74818839       2.79877361       2.28363925      -0.00213798      -0.00252852      -0.00898615
Sn       3.69964904       1.05647096       4.85857645       0.00347097       0.00240743       0.00924036
5
Lattice="3.898504968848367 0.0011049830494632164 1.7988238524854678 1.6912101088425957 4.71980583845223 1.4561198990357325 -0.17716227976459406 -0.603777409163062 5.52416258533343" Properties=species:S:1:pos:R:3:forces:R:3 structure_index=11 total_energy=-15.561018943786621 stress="-0.00602607661858201 0.005041126161813736 -0.006611297372728586 0.005041114054620266 -0.0020905660931020975 -0.005804114043712616 -0.006610992830246687 -0.005803998559713364 0.034128885716199875" pbc="T T T"
Li       2.41967821       0.33566131       1.70402379      -0.00101735       0.00834862       0.00948047
Li       2.85135420       3.72607952       5.89917941      -0.00162097      -0.00046248       0.01366633
Ga       3.45532265       1.01269454       4.60360731      -0.00952721      -0.00941905      -0.01095394
Sn       4.53312973       1.67592710       7.40725031      -0.02496130       0.00479711      -0.00626786
Sn       1.79854719       3.07870712       3.02937078       0.03712685      -0.00326419      -0.00592503
4
Lattice="3.8762758576118377 0.00038439294373841224 2.2383422751127697 1.2901253021295158 3.6547057465674793 2.2381855945533657 -1.1931964402258212e-05 6.966650581321248e-06 4.476437039780819" Properties=species:S:1:pos:R:3:forces:R:3 structure_index=12 total_energy=-9.474700927734375 stress="0.11332117021083832 -0.005128040909767151 3.9796643250156194e-05 -0.00512782484292984 0.11051488667726517 -0.00023645389592275023 3.9890761399874464e-05 -0.00023666802735533565 0.1088738813996315" pbc="T T T"
Li       3.61369296       2.25014147       3.01492494      -0.00082119      -0.00008109       0.00159976
Li       4.90506984       3.16486595       5.25417859       0.00194699      -0.00222492      -0.00297603
Li       2.32156609       1.33534485       5.25351851       0.00296563       0.00381918      -0.00110444
Ga       1.03166142       0.42313075       3.01464586      -0.00409143      -0.00151316       0.00248075
10
Lattice="3.2967995084985007 -0.00010612774448574434 0.0007770227620493355 0.00015736556632363566 3.2969765753405467 0.000216751577439458 -0.0015906128876011865 -0.0003721001851082328 17.95784310221813" Properties=species:S:1:pos:R:3:forces:R:3 structure_index=13 total_energy=-30.93851661682129 stress="-0.014667617157101631 0.00016121691442094743 0.002515315543860197 0.00016122477245517075 -0.012877528555691242 0.0006590287666767836 0.0025155493058264256 0.000659035227727145 -0.018850553780794144" pbc="T T T"
Li       2.96033852       2.01749439       3.79734525       0.00036800      -0.00000602      -0.04311161
Li       2.96123056       2.01871439      11.28204617      -0.00015635      -0.00019432       0.00134596
Li       2.96129051       2.01821509       0.83157119      -0.00026440      -0.00129371       0.03267428
Li       2.96046011       2.01835664      15.07311810       0.00042980      -0.00045216      -0.00640656
Li       2.96166710       2.01901557       7.50143782      -0.00074740      -0.00088987       0.00731148
Ga       1.31196875       0.36883961       2.30830376       0.00099865       0.00142697       0.01066750
Sn       1.31280418       0.37027286       9.41077334       0.00021897       0.00020040      -0.01988392
Sn       1.31240405       0.36950501       5.62206544       0.00008193       0.00039210       0.02794433
Sn       1.31247257       0.37001898      13.15432774      -0.00013343       0.00010634       0.02682954
Sn       1.31208715       0.36916278      16.96138905      -0.00079576       0.00071028      -0.03737104
4
Lattice="4.034946484672485 -0.0003006848782139773 2.330049123514069 1.3446878643965228 3.80457396999225 2.3307321087190584 -0.0004777428909329378 -0.00034761414680326594 4.659749125079872" Properties=species:S:1:pos:R:3:forces:R:3 structure_index=14 total_energy=-11.74650764465332 stress="0.10891643911600113 0.0007135999039746821 0.002555140992626548 0.0007136632339097559 0.11244270205497742 0.002106839558109641 0.0025553214363753796 0.002106968779116869 0.11147390305995941" pbc="T T T"
Li       2.78823400       0.29024136       3.26428505       0.00087650      -0.00069949      -0.00075622
Li       1.44238621       2.19210552       5.59330023       0.00203630       0.00010137       0.00212812
Ga       4.13316313       1.24070172       5.59506501      -0.00035821       0.00060160      -0.00245559
Sn       2.78881663       3.14359353       3.26408797      -0.00255458      -0.00000349       0.00108370
9
Lattice="4.520152367187917 0.010820068956091647 1.4814893181357198 2.3643062613731005 5.1478216591478105 0.398396199228925 -0.047719832040886374 0.061816123215097364 7.785643433553158" Properties=species:S:1:pos:R:3:forces:R:3 structure_index=15 total_energy=-26.943723678588867 stress="0.03062831424176693 0.0030598666053265333 0.002222722861915827 0.0030599983874708414 0.016275949776172638 0.001194317126646638 0.0022228166926652193 0.0011941264383494854 0.030744371935725212" pbc="T T T"
Li       0.19744059       0.23261972       3.86998735       0.00173634      -0.00419936      -0.00810096
Li       3.39615304       3.75525385       1.72663760       0.00158927       0.01815868      -0.00579297
Ga       4.00019446       1.84737887       7.52854614       0.00251339      -0.00407503      -0.00415282
Ga       6.16056849       3.91652399       8.56999442      -0.00064006       0.01686913      -0.00571944
Ga       3.22992544       0.68722738       2.23604370      -0.01420336       0.02085582       0.04049964
Ga       1.19748614       1.60250104       0.79451427      -0.00190662      -0.01293833       0.00961623
Ga       4.19005550       4.88118922       6.93703174       0.00689175      -0.00975335      -0.01417872
Sn       5.04256563       3.62392353       4.33865839      -0.00011817      -0.01961195       0.01290207
Sn       2.36576409       2.15278403       4.88200639       0.00413748      -0.00530562      -0.02507303
13
Lattice="4.887680332317883 0.18627675816409123 1.5733211714657855 3.514978508549151 6.789426525292315 -1.3111263047119683 0.15556096335075026 -0.027383146188943358 7.707369291416524" Properties=species:S:1:pos:R:3:forces:R:3 structure_index=16 total_energy=-37.627201080322266 stress="-0.016088351607322693 -0.009050468914210796 -0.005961486604064703 -0.009050646796822548 -0.008092490024864674 -0.002177279908210039 -0.005961486604064703 -0.0021772391628473997 0.0016584063414484262" pbc="T T T"
Li       1.40063376       1.50887703       2.42061715      -0.03376551       0.00349053       0.02582984
Li       5.51276226       2.63322891       1.57274332      -0.00824691      -0.00866702       0.02519136
Li       3.07789961       4.24714977       1.07704634      -0.00925542      -0.02242396       0.03578873
Li       3.85889565       0.49144300       2.11862463       0.00583871       0.01734036      -0.00989531
Li       1.57623734       1.20569133       5.23269023      -0.00740414      -0.01719908       0.00998301
Li       4.03281021       0.18864583       4.93034204       0.03395377      -0.00552918      -0.02606816
Li       3.43618953       5.85466182       4.46625261       0.00797959       0.00755838      -0.02391690
Li       5.86572201       4.23545630       4.96834395       0.01092573       0.02454746      -0.03648441
Ga       6.99633157       4.32455681       7.66121571       0.00074385      -0.00050366      -0.00020189
Sn       5.36482855       5.56879604       2.24000697      -0.00188922       0.01245894      -0.04818627
Sn       3.58189392       2.91682510       3.79979775       0.00242312      -0.01019775       0.04699251
Sn       5.35479025       6.41550966       6.62661750      -0.00696030       0.00264151       0.01811217
Sn       3.75190879       2.04664668       7.11899574       0.00565675      -0.00351650      -0.01714467
19
Lattice="7.212104360397855 0.0757998438083079 -2.750004784064053 -3.2017923938381765 5.922816379938698 -2.2197181763701685 -0.09372263404834476 0.10299253617598966 7.72286740485755" Properties=species:S:1:pos:R:3:forces:R:3 structure_index=17 total_energy=-51.279296875 stress="-0.00945401843637228 -0.0007490859716199338 0.00037876461283303797 -0.0007492939475923777 -0.010844312608242035 -0.0005698040477000177 0.000378850701963529 -0.0005699475295841694 -0.007500296924263239" pbc="T T T"
Li      -0.95984171       5.89932308      -0.32020804       0.00481590       0.01720194       0.00351678
Li       6.86599374       0.46723476       3.58629415       0.00697220      -0.01161155      -0.01271157
Li       4.48082029       0.72113570       0.24796849       0.02802416       0.00719658      -0.01038004
Li       1.62769336       3.75794383      -2.42441530      -0.00652122       0.00654002      -0.00278121
Li      -0.59037454       2.15382877       4.21565792      -0.00653905       0.00421366      -0.01190659
Li       1.90752121       1.75194886      -0.39903305      -0.00722490      -0.00504529       0.00776755
Li       1.45984718       4.84563821       0.24375159       0.01794368       0.00031336       0.00750289
Li       2.08407281       0.83985254       4.69737889      -0.02056187      -0.00633280      -0.01399301
Li       4.16070793       3.52879797       0.83969488       0.00253183      -0.03285799      -0.02129107
Li       1.88066306       2.79197909       2.47257274      -0.01411930       0.00968092       0.02195802
Li       1.34700218       5.79494304       3.01621699       0.00859520       0.01878180       0.01086729
Li       4.04084936       4.49942829       3.52793372       0.01646693       0.00068571       0.00546078
Ga      -0.61496030       3.10171024      -1.00940694      -0.01859527      -0.00535720       0.04037160
Ga       4.31704125       1.71693634       3.05389274       0.00488639       0.00219728      -0.01286441
Ga       4.01784652       2.41146456      -2.07856580      -0.02468579      -0.00083235      -0.00744330
Ga      -0.85441617       5.11167066       4.76013264      -0.00169608      -0.03520928       0.01683251
Sn      -0.65235712       4.04651332       2.03786681       0.02227099       0.02407012      -0.01453308
Sn       3.81638159       5.26842346      -1.37650926       0.00482203      -0.00368464      -0.00442037
Sn      -0.31753916       1.22888197       1.31929615      -0.01738580       0.01004970      -0.00195278
7
Lattice="4.375916666848748 0.00469769430273061 1.3737734243542354 1.9659615258920942 3.9080816035586383 1.3744597547793902 -0.13463983463515636 -0.08473442139958384 8.080132984811252" Properties=species:S:1:pos:R:3:forces:R:3 structure_index=18 total_energy=-20.914440155029297 stress="0.004833323881030083 -0.011398812755942345 0.013783789239823818 -0.01139876153320074 0.005273168906569481 0.0070166862569749355 0.013783619739115238 0.007016750052571297 -0.04627563804388046" pbc="T T T"
Li       5.80188464       3.66701272       7.37723268       0.00170990       0.00148395      -0.00717266
Li       3.02479853       1.95308335       8.57422632       0.00011656       0.00008837      -0.00012816
Li       0.38300742       0.32427118       1.68949895      -0.00187952      -0.00161668       0.00761656
Ga       4.16041985       2.65461910       4.95613921       0.01519591       0.00792643      -0.04173398
Ga       2.02443973       1.33652569       4.11102355      -0.01546222      -0.00803278       0.04240220
Sn       5.00399508       3.17544977       2.26939607       0.00191949       0.00209800      -0.00898224
Sn       1.18055745       0.81565255       6.79810487      -0.00160013      -0.00194727       0.00799829
20
Lattice="5.324927469649164 0.04428677584196206 -0.8112069286433384 -1.6012069926139454 6.265018681973084 -0.9503262460510006 -0.25756574026685275 -0.11411973705462192 11.621915365215198" Properties=species:S:1:pos:R:3:forces:R:3 structure_index=19 total_energy=-58.460174560546875 stress="0.0073968409560620785 -3.379474946996197e-05 -0.0014643557369709015 -3.373298386577517e-05 0.007575901225209236 0.00039481412386521697 -0.0014642570167779922 0.0003947654622606933 0.004007234238088131" pbc="T T T"
Li       3.68270655       3.29409687       1.21681866      -0.00531773      -0.00347178       0.01258622
Li      -0.51841140       5.79849815       3.05941474       0.00202085       0.00701361      -0.00557685
Li       2.30383803       2.03729945       5.23450770       0.01174940      -0.00336256      -0.01005915
Li       0.91618581       4.48078013       0.78250117       0.00669704      -0.00081835       0.00294231
Li       2.07219649       5.59759289       8.49871588       0.01079768      -0.00480806       0.01470389
Li       3.49003060       1.97208883       7.82375409       0.00333637       0.00154759       0.00563673
Li       0.86967503       0.69686565       9.05815589       0.00267869       0.00834111       0.00905755
Li      -0.61882386       4.31776542       9.73372548       0.00273479      -0.00549562       0.00592352
Li       2.39099686       0.75849438       0.16377925      -0.00155975      -0.00371733      -0.02337627
Li      -0.43529914       3.19980139       4.78151140      -0.00118420      -0.02282928      -0.00613656
Li       2.16844252       4.56073900       3.63441921      -0.00852032      -0.00561895      -0.01372642
Ga       3.58161375       5.78706100      -0.35014938      -0.00879399      -0.02015049      -0.01006371
Ga       3.44089871       4.40497320       6.32975507      -0.00862347       0.00503581       0.00659256
Ga       0.72127510       3.18236954       7.51026437      -0.03229880      -0.01383295       0.00583816
Sn       0.74692570       5.63287349       5.87934436       0.00249160       0.00454073      -0.01043666