# Thermal properties / unit cell (natom)

unit:
  temperature:   K
  free_energy:   kJ/mol
  entropy:       J/K/mol
  heat_capacity: J/K/mol

natom: 4    
cutoff_frequency: 0.00000
num_modes: 158004
num_integrated_modes: 157942

zero_point_energy:      15.2033094

thermal_properties:
- temperature:         0.0000000
  free_energy:        15.2033094
  entropy:             0.0000000
  heat_capacity:       0.0000000
  energy:             15.2033094

- temperature:        10.0000000
  free_energy:        15.2014552
  entropy:             0.6238961
  heat_capacity:       1.5318200
  energy:             15.2076942

- temperature:        20.0000000
  free_energy:        15.1839151
  entropy:             3.2187576
  heat_capacity:       7.0269362
  energy:             15.2482902

- temperature:        30.0000000
  free_energy:        15.1321749
  entropy:             7.2888767
  heat_capacity:      13.4483769
  energy:             15.3508412

- temperature:        40.0000000
  free_energy:        15.0360652
  entropy:            11.9986980
  heat_capacity:      19.5283708
  energy:             15.5160131

- temperature:        50.0000000
  free_energy:        14.8913021
  entropy:            16.9847952
  heat_capacity:      25.3458250
  energy:             15.7405419

- temperature:        60.0000000
  free_energy:        14.6959177
  entropy:            22.1084771
  heat_capacity:      31.0088847
  energy:             16.0224264

- temperature:        70.0000000
  free_energy:        14.4488915
  entropy:            27.3051131
  heat_capacity:      36.5287520
  energy:             16.3602494

- temperature:        80.0000000
  free_energy:        14.1497120
  entropy:            32.5329826
  heat_capacity:      41.8527247
  energy:             16.7523506

- temperature:        90.0000000
  free_energy:        13.7982440
  entropy:            37.7573232
  heat_capacity:      46.9068610
  energy:             17.1964031

- temperature:       100.0000000
  free_energy:        13.3946818
  entropy:            42.9469161
  heat_capacity:      51.6275311
  energy:             17.6893734

- temperature:       110.0000000
  free_energy:        12.9395129
  entropy:            48.0745006
  heat_capacity:      55.9753441
  energy:             18.2277080

- temperature:       120.0000000
  free_energy:        12.4334739
  entropy:            53.1176153
  heat_capacity:      59.9360706
  energy:             18.8075878

- temperature:       130.0000000
  free_energy:        11.8775006
  entropy:            58.0588941
  heat_capacity:      63.5154713
  energy:             19.4251568

- temperature:       140.0000000
  free_energy:        11.2726778
  entropy:            62.8857962
  heat_capacity:      66.7327365
  energy:             20.0766892

- temperature:       150.0000000
  free_energy:        10.6201941
  entropy:            67.5899975
  heat_capacity:      69.6147489
  energy:             20.7586937

- temperature:       160.0000000
  free_energy:         9.9213033
  entropy:            72.1666527
  heat_capacity:      72.1918251
  energy:             21.4679677

- temperature:       170.0000000
  free_energy:         9.1772934
  entropy:            76.6136677
  heat_capacity:      74.4948711
  energy:             22.2016169

- temperature:       180.0000000
  free_energy:         8.3894622
  entropy:            80.9310497
  heat_capacity:      76.5536475
  energy:             22.9570511

- temperature:       190.0000000
  free_energy:         7.5590994
  entropy:            85.1203616
  heat_capacity:      78.3958184
  energy:             23.7319681

- temperature:       200.0000000
  free_energy:         6.6874730
  entropy:            89.1842827
  heat_capacity:      80.0465184
  energy:             24.5243296

- temperature:       210.0000000
  free_energy:         5.7758203
  entropy:            93.1262630
  heat_capacity:      81.5282399
  energy:             25.3323355

- temperature:       220.0000000
  free_energy:         4.8253411
  entropy:            96.9502578
  heat_capacity:      82.8609098
  energy:             26.1543978

- temperature:       230.0000000
  free_energy:         3.8371942
  entropy:           100.6605275
  heat_capacity:      84.0620654
  energy:             26.9891156

- temperature:       240.0000000
  free_energy:         2.8124949
  entropy:           104.2614886
  heat_capacity:      85.1470768
  energy:             27.8352522

- temperature:       250.0000000
  free_energy:         1.7523139
  entropy:           107.7576040
  heat_capacity:      86.1293815
  energy:             28.6917149

- temperature:       260.0000000
  free_energy:         0.6576775
  entropy:           111.1533046
  heat_capacity:      87.0207142
  energy:             29.5575367

- temperature:       270.0000000
  free_energy:        -0.4704319
  entropy:           114.4529341
  heat_capacity:      87.8313194
  energy:             30.4318603

- temperature:       280.0000000
  free_energy:        -1.6310750
  entropy:           117.6607106
  heat_capacity:      88.5701449
  energy:             31.3139240

- temperature:       290.0000000
  free_energy:        -2.8233536
  entropy:           120.7807022
  heat_capacity:      89.2450130
  energy:             32.2030501

- temperature:       300.0000000
  free_energy:        -4.0464094
  entropy:           123.8168114
  heat_capacity:      89.8627707
  energy:             33.0986340

- temperature:       310.0000000
  free_energy:        -5.2994226
  entropy:           126.7727672
  heat_capacity:      90.4294212
  energy:             34.0001352

- temperature:       320.0000000
  free_energy:        -6.5816095
  entropy:           129.6521223
  heat_capacity:      90.9502368
  energy:             34.9070697

- temperature:       330.0000000
  free_energy:        -7.8922210
  entropy:           132.4582536
  heat_capacity:      91.4298568
  energy:             35.8190027

- temperature:       340.0000000
  free_energy:        -9.2305412
  entropy:           135.1943657
  heat_capacity:      91.8723716
  energy:             36.7355432

- temperature:       350.0000000
  free_energy:       -10.5958851
  entropy:           137.8634960
  heat_capacity:      92.2813949
  energy:             37.6563385

- temperature:       360.0000000
  free_energy:       -11.9875974
  entropy:           140.4685210
  heat_capacity:      92.6601262
  energy:             38.5810701

- temperature:       370.0000000
  free_energy:       -13.4050509
  entropy:           143.0121634
  heat_capacity:      93.0114038
  energy:             39.5094496

- temperature:       380.0000000
  free_energy:       -14.8476447
  entropy:           145.4969996
  heat_capacity:      93.3377512
  energy:             40.4412152

- temperature:       390.0000000
  free_energy:       -16.3148030
  entropy:           147.9254667
  heat_capacity:      93.6414164
  energy:             41.3761290

- temperature:       400.0000000
  free_energy:       -17.8059738
  entropy:           150.2998710
  heat_capacity:      93.9244062
  energy:             42.3139746

- temperature:       410.0000000
  free_energy:       -19.3206275
  entropy:           152.6223945
  heat_capacity:      94.1885157
  energy:             43.2545542

- temperature:       420.0000000
  free_energy:       -20.8582557
  entropy:           154.8951024
  heat_capacity:      94.4353537
  energy:             44.1976873

- temperature:       430.0000000
  free_energy:       -22.4183700
  entropy:           157.1199502
  heat_capacity:      94.6663651
  energy:             45.1432086

- temperature:       440.0000000
  free_energy:       -24.0005013
  entropy:           159.2987899
  heat_capacity:      94.8828497
  energy:             46.0909662

- temperature:       450.0000000
  free_energy:       -25.6041983
  entropy:           161.4333764
  heat_capacity:      95.0859793
  energy:             47.0408211

- temperature:       460.0000000
  free_energy:       -27.2290269
  entropy:           163.5253734
  heat_capacity:      95.2768119
  energy:             47.9926448

- temperature:       470.0000000
  free_energy:       -28.8745691
  entropy:           165.5763587
  heat_capacity:      95.4563047
  energy:             48.9463195

- temperature:       480.0000000
  free_energy:       -30.5404224
  entropy:           167.5878300
  heat_capacity:      95.6253251
  energy:             49.9017360

- temperature:       490.0000000
  free_energy:       -32.2261987
  entropy:           169.5612091
  heat_capacity:      95.7846604
  energy:             50.8587937

- temperature:       500.0000000
  free_energy:       -33.9315241
  entropy:           171.4978469
  heat_capacity:      95.9350263
  energy:             51.8173994

- temperature:       510.0000000
  free_energy:       -35.6560375
  entropy:           173.3990275
  heat_capacity:      96.0770748
  energy:             52.7774665

- temperature:       520.0000000
  free_energy:       -37.3993905
  entropy:           175.2659724
  heat_capacity:      96.2114002
  energy:             53.7389151

- temperature:       530.0000000
  free_energy:       -39.1612467
  entropy:           177.0998440
  heat_capacity:      96.3385456
  energy:             54.7016706

- temperature:       540.0000000
  free_energy:       -40.9412809
  entropy:           178.9017493
  heat_capacity:      96.4590076
  energy:             55.6656638

- temperature:       550.0000000
  free_energy:       -42.7391786
  entropy:           180.6727430
  heat_capacity:      96.5732415
  energy:             56.6308300

- temperature:       560.0000000
  free_energy:       -44.5546360
  entropy:           182.4138308
  heat_capacity:      96.6816644
  energy:             57.5971092

- temperature:       570.0000000
  free_energy:       -46.3873588
  entropy:           184.1259719
  heat_capacity:      96.7846598
  energy:             58.5644452

- temperature:       580.0000000
  free_energy:       -48.2370620
  entropy:           185.8100820
  heat_capacity:      96.8825803
  energy:             59.5327855

- temperature:       590.0000000
  free_energy:       -50.1034699
  entropy:           187.4670354
  heat_capacity:      96.9757507
  energy:             60.5020810

- temperature:       600.0000000
  free_energy:       -51.9863150
  entropy:           189.0976678
  heat_capacity:      97.0644704
  energy:             61.4722857

- temperature:       610.0000000
  free_energy:       -53.8853382
  entropy:           190.7027781
  heat_capacity:      97.1490158
  energy:             62.4433565

- temperature:       620.0000000
  free_energy:       -55.8002881
  entropy:           192.2831306
  heat_capacity:      97.2296425
  energy:             63.4152529

- temperature:       630.0000000
  free_energy:       -57.7309207
  entropy:           193.8394568
  heat_capacity:      97.3065869
  energy:             64.3879371

- temperature:       640.0000000
  free_energy:       -59.6769994
  entropy:           195.3724571
  heat_capacity:      97.3800679
  energy:             65.3613731

- temperature:       650.0000000
  free_energy:       -61.6382943
  entropy:           196.8828029
  heat_capacity:      97.4502888
  energy:             66.3355276

- temperature:       660.0000000
  free_energy:       -63.6145821
  entropy:           198.3711376
  heat_capacity:      97.5174380
  energy:             67.3103687

- temperature:       670.0000000
  free_energy:       -65.6056458
  entropy:           199.8380783
  heat_capacity:      97.5816908
  energy:             68.2858667

- temperature:       680.0000000
  free_energy:       -67.6112744
  entropy:           201.2842173
  heat_capacity:      97.6432101
  energy:             69.2619934

- temperature:       690.0000000
  free_energy:       -69.6312627
  entropy:           202.7101231
  heat_capacity:      97.7021478
  energy:             70.2387223

- temperature:       700.0000000
  free_energy:       -71.6654112
  entropy:           204.1163420
  heat_capacity:      97.7586453
  energy:             71.2160282

- temperature:       710.0000000
  free_energy:       -73.7135257
  entropy:           205.5033988
  heat_capacity:      97.8128346
  energy:             72.1938875

- temperature:       720.0000000
  free_energy:       -75.7754170
  entropy:           206.8717981
  heat_capacity:      97.8648390
  energy:             73.1722776

- temperature:       730.0000000
  free_energy:       -77.8509010
  entropy:           208.2220252
  heat_capacity:      97.9147735
  energy:             74.1511774

- temperature:       740.0000000
  free_energy:       -79.9397985
  entropy:           209.5545473
  heat_capacity:      97.9627459
  energy:             75.1305665

- temperature:       750.0000000
  free_energy:       -82.0419345
  entropy:           210.8698141
  heat_capacity:      98.0088571
  energy:             76.1104261

- temperature:       760.0000000
  free_energy:       -84.1571387
  entropy:           212.1682585
  heat_capacity:      98.0532015
  energy:             77.0907378

- temperature:       770.0000000
  free_energy:       -86.2852450
  entropy:           213.4502980
  heat_capacity:      98.0958679
  energy:             78.0714845

- temperature:       780.0000000
  free_energy:       -88.4260913
  entropy:           214.7163348
  heat_capacity:      98.1369392
  energy:             79.0526498

- temperature:       790.0000000
  free_energy:       -90.5795196
  entropy:           215.9667568
  heat_capacity:      98.1764936
  energy:             80.0342182

- temperature:       800.0000000
  free_energy:       -92.7453756
  entropy:           217.2019382
  heat_capacity:      98.2146046
  energy:             81.0161749

- temperature:       810.0000000
  free_energy:       -94.9235088
  entropy:           218.4222402
  heat_capacity:      98.2513411
  energy:             81.9985057

- temperature:       820.0000000
  free_energy:       -97.1137720
  entropy:           219.6280114
  heat_capacity:      98.2867681
  energy:             82.9811974

- temperature:       830.0000000
  free_energy:       -99.3160217
  entropy:           220.8195887
  heat_capacity:      98.3209468
  energy:             83.9642369

- temperature:       840.0000000
  free_energy:      -101.5301176
  entropy:           221.9972975
  heat_capacity:      98.3539350
  energy:             84.9476123

- temperature:       850.0000000
  free_energy:      -103.7559225
  entropy:           223.1614521
  heat_capacity:      98.3857870
  energy:             85.9313119

- temperature:       860.0000000
  free_energy:      -105.9933024
  entropy:           224.3123568
  heat_capacity:      98.4165541
  energy:             86.9153244

- temperature:       870.0000000
  free_energy:      -108.2421264
  entropy:           225.4503056
  heat_capacity:      98.4462849
  energy:             87.8996395

- temperature:       880.0000000
  free_energy:      -110.5022663
  entropy:           226.5755831
  heat_capacity:      98.4750252
  energy:             88.8842468

- temperature:       890.0000000
  free_energy:      -112.7735968
  entropy:           227.6884647
  heat_capacity:      98.5028182
  energy:             89.8691368

- temperature:       900.0000000
  free_energy:      -115.0559952
  entropy:           228.7892171
  heat_capacity:      98.5297051
  energy:             90.8543002

- temperature:       910.0000000
  free_energy:      -117.3493415
  entropy:           229.8780984
  heat_capacity:      98.5557247
  energy:             91.8397280

- temperature:       920.0000000
  free_energy:      -119.6535184
  entropy:           230.9553590
  heat_capacity:      98.5809136
  energy:             92.8254119

- temperature:       930.0000000
  free_energy:      -121.9684108
  entropy:           232.0212413
  heat_capacity:      98.6053067
  energy:             93.8113437

- temperature:       940.0000000
  free_energy:      -124.2939061
  entropy:           233.0759804
  heat_capacity:      98.6289372
  energy:             94.7975155

- temperature:       950.0000000
  free_energy:      -126.6298940
  entropy:           234.1198042
  heat_capacity:      98.6518362
  energy:             95.7839200

- temperature:       960.0000000
  free_energy:      -128.9762665
  entropy:           235.1529338
  heat_capacity:      98.6740337
  energy:             96.7705499

- temperature:       970.0000000
  free_energy:      -131.3329178
  entropy:           236.1755837
  heat_capacity:      98.6955578
  energy:             97.7573984

- temperature:       980.0000000
  free_energy:      -133.6997440
  entropy:           237.1879621
  heat_capacity:      98.7164355
  energy:             98.7444589

- temperature:       990.0000000
  free_energy:      -136.0766434
  entropy:           238.1902712
  heat_capacity:      98.7366922
  energy:             99.7317250

- temperature:      1000.0000000
  free_energy:      -138.4635165
  entropy:           239.1827072
  heat_capacity:      98.7563523
  energy:            100.7191907
