# Thermal properties / unit cell (natom)

unit:
  temperature:   K
  free_energy:   kJ/mol
  entropy:       J/K/mol
  heat_capacity: J/K/mol

natom: 5    
cutoff_frequency: 0.00000
num_modes: 295245
num_integrated_modes: 295243

zero_point_energy:      20.4332856

thermal_properties:
- temperature:         0.0000000
  free_energy:        20.4332856
  entropy:             0.0000000
  heat_capacity:       0.0000000
  energy:             20.4332856

- temperature:        10.0000000
  free_energy:        20.4328733
  entropy:             0.1609258
  heat_capacity:       0.5460525
  energy:             20.4344825

- temperature:        20.0000000
  free_energy:        20.4253591
  entropy:             1.6971631
  heat_capacity:       5.2309958
  energy:             20.4593023

- temperature:        30.0000000
  free_energy:        20.3922174
  entropy:             5.2036914
  heat_capacity:      12.7577113
  energy:             20.5483281

- temperature:        40.0000000
  free_energy:        20.3171658
  entropy:             9.9567224
  heat_capacity:      20.6344717
  energy:             20.7154347

- temperature:        50.0000000
  free_energy:        20.1908802
  entropy:            15.3793578
  heat_capacity:      28.1785047
  energy:             20.9598481

- temperature:        60.0000000
  free_energy:        20.0084212
  entropy:            21.1541349
  heat_capacity:      35.3251562
  energy:             21.2776693

- temperature:        70.0000000
  free_energy:        19.7671837
  entropy:            27.1153841
  heat_capacity:      42.1427431
  energy:             21.6652606

- temperature:        80.0000000
  free_energy:        19.4658000
  entropy:            33.1716824
  heat_capacity:      48.6615414
  energy:             22.1195346

- temperature:        90.0000000
  free_energy:        19.1036304
  entropy:            39.2643360
  heat_capacity:      54.8584071
  energy:             22.6374206

- temperature:       100.0000000
  free_energy:        18.6805395
  entropy:            45.3493914
  heat_capacity:      60.6882809
  energy:             23.2154786

- temperature:       110.0000000
  free_energy:        18.1967871
  entropy:            51.3912815
  heat_capacity:      66.1113434
  energy:             23.8498281

- temperature:       120.0000000
  free_energy:        17.6529552
  entropy:            57.3609819
  heat_capacity:      71.1053070
  energy:             24.5362730

- temperature:       130.0000000
  free_energy:        17.0498856
  entropy:            63.2354291
  heat_capacity:      75.6669430
  energy:             25.2704914

- temperature:       140.0000000
  free_energy:        16.3886232
  entropy:            68.9970524
  heat_capacity:      79.8085350
  energy:             26.0482105

- temperature:       150.0000000
  free_energy:        15.6703634
  entropy:            74.6331615
  heat_capacity:      83.5529865
  energy:             26.8653376

- temperature:       160.0000000
  free_energy:        14.8964072
  entropy:            80.1352242
  heat_capacity:      86.9293611
  energy:             27.7180431

- temperature:       170.0000000
  free_energy:        14.0681231
  entropy:            85.4981222
  heat_capacity:      89.9694544
  energy:             28.6028039

- temperature:       180.0000000
  free_energy:        13.1869169
  entropy:            90.7194537
  heat_capacity:      92.7054200
  energy:             29.5164185

- temperature:       190.0000000
  free_energy:        12.2542071
  entropy:            95.7989212
  heat_capacity:      95.1682651
  energy:             30.4560021

- temperature:       200.0000000
  free_energy:        11.2714071
  entropy:           100.7378161
  heat_capacity:      97.3869866
  energy:             31.4189704

- temperature:       210.0000000
  free_energy:        10.2399112
  entropy:           105.5385986
  heat_capacity:      99.3881484
  energy:             32.4030169

- temperature:       220.0000000
  free_energy:         9.1610846
  entropy:           110.2045626
  heat_capacity:     101.1957459
  energy:             33.4060884

- temperature:       230.0000000
  free_energy:         8.0362565
  entropy:           114.7395736
  heat_capacity:     102.8312456
  energy:             34.4263585

- temperature:       240.0000000
  free_energy:         6.8667156
  entropy:           119.1478663
  heat_capacity:     104.3137264
  energy:             35.4622035

- temperature:       250.0000000
  free_energy:         5.6537068
  entropy:           123.4338906
  heat_capacity:     105.6600714
  energy:             36.5121794

- temperature:       260.0000000
  free_energy:         4.3984302
  entropy:           127.6021955
  heat_capacity:     106.8851798
  energy:             37.5750010

- temperature:       270.0000000
  free_energy:         3.1020401
  entropy:           131.6573436
  heat_capacity:     108.0021800
  energy:             38.6495228

- temperature:       280.0000000
  free_energy:         1.7656454
  entropy:           135.6038482
  heat_capacity:     109.0226323
  energy:             39.7347229

- temperature:       290.0000000
  free_energy:         0.3903105
  entropy:           139.4461284
  heat_capacity:     109.9567168
  energy:             40.8296877

- temperature:       300.0000000
  free_energy:        -1.0229441
  entropy:           143.1884781
  heat_capacity:     110.8134024
  energy:             41.9335994

- temperature:       310.0000000
  free_energy:        -2.4731398
  entropy:           146.8350453
  heat_capacity:     111.6005985
  energy:             43.0457242

- temperature:       320.0000000
  free_energy:        -3.9593390
  entropy:           150.3898190
  heat_capacity:     112.3252880
  energy:             44.1654031

- temperature:       330.0000000
  free_energy:        -5.4806430
  entropy:           153.8566221
  heat_capacity:     112.9936448
  energy:             45.2920423

- temperature:       340.0000000
  free_energy:        -7.0361904
  entropy:           157.2391085
  heat_capacity:     113.6111356
  energy:             46.4251065

- temperature:       350.0000000
  free_energy:        -8.6251557
  entropy:           160.5407640
  heat_capacity:     114.1826093
  energy:             47.5641117

- temperature:       360.0000000
  free_energy:       -10.2467473
  entropy:           163.7649084
  heat_capacity:     114.7123743
  energy:             48.7086197

- temperature:       370.0000000
  free_energy:       -11.9002061
  entropy:           166.9147001
  heat_capacity:     115.2042652
  energy:             49.8582330

- temperature:       380.0000000
  free_energy:       -13.5848035
  entropy:           169.9931414
  heat_capacity:     115.6617015
  energy:             51.0125902

- temperature:       390.0000000
  free_energy:       -15.2998406
  entropy:           173.0030845
  heat_capacity:     116.0877381
  energy:             52.1713624

- temperature:       400.0000000
  free_energy:       -17.0446459
  entropy:           175.9472384
  heat_capacity:     116.4851088
  energy:             53.3342494

- temperature:       410.0000000
  free_energy:       -18.8185747
  entropy:           178.8281752
  heat_capacity:     116.8562651
  energy:             54.5009772

- temperature:       420.0000000
  free_energy:       -20.6210069
  entropy:           181.6483371
  heat_capacity:     117.2034089
  energy:             55.6712947

- temperature:       430.0000000
  free_energy:       -22.4513466
  entropy:           184.4100430
  heat_capacity:     117.5285214
  energy:             56.8449720

- temperature:       440.0000000
  free_energy:       -24.3090202
  entropy:           187.1154953
  heat_capacity:     117.8333889
  energy:             58.0217977

- temperature:       450.0000000
  free_energy:       -26.1934759
  entropy:           189.7667857
  heat_capacity:     118.1196240
  energy:             59.2015776

- temperature:       460.0000000
  free_energy:       -28.1041820
  entropy:           192.3659021
  heat_capacity:     118.3886855
  energy:             60.3841329

- temperature:       470.0000000
  free_energy:       -30.0406264
  entropy:           194.9147338
  heat_capacity:     118.6418952
  energy:             61.5692985

- temperature:       480.0000000
  free_energy:       -32.0023151
  entropy:           197.4150773
  heat_capacity:     118.8804523
  energy:             62.7569220

- temperature:       490.0000000
  free_energy:       -33.9887720
  entropy:           199.8686416
  heat_capacity:     119.1054472
  energy:             63.9468624

- temperature:       500.0000000
  free_energy:       -35.9995374
  entropy:           202.2770530
  heat_capacity:     119.3178721
  energy:             65.1389891

- temperature:       510.0000000
  free_energy:       -38.0341677
  entropy:           204.6418601
  heat_capacity:     119.5186320
  energy:             66.3331809

- temperature:       520.0000000
  free_energy:       -40.0922342
  entropy:           206.9645381
  heat_capacity:     119.7085529
  energy:             67.5293256

- temperature:       530.0000000
  free_energy:       -42.1733227
  entropy:           209.2464927
  heat_capacity:     119.8883903
  energy:             68.7273184

- temperature:       540.0000000
  free_energy:       -44.2770328
  entropy:           211.4890646
  heat_capacity:     120.0588359
  energy:             69.9270621

- temperature:       550.0000000
  free_energy:       -46.4029770
  entropy:           213.6935326
  heat_capacity:     120.2205238
  energy:             71.1284659

- temperature:       560.0000000
  free_energy:       -48.5507805
  entropy:           215.8611175
  heat_capacity:     120.3740364
  energy:             72.3314453

- temperature:       570.0000000
  free_energy:       -50.7200803
  entropy:           217.9929851
  heat_capacity:     120.5199091
  energy:             73.5359212

- temperature:       580.0000000
  free_energy:       -52.9105249
  entropy:           220.0902492
  heat_capacity:     120.6586344
  energy:             74.7418197

- temperature:       590.0000000
  free_energy:       -55.1217735
  entropy:           222.1539747
  heat_capacity:     120.7906668
  energy:             75.9490716

- temperature:       600.0000000
  free_energy:       -57.3534960
  entropy:           224.1851801
  heat_capacity:     120.9164250
  energy:             77.1576121

- temperature:       610.0000000
  free_energy:       -59.6053720
  entropy:           226.1848400
  heat_capacity:     121.0362964
  energy:             78.3673805

- temperature:       620.0000000
  free_energy:       -61.8770907
  entropy:           228.1538876
  heat_capacity:     121.1506389
  energy:             79.5783196

- temperature:       630.0000000
  free_energy:       -64.1683507
  entropy:           230.0932168
  heat_capacity:     121.2597841
  energy:             80.7903759

- temperature:       640.0000000
  free_energy:       -66.4788589
  entropy:           232.0036842
  heat_capacity:     121.3640393
  energy:             82.0034990

- temperature:       650.0000000
  free_energy:       -68.8083309
  entropy:           233.8861111
  heat_capacity:     121.4636895
  energy:             83.2176414

- temperature:       660.0000000
  free_energy:       -71.1564903
  entropy:           235.7412857
  heat_capacity:     121.5589997
  energy:             84.4327583

- temperature:       670.0000000
  free_energy:       -73.5230683
  entropy:           237.5699642
  heat_capacity:     121.6502160
  energy:             85.6488077

- temperature:       680.0000000
  free_energy:       -75.9078036
  entropy:           239.3728726
  heat_capacity:     121.7375677
  energy:             86.8657497

- temperature:       690.0000000
  free_energy:       -78.3104422
  entropy:           241.1507088
  heat_capacity:     121.8212682
  energy:             88.0835469

- temperature:       700.0000000
  free_energy:       -80.7307365
  entropy:           242.9041430
  heat_capacity:     121.9015166
  energy:             89.3021636

- temperature:       710.0000000
  free_energy:       -83.1684458
  entropy:           244.6338200
  heat_capacity:     121.9784988
  energy:             90.5215663

- temperature:       720.0000000
  free_energy:       -85.6233358
  entropy:           246.3403598
  heat_capacity:     122.0523882
  energy:             91.7417233

- temperature:       730.0000000
  free_energy:       -88.0951779
  entropy:           248.0243592
  heat_capacity:     122.1233473
  energy:             92.9626043

- temperature:       740.0000000
  free_energy:       -90.5837497
  entropy:           249.6863928
  heat_capacity:     122.1915277
  energy:             94.1841810

- temperature:       750.0000000
  free_energy:       -93.0888344
  entropy:           251.3270140
  heat_capacity:     122.2570717
  energy:             95.4064261

- temperature:       760.0000000
  free_energy:       -95.6102204
  entropy:           252.9467559
  heat_capacity:     122.3201127
  energy:             96.6293141

- temperature:       770.0000000
  free_energy:       -98.1477016
  entropy:           254.5461325
  heat_capacity:     122.3807756
  energy:             97.8528204

- temperature:       780.0000000
  free_energy:      -100.7010768
  entropy:           256.1256396
  heat_capacity:     122.4391777
  energy:             99.0769220

- temperature:       790.0000000
  free_energy:      -103.2701498
  entropy:           257.6857552
  heat_capacity:     122.4954295
  energy:            100.3015968

- temperature:       800.0000000
  free_energy:      -105.8547288
  entropy:           259.2269408
  heat_capacity:     122.5496344
  energy:            101.5268238

- temperature:       810.0000000
  free_energy:      -108.4546270
  entropy:           260.7496419
  heat_capacity:     122.6018901
  energy:            102.7525830

- temperature:       820.0000000
  free_energy:      -111.0696615
  entropy:           262.2542889
  heat_capacity:     122.6522884
  energy:            103.9788554

- temperature:       830.0000000
  free_energy:      -113.6996540
  entropy:           263.7412974
  heat_capacity:     122.7009157
  energy:            105.2056229

- temperature:       840.0000000
  free_energy:      -116.3444300
  entropy:           265.2110691
  heat_capacity:     122.7478537
  energy:            106.4328681

- temperature:       850.0000000
  free_energy:      -119.0038192
  entropy:           266.6639926
  heat_capacity:     122.7931793
  energy:            107.6605746

- temperature:       860.0000000
  free_energy:      -121.6776549
  entropy:           268.1004436
  heat_capacity:     122.8369651
  energy:            108.8887265

- temperature:       870.0000000
  free_energy:      -124.3657744
  entropy:           269.5207854
  heat_capacity:     122.8792797
  energy:            110.1173090

- temperature:       880.0000000
  free_energy:      -127.0680181
  entropy:           270.9253700
  heat_capacity:     122.9201880
  energy:            111.3463075

- temperature:       890.0000000
  free_energy:      -129.7842304
  entropy:           272.3145378
  heat_capacity:     122.9597512
  energy:            112.5757082

- temperature:       900.0000000
  free_energy:      -132.5142586
  entropy:           273.6886186
  heat_capacity:     122.9980276
  energy:            113.8054982

- temperature:       910.0000000
  free_energy:      -135.2579535
  entropy:           275.0479321
  heat_capacity:     123.0350720
  energy:            115.0356647

- temperature:       920.0000000
  free_energy:      -138.0151690
  entropy:           276.3927878
  heat_capacity:     123.0709364
  energy:            116.2661957

- temperature:       930.0000000
  free_energy:      -140.7857621
  entropy:           277.7234857
  heat_capacity:     123.1056703
  energy:            117.4970796

- temperature:       940.0000000
  free_energy:      -143.5695925
  entropy:           279.0403170
  heat_capacity:     123.1393205
  energy:            118.7283055

- temperature:       950.0000000
  free_energy:      -146.3665231
  entropy:           280.3435639
  heat_capacity:     123.1719313
  energy:            119.9598626

- temperature:       960.0000000
  free_energy:      -149.1764194
  entropy:           281.6335002
  heat_capacity:     123.2035451
  energy:            121.1917408

- temperature:       970.0000000
  free_energy:      -151.9991497
  entropy:           282.9103917
  heat_capacity:     123.2342018
  energy:            122.4239303

- temperature:       980.0000000
  free_energy:      -154.8345847
  entropy:           284.1744963
  heat_capacity:     123.2639396
  energy:            123.6564218

- temperature:       990.0000000
  free_energy:      -157.6825978
  entropy:           285.4260646
  heat_capacity:     123.2927946
  energy:            124.8892062

- temperature:      1000.0000000
  free_energy:      -160.5430650
  entropy:           286.6653398
  heat_capacity:     123.3208013
  energy:            126.1222748
