# Thermal properties / unit cell (natom)

unit:
  temperature:   K
  free_energy:   kJ/mol
  entropy:       J/K/mol
  heat_capacity: J/K/mol

natom: 4    
cutoff_frequency: 0.00000
num_modes: 210912
num_integrated_modes: 210910

zero_point_energy:      16.8903264

thermal_properties:
- temperature:         0.0000000
  free_energy:        16.8903264
  entropy:             0.0000000
  heat_capacity:       0.0000000
  energy:             16.8903264

- temperature:        10.0000000
  free_energy:        16.8895935
  entropy:             0.2662109
  heat_capacity:       0.7843699
  energy:             16.8922556

- temperature:        20.0000000
  free_energy:        16.8796464
  entropy:             2.0674642
  heat_capacity:       5.5713158
  energy:             16.9209957

- temperature:        30.0000000
  free_energy:        16.8428517
  entropy:             5.4606568
  heat_capacity:      11.4423806
  energy:             17.0066714

- temperature:        40.0000000
  free_energy:        16.7685006
  entropy:             9.4595099
  heat_capacity:      16.4898512
  energy:             17.1468810

- temperature:        50.0000000
  free_energy:        16.6530696
  entropy:            13.6455866
  heat_capacity:      21.1905318
  energy:             17.3353489

- temperature:        60.0000000
  free_energy:        16.4952774
  entropy:            17.9271576
  heat_capacity:      25.9453787
  energy:             17.5709069

- temperature:        70.0000000
  free_energy:        16.2942441
  entropy:            22.2934278
  heat_capacity:      30.8531870
  energy:             17.8547840

- temperature:        80.0000000
  free_energy:        16.0491431
  entropy:            26.7390385
  heat_capacity:      35.8478189
  energy:             18.1882662

- temperature:        90.0000000
  free_energy:        15.7592497
  entropy:            31.2484247
  heat_capacity:      40.8029205
  energy:             18.5716080

- temperature:       100.0000000
  free_energy:        15.4240425
  entropy:            35.7973223
  heat_capacity:      45.5941630
  energy:             19.0037747

- temperature:       110.0000000
  free_energy:        15.0432647
  entropy:            40.3578415
  heat_capacity:      50.1274511
  energy:             19.4826272

- temperature:       120.0000000
  free_energy:        14.6169381
  entropy:            44.9027452
  heat_capacity:      54.3449276
  energy:             20.0052675

- temperature:       130.0000000
  free_energy:        14.1453424
  entropy:            49.4079987
  heat_capacity:      58.2201139
  energy:             20.5683822

- temperature:       140.0000000
  free_energy:        13.6289766
  entropy:            53.8538528
  heat_capacity:      61.7496611
  energy:             21.1685160

- temperature:       150.0000000
  free_energy:        13.0685149
  entropy:            58.2249798
  heat_capacity:      64.9454178
  energy:             21.8022619

- temperature:       160.0000000
  free_energy:        12.4647641
  entropy:            62.5101023
  heat_capacity:      67.8281457
  energy:             22.4663804

- temperature:       170.0000000
  free_energy:        11.8186259
  entropy:            66.7014076
  heat_capacity:      70.4230404
  energy:             23.1578652

- temperature:       180.0000000
  free_energy:        11.1310655
  entropy:            70.7939181
  heat_capacity:      72.7567672
  energy:             23.8739707

- temperature:       190.0000000
  free_energy:        10.4030861
  entropy:            74.7849035
  heat_capacity:      74.8556273
  energy:             24.6122178

- temperature:       200.0000000
  free_energy:         9.6357093
  entropy:            78.6733714
  heat_capacity:      76.7445056
  energy:             25.3703836

- temperature:       210.0000000
  free_energy:         8.8299595
  entropy:            82.4596438
  heat_capacity:      78.4463364
  energy:             26.1464847

- temperature:       220.0000000
  free_energy:         7.9868528
  entropy:            86.1450158
  heat_capacity:      79.9818948
  energy:             26.9387563

- temperature:       230.0000000
  free_energy:         7.1073889
  entropy:            89.7314856
  heat_capacity:      81.3697845
  energy:             27.7456306

- temperature:       240.0000000
  free_energy:         6.1925445
  entropy:            93.2215440
  heat_capacity:      82.6265380
  energy:             28.5657151

- temperature:       250.0000000
  free_energy:         5.2432700
  entropy:            96.6180125
  heat_capacity:      83.7667738
  energy:             29.3977731

- temperature:       260.0000000
  free_energy:         4.2604862
  entropy:            99.9239198
  heat_capacity:      84.8033779
  energy:             30.2407053

- temperature:       270.0000000
  free_energy:         3.2450830
  entropy:           103.1424081
  heat_capacity:      85.7476893
  energy:             31.0935332

- temperature:       280.0000000
  free_energy:         2.1979188
  entropy:           106.2766644
  heat_capacity:      86.6096781
  energy:             31.9553848

- temperature:       290.0000000
  free_energy:         1.1198199
  entropy:           109.3298683
  heat_capacity:      87.3981107
  energy:             32.8254817

- temperature:       300.0000000
  free_energy:         0.0115811
  entropy:           112.3051551
  heat_capacity:      88.1206992
  energy:             33.7031276

- temperature:       310.0000000
  free_energy:        -1.1260337
  entropy:           115.2055892
  heat_capacity:      88.7842347
  energy:             34.5876989

- temperature:       320.0000000
  free_energy:        -2.2922911
  entropy:           118.0341457
  heat_capacity:      89.3947043
  energy:             35.4786355

- temperature:       330.0000000
  free_energy:        -3.4864866
  entropy:           120.7936983
  heat_capacity:      89.9573942
  energy:             36.3754338

- temperature:       340.0000000
  free_energy:        -4.7079443
  entropy:           123.4870119
  heat_capacity:      90.4769793
  energy:             37.2776398

- temperature:       350.0000000
  free_energy:        -5.9560149
  entropy:           126.1167386
  heat_capacity:      90.9576011
  energy:             38.1848436

- temperature:       360.0000000
  free_energy:        -7.2300756
  entropy:           128.6854161
  heat_capacity:      91.4029348
  energy:             39.0966742

- temperature:       370.0000000
  free_energy:        -8.5295279
  entropy:           131.1954687
  heat_capacity:      91.8162483
  energy:             40.0127956

- temperature:       380.0000000
  free_energy:        -9.8537972
  entropy:           133.6492090
  heat_capacity:      92.2004526
  energy:             40.9329022

- temperature:       390.0000000
  free_energy:       -11.2023317
  entropy:           136.0488409
  heat_capacity:      92.5581457
  energy:             41.8567163

- temperature:       400.0000000
  free_energy:       -12.5746007
  entropy:           138.3964630
  heat_capacity:      92.8916505
  energy:             42.7839845

- temperature:       410.0000000
  free_energy:       -13.9700943
  entropy:           140.6940728
  heat_capacity:      93.2030482
  energy:             43.7144756

- temperature:       420.0000000
  free_energy:       -15.3883218
  entropy:           142.9435710
  heat_capacity:      93.4942065
  energy:             44.6479780

- temperature:       430.0000000
  free_energy:       -16.8288113
  entropy:           145.1467657
  heat_capacity:      93.7668048
  energy:             45.5842979

- temperature:       440.0000000
  free_energy:       -18.2911085
  entropy:           147.3053769
  heat_capacity:      94.0223559
  energy:             46.5232573

- temperature:       450.0000000
  free_energy:       -19.7747757
  entropy:           149.4210411
  heat_capacity:      94.2622248
  energy:             47.4646928

- temperature:       460.0000000
  free_energy:       -21.2793914
  entropy:           151.4953153
  heat_capacity:      94.4876455
  energy:             48.4084537

- temperature:       470.0000000
  free_energy:       -22.8045490
  entropy:           153.5296814
  heat_capacity:      94.6997352
  energy:             49.3544012

- temperature:       480.0000000
  free_energy:       -24.3498567
  entropy:           155.5255500
  heat_capacity:      94.8995072
  energy:             50.3024073

- temperature:       490.0000000
  free_energy:       -25.9149362
  entropy:           157.4842644
  heat_capacity:      95.0878821
  energy:             51.2523534

- temperature:       500.0000000
  free_energy:       -27.4994224
  entropy:           159.4071043
  heat_capacity:      95.2656974
  energy:             52.2041298

- temperature:       510.0000000
  free_energy:       -29.1029628
  entropy:           161.2952891
  heat_capacity:      95.4337164
  energy:             53.1576347

- temperature:       520.0000000
  free_energy:       -30.7252165
  entropy:           163.1499814
  heat_capacity:      95.5926356
  energy:             54.1127738

- temperature:       530.0000000
  free_energy:       -32.3658544
  entropy:           164.9722899
  heat_capacity:      95.7430916
  energy:             55.0694592

- temperature:       540.0000000
  free_energy:       -34.0245579
  entropy:           166.7632727
  heat_capacity:      95.8856672
  energy:             56.0276093

- temperature:       550.0000000
  free_energy:       -35.7010188
  entropy:           168.5239398
  heat_capacity:      96.0208964
  energy:             56.9871481

- temperature:       560.0000000
  free_energy:       -37.3949389
  entropy:           170.2552559
  heat_capacity:      96.1492693
  energy:             57.9480044

- temperature:       570.0000000
  free_energy:       -39.1060292
  entropy:           171.9581426
  heat_capacity:      96.2712365
  energy:             58.9101121

- temperature:       580.0000000
  free_energy:       -40.8340099
  entropy:           173.6334812
  heat_capacity:      96.3872124
  energy:             59.8734092

- temperature:       590.0000000
  free_energy:       -42.5786098
  entropy:           175.2821144
  heat_capacity:      96.4975790
  energy:             60.8378377

- temperature:       600.0000000
  free_energy:       -44.3395659
  entropy:           176.9048485
  heat_capacity:      96.6026884
  energy:             61.8033432

- temperature:       610.0000000
  free_energy:       -46.1166230
  entropy:           178.5024558
  heat_capacity:      96.7028661
  energy:             62.7698750

- temperature:       620.0000000
  free_energy:       -47.9095337
  entropy:           180.0756755
  heat_capacity:      96.7984128
  energy:             63.7373851

- temperature:       630.0000000
  free_energy:       -49.7180576
  entropy:           181.6252164
  heat_capacity:      96.8896070
  energy:             64.7058287

- temperature:       640.0000000
  free_energy:       -51.5419614
  entropy:           183.1517578
  heat_capacity:      96.9767067
  energy:             65.6751636

- temperature:       650.0000000
  free_energy:       -53.3810183
  entropy:           184.6559512
  heat_capacity:      97.0599513
  energy:             66.6453500

- temperature:       660.0000000
  free_energy:       -55.2350080
  entropy:           186.1384220
  heat_capacity:      97.1395631
  energy:             67.6163505

- temperature:       670.0000000
  free_energy:       -57.1037163
  entropy:           187.5997704
  heat_capacity:      97.2157487
  energy:             68.5881299

- temperature:       680.0000000
  free_energy:       -58.9869349
  entropy:           189.0405730
  heat_capacity:      97.2887003
  energy:             69.5606547

- temperature:       690.0000000
  free_energy:       -60.8844611
  entropy:           190.4613838
  heat_capacity:      97.3585970
  energy:             70.5338937

- temperature:       700.0000000
  free_energy:       -62.7960977
  entropy:           191.8627354
  heat_capacity:      97.4256058
  energy:             71.5078170

- temperature:       710.0000000
  free_energy:       -64.7216527
  entropy:           193.2451400
  heat_capacity:      97.4898825
  energy:             72.4823967

- temperature:       720.0000000
  free_energy:       -66.6609390
  entropy:           194.6090904
  heat_capacity:      97.5515725
  energy:             73.4576061

- temperature:       730.0000000
  free_energy:       -68.6137746
  entropy:           195.9550610
  heat_capacity:      97.6108119
  energy:             74.4334200

- temperature:       740.0000000
  free_energy:       -70.5799818
  entropy:           197.2835087
  heat_capacity:      97.6677278
  energy:             75.4098146

- temperature:       750.0000000
  free_energy:       -72.5593878
  entropy:           198.5948733
  heat_capacity:      97.7224395
  energy:             76.3867672

- temperature:       760.0000000
  free_energy:       -74.5518238
  entropy:           199.8895792
  heat_capacity:      97.7750585
  energy:             77.3642564

- temperature:       770.0000000
  free_energy:       -76.5571252
  entropy:           201.1680350
  heat_capacity:      97.8256897
  energy:             78.3422617

- temperature:       780.0000000
  free_energy:       -78.5751316
  entropy:           202.4306353
  heat_capacity:      97.8744313
  energy:             79.3207639

- temperature:       790.0000000
  free_energy:       -80.6056863
  entropy:           203.6777604
  heat_capacity:      97.9213756
  energy:             80.2997444

- temperature:       800.0000000
  free_energy:       -82.6486365
  entropy:           204.9097777
  heat_capacity:      97.9666094
  energy:             81.2791857

- temperature:       810.0000000
  free_energy:       -84.7038327
  entropy:           206.1270418
  heat_capacity:      98.0102144
  energy:             82.2590711

- temperature:       820.0000000
  free_energy:       -86.7711293
  entropy:           207.3298952
  heat_capacity:      98.0522674
  energy:             83.2393848

- temperature:       830.0000000
  free_energy:       -88.8503837
  entropy:           208.5186690
  heat_capacity:      98.0928408
  energy:             84.2201116

- temperature:       840.0000000
  free_energy:       -90.9414568
  entropy:           209.6936830
  heat_capacity:      98.1320029
  energy:             85.2012369

- temperature:       850.0000000
  free_energy:       -93.0442125
  entropy:           210.8552466
  heat_capacity:      98.1698180
  energy:             86.1827471

- temperature:       860.0000000
  free_energy:       -95.1585179
  entropy:           212.0036592
  heat_capacity:      98.2063470
  energy:             87.1646290

- temperature:       870.0000000
  free_energy:       -97.2842428
  entropy:           213.1392101
  heat_capacity:      98.2416471
  energy:             88.1468700

- temperature:       880.0000000
  free_energy:       -99.4212602
  entropy:           214.2621797
  heat_capacity:      98.2757727
  energy:             89.1294580

- temperature:       890.0000000
  free_energy:      -101.5694454
  entropy:           215.3728394
  heat_capacity:      98.3087750
  energy:             90.1123817

- temperature:       900.0000000
  free_energy:      -103.7286768
  entropy:           216.4714519
  heat_capacity:      98.3407027
  energy:             91.0956299

- temperature:       910.0000000
  free_energy:      -105.8988351
  entropy:           217.5582719
  heat_capacity:      98.3716016
  energy:             92.0791923

- temperature:       920.0000000
  free_energy:      -108.0798037
  entropy:           218.6335461
  heat_capacity:      98.4015153
  energy:             93.0630587

- temperature:       930.0000000
  free_energy:      -110.2714684
  entropy:           219.6975138
  heat_capacity:      98.4304850
  energy:             94.0472195

- temperature:       940.0000000
  free_energy:      -112.4737171
  entropy:           220.7504069
  heat_capacity:      98.4585500
  energy:             95.0316654

- temperature:       950.0000000
  free_energy:      -114.6864403
  entropy:           221.7924504
  heat_capacity:      98.4857472
  energy:             96.0163876

- temperature:       960.0000000
  free_energy:      -116.9095307
  entropy:           222.8238627
  heat_capacity:      98.5121121
  energy:             97.0013775

- temperature:       970.0000000
  free_energy:      -119.1428829
  entropy:           223.8448557
  heat_capacity:      98.5376781
  energy:             97.9866271

- temperature:       980.0000000
  free_energy:      -121.3863937
  entropy:           224.8556350
  heat_capacity:      98.5624770
  energy:             98.9721285

- temperature:       990.0000000
  free_energy:      -123.6399622
  entropy:           225.8564004
  heat_capacity:      98.5865392
  energy:             99.9578742

- temperature:      1000.0000000
  free_energy:      -125.9034890
  entropy:           226.8473460
  heat_capacity:      98.6098933
  energy:            100.9438570
