# Tetrahedron method
       -1.1858255892        0.0000000000
       -1.1146760604        0.0000000000
       -1.0435265315        0.0000000000
       -0.9723770027        0.0000000000
       -0.9012274738        0.0000000000
       -0.8300779450        0.0000000000
       -0.7589284161        0.0000000000
       -0.6877788873        0.0000000000
       -0.6166293584        0.0000000000
       -0.5454798296        0.0000000000
       -0.4743303008        0.0000000000
       -0.4031807719        0.0000000000
       -0.3320312431        0.0000000000
       -0.2608817142        0.0000000000
       -0.1897321854        0.0000000000
       -0.1185826565        0.0000000000
       -0.0474331277        0.0000000000
        0.0237164012        0.0000681731
        0.0948659300        0.0010907704
        0.1660154589        0.0093894683
        0.2371649877        0.0215872021
        0.3083145165        0.0404424987
        0.3794640454        0.0591214835
        0.4506135742        0.0798217748
        0.5217631031        0.1021368949
        0.5929126319        0.1267300952
        0.6640621608        0.1539042899
        0.7352116896        0.1823580412
        0.8063612185        0.2211943350
        0.8775107473        0.2587002301
        0.9486602761        0.3060746346
        1.0198098050        0.3503452187
        1.0909593338        0.4157012428
        1.1621088627        0.4832810953
        1.2332583915        0.5663466850
        1.3044079204        0.6601216646
        1.3755574492        0.7769409292
        1.4467069781        0.9336231294
        1.5178565069        1.1250321895
        1.5890060357        1.4087656299
        1.6601555646        1.9179884108
        1.7313050934        2.3128434947
        1.8024546223        3.0148814958
        1.8736041511        2.4492802505
        1.9447536800        2.8146338771
        2.0159032088        2.2142122225
        2.0870527377        1.8534961804
        2.1582022665        1.5094173606
        2.2293517954        1.2367458215
        2.3005013242        1.0175419091
        2.3716508530        0.7468648065
        2.4428003819        0.6942918283
        2.5139499107        0.6886936852
        2.5850994396        1.0976305243
        2.6562489684        2.1244934460
        2.7273984973        2.5099280798
        2.7985480261        1.7347238552
        2.8696975550        1.2970993437
        2.9408470838        1.0141308288
        3.0119966126        0.7640489994
        3.0831461415        0.4452747655
        3.1542956703        0.2829628184
        3.2254451992        0.0074879184
        3.2965947280        0.0000000000
        3.3677442569        0.0000000000
        3.4388937857        0.0000000000
        3.5100433146        0.0000000000
        3.5811928434        0.0000000000
        3.6523423723        0.0000000000
        3.7234919011        0.0000000000
        3.7946414299        0.0000000000
        3.8657909588        0.0000000000
        3.9369404876        0.0000000000
        4.0080900165        0.0000000000
        4.0792395453        0.0000000000
        4.1503890742        0.0000000000
        4.2215386030        0.0000000000
        4.2926881319        0.0000000000
        4.3638376607        0.0000000000
        4.4349871895        0.0000000000
        4.5061367184        0.0000000000
        4.5772862472        0.0000000000
        4.6484357761        0.0000000000
        4.7195853049        0.0000000000
        4.7907348338        0.0000000000
        4.8618843626        0.0000000000
        4.9330338915        0.0000000000
        5.0041834203        0.0000000000
        5.0753329492        0.0000000000
        5.1464824780        0.0000000000
        5.2176320068        0.1507761758
        5.2887815357        0.5323593019
        5.3599310645        0.9979572726
        5.4310805934        1.7296556138
        5.5022301222        2.4398988482
        5.5733796511        2.6991898808
        5.6445291799        2.9041885358
        5.7156787088        2.6197172995
        5.7868282376        3.7061972412
        5.8579777664        3.3976460107
        5.9291272953        2.7137923903
        6.0002768241        2.1714059704
        6.0714263530        2.8242053599
        6.1425758818        3.3821456773
        6.2137254107        2.7583468702
        6.2848749395        3.2381821287
        6.3560244684        1.3746053915
        6.4271739972        0.9804763292
        6.4983235261        0.6832585931
        6.5694730549        0.5310627103
        6.6406225837        0.4189692378
        6.7117721126        0.3251967351
        6.7829216414        0.2479140710
        6.8540711703        0.1850128181
        6.9252206991        0.1369465739
        6.9963702280        0.0949117716
        7.0675197568        0.0619614463
        7.1386692857        0.0318047673
        7.2098188145        0.0000000000
        7.2809683433        0.0000000000
        7.3521178722        0.0000000000
        7.4232674010        0.0000000000
        7.4944169299        0.0000000000
        7.5655664587        0.0000000000
        7.6367159876        0.0000000000
        7.7078655164        0.0000000000
        7.7790150453        0.0000000000
        7.8501645741        0.0000000000
        7.9213141029        0.0000000000
        7.9924636318        0.0000000000
        8.0636131606        0.0000000000
        8.1347626895        0.0000000000
        8.2059122183        0.0000000000
        8.2770617472        0.0000000000
        8.3482112760        0.0000000000
        8.4193608049        0.0000000000
        8.4905103337        0.0000000000
        8.5616598626        0.0000000000
        8.6328093914        0.0000000000
        8.7039589202        0.0000000000
        8.7751084491        0.0000000000
        8.8462579779        0.0000000000
        8.9174075068        0.0000000000
        8.9885570356        0.3414603364
        9.0597065645        1.5780896911
        9.1308560933        2.7425862891
        9.2020056222        3.0547329215
        9.2731551510        2.6375172127
        9.3443046798        5.0124416617
        9.4154542087        6.6408714126
        9.4866037375        3.4551349841
        9.5577532664        3.0296574586
        9.6289027952        2.7910982946
        9.7000523241        2.2311289523
        9.7712018529        2.0755125418
        9.8423513818        1.8214028101
        9.9135009106        1.8005762789
        9.9846504395        1.7811143095
       10.0557999683        1.9351121885
       10.1269494971        1.8455817841
       10.1980990260        2.1659989418
       10.2692485548        1.4044684849
       10.3403980837        1.5630258790
       10.4115476125        2.3877530093
       10.4826971414        2.9197666387
       10.5538466702        3.5169151248
       10.6249961991        3.8800615575
       10.6961457279        3.8912372089
       10.7672952567        4.2609180939
       10.8384447856        2.0216834830
       10.9095943144        2.0930197881
       10.9807438433        1.5902247926
       11.0518933721        1.3631973202
       11.1230429010        1.2070059082
       11.1941924298        1.0693648996
       11.2653419587        0.9542140491
       11.3364914875        0.8424318220
       11.4076410164        0.7442438164
       11.4787905452        0.6518039378
       11.5499400740        0.5637024649
       11.6210896029        0.4697866966
       11.6922391317        0.3742499962
       11.7633886606        0.2708074823
       11.8345381894        0.1073864480
       11.9056877183        0.0000000000
       11.9768372471        0.0000000000
       12.0479867760        0.0000000000
       12.1191363048        0.0000000000
       12.1902858336        0.0000000000
       12.2614353625        0.0000000000
       12.3325848913        0.0000000000
       12.4037344202        0.0000000000
       12.4748839490        0.0000000000
       12.5460334779        0.0000000000
       12.6171830067        0.0000000000
       12.6883325356        0.0000000000
       12.7594820644        0.0000000000
       12.8306315932        0.0000000000
       12.9017811221        0.0000000000
       12.9729306509        0.0000000000
       13.0440801798        0.0000000000
