# Thermal properties / unit cell (natom)

unit:
  temperature:   K
  free_energy:   kJ/mol
  entropy:       J/K/mol
  heat_capacity: J/K/mol

natom: 10   
cutoff_frequency: 0.00000
num_modes: 146160
num_integrated_modes: 146159

zero_point_energy:      31.9063624

thermal_properties:
- temperature:         0.0000000
  free_energy:        31.9063624
  entropy:             0.0000000
  heat_capacity:       0.0000000
  energy:             31.9063624

- temperature:        10.0000000
  free_energy:        31.9023065
  entropy:             1.5443009
  heat_capacity:       4.7428602
  energy:             31.9177495

- temperature:        20.0000000
  free_energy:        31.8448304
  entropy:            11.7635253
  heat_capacity:      30.6454809
  energy:             32.0801009

- temperature:        30.0000000
  free_energy:        31.6400004
  entropy:            29.9680877
  heat_capacity:      59.9533614
  energy:             32.5390430

- temperature:        40.0000000
  free_energy:        31.2389866
  entropy:            50.2601842
  heat_capacity:      80.7638101
  energy:             33.2493940

- temperature:        50.0000000
  free_energy:        30.6370521
  entropy:            69.9426702
  heat_capacity:      95.5235181
  energy:             34.1341856

- temperature:        60.0000000
  free_energy:        29.8440922
  entropy:            88.4561608
  heat_capacity:     107.6960024
  energy:             35.1514618

- temperature:        70.0000000
  free_energy:        28.8714552
  entropy:           105.9134828
  heat_capacity:     119.0150296
  energy:             36.2853990

- temperature:        80.0000000
  free_energy:        27.7286366
  entropy:           122.5243373
  heat_capacity:     129.9640781
  energy:             37.5305836

- temperature:        90.0000000
  free_energy:        26.4232626
  entropy:           138.4447375
  heat_capacity:     140.4924466
  energy:             38.8832890

- temperature:       100.0000000
  free_energy:        24.9617308
  entropy:           153.7670540
  heat_capacity:     150.4235278
  energy:             40.3384362

- temperature:       110.0000000
  free_energy:        23.3497461
  entropy:           168.5412745
  heat_capacity:     159.6151771
  energy:             41.8892863

- temperature:       120.0000000
  free_energy:        21.5926395
  entropy:           182.7949344
  heat_capacity:     167.9964877
  energy:             43.5280316

- temperature:       130.0000000
  free_energy:        19.6955230
  entropy:           196.5458251
  heat_capacity:     175.5584498
  energy:             45.2464803

- temperature:       140.0000000
  free_energy:        17.6633496
  entropy:           209.8087619
  heat_capacity:     182.3338591
  energy:             47.0365762

- temperature:       150.0000000
  free_energy:        15.5009248
  entropy:           222.5986544
  heat_capacity:     188.3792359
  energy:             48.8907229

- temperature:       160.0000000
  free_energy:        13.2128999
  entropy:           234.9315720
  heat_capacity:     193.7618097
  energy:             50.8019514

- temperature:       170.0000000
  free_energy:        10.8037589
  entropy:           246.8248424
  heat_capacity:     198.5511975
  energy:             52.7639821

- temperature:       180.0000000
  free_energy:         8.2778076
  entropy:           258.2967493
  heat_capacity:     202.8145619
  energy:             54.7712225

- temperature:       190.0000000
  free_energy:         5.6391657
  entropy:           269.3661168
  heat_capacity:     206.6140904
  energy:             56.8187279

- temperature:       200.0000000
  free_energy:         2.8917638
  entropy:           280.0519109
  heat_capacity:     210.0059210
  energy:             58.9021460

- temperature:       210.0000000
  free_energy:         0.0393435
  entropy:           290.3729085
  heat_capacity:     213.0399215
  energy:             61.0176543

- temperature:       220.0000000
  free_energy:        -2.9145395
  entropy:           300.3474453
  heat_capacity:     215.7599354
  energy:             63.1618984

- temperature:       230.0000000
  free_energy:        -5.9665097
  entropy:           309.9932359
  heat_capacity:     218.2042627
  energy:             65.3319346

- temperature:       240.0000000
  free_energy:        -9.1133651
  entropy:           319.3272559
  heat_capacity:     220.4062324
  energy:             67.5251763

- temperature:       250.0000000
  free_energy:       -12.3520696
  entropy:           328.3656713
  heat_capacity:     222.3947895
  energy:             69.7393483

- temperature:       260.0000000
  free_energy:       -15.6797444
  entropy:           337.1238046
  heat_capacity:     224.1950543
  energy:             71.9724448

- temperature:       270.0000000
  free_energy:       -19.0936597
  entropy:           345.6161275
  heat_capacity:     225.8288315
  energy:             74.2226947

- temperature:       280.0000000
  free_energy:       -22.5912264
  entropy:           353.8562726
  heat_capacity:     227.3150646
  energy:             76.4885299

- temperature:       290.0000000
  free_energy:       -26.1699874
  entropy:           361.8570577
  heat_capacity:     228.6702337
  energy:             78.7685593

- temperature:       300.0000000
  free_energy:       -29.8276099
  entropy:           369.6305189
  heat_capacity:     229.9086993
  energy:             81.0615458

- temperature:       310.0000000
  free_energy:       -33.5618777
  entropy:           377.1879485
  heat_capacity:     231.0429998
  energy:             83.3663863

- temperature:       320.0000000
  free_energy:       -37.3706841
  entropy:           384.5399356
  heat_capacity:     232.0841048
  energy:             85.6820953

- temperature:       330.0000000
  free_energy:       -41.2520248
  entropy:           391.6964083
  heat_capacity:     233.0416326
  energy:             88.0077899

- temperature:       340.0000000
  free_energy:       -45.2039917
  entropy:           398.6666744
  heat_capacity:     233.9240360
  energy:             90.3426776

- temperature:       350.0000000
  free_energy:       -49.2247668
  entropy:           405.4594626
  heat_capacity:     234.7387602
  energy:             92.6860451

- temperature:       360.0000000
  free_energy:       -53.3126167
  entropy:           412.0829608
  heat_capacity:     235.4923784
  energy:             95.0372492

- temperature:       370.0000000
  free_energy:       -57.4658873
  entropy:           418.5448536
  heat_capacity:     236.1907068
  energy:             97.3957085

- temperature:       380.0000000
  free_energy:       -61.6829992
  entropy:           424.8523565
  heat_capacity:     236.8389037
  energy:             99.7608963

- temperature:       390.0000000
  free_energy:       -65.9624425
  entropy:           431.0122494
  heat_capacity:     237.4415542
  energy:            102.1323348

- temperature:       400.0000000
  free_energy:       -70.3027734
  entropy:           437.0309066
  heat_capacity:     238.0027430
  energy:            104.5095892

- temperature:       410.0000000
  free_energy:       -74.7026099
  entropy:           442.9143256
  heat_capacity:     238.5261164
  energy:            106.8922636

- temperature:       420.0000000
  free_energy:       -79.1606280
  entropy:           448.6681534
  heat_capacity:     239.0149369
  energy:            109.2799964

- temperature:       430.0000000
  free_energy:       -83.6755587
  entropy:           454.2977110
  heat_capacity:     239.4721290
  energy:            111.6724570

- temperature:       440.0000000
  free_energy:       -88.2461847
  entropy:           459.8080162
  heat_capacity:     239.9003198
  energy:            114.0693424

- temperature:       450.0000000
  free_energy:       -92.8713374
  entropy:           465.2038044
  heat_capacity:     240.3018739
  energy:            116.4703746

- temperature:       460.0000000
  free_energy:       -97.5498940
  entropy:           470.4895483
  heat_capacity:     240.6789235
  energy:            118.8752982

- temperature:       470.0000000
  free_energy:      -102.2807756
  entropy:           475.6694755
  heat_capacity:     241.0333949
  energy:            121.2838778

- temperature:       480.0000000
  free_energy:      -107.0629442
  entropy:           480.7475851
  heat_capacity:     241.3670315
  energy:            123.6958967

- temperature:       490.0000000
  free_energy:      -111.8954006
  entropy:           485.7276631
  heat_capacity:     241.6814141
  energy:            126.1111543

- temperature:       500.0000000
  free_energy:      -116.7771826
  entropy:           490.6132964
  heat_capacity:     241.9779781
  energy:            128.5294656

- temperature:       510.0000000
  free_energy:      -121.7073631
  entropy:           495.4078861
  heat_capacity:     242.2580295
  energy:            130.9506588

- temperature:       520.0000000
  free_energy:      -126.6850477
  entropy:           500.1146591
  heat_capacity:     242.5227580
  energy:            133.3745751

- temperature:       530.0000000
  free_energy:      -131.7093737
  entropy:           504.7366798
  heat_capacity:     242.7732495
  energy:            135.8010666

- temperature:       540.0000000
  free_energy:      -136.7795085
  entropy:           509.2768600
  heat_capacity:     243.0104964
  energy:            138.2299959

- temperature:       550.0000000
  free_energy:      -141.8946474
  entropy:           513.7379687
  heat_capacity:     243.2354069
  energy:            140.6612354

- temperature:       560.0000000
  free_energy:      -147.0540131
  entropy:           518.1226407
  heat_capacity:     243.4488135
  energy:            143.0946657

- temperature:       570.0000000
  free_energy:      -152.2568538
  entropy:           522.4333853
  heat_capacity:     243.6514805
  energy:            145.5301759

- temperature:       580.0000000
  free_energy:      -157.5024423
  entropy:           526.6725935
  heat_capacity:     243.8441102
  energy:            147.9676619

- temperature:       590.0000000
  free_energy:      -162.7900748
  entropy:           530.8425451
  heat_capacity:     244.0273490
  energy:            150.4070268

- temperature:       600.0000000
  free_energy:      -168.1190696
  entropy:           534.9454153
  heat_capacity:     244.2017924
  energy:            152.8481796

- temperature:       610.0000000
  free_energy:      -173.4887665
  entropy:           538.9832813
  heat_capacity:     244.3679900
  energy:            155.2910351

- temperature:       620.0000000
  free_energy:      -178.8985252
  entropy:           542.9581271
  heat_capacity:     244.5264494
  energy:            157.7355136

- temperature:       630.0000000
  free_energy:      -184.3477253
  entropy:           546.8718494
  heat_capacity:     244.6776401
  energy:            160.1815399

- temperature:       640.0000000
  free_energy:      -189.8357645
  entropy:           550.7262627
  heat_capacity:     244.8219968
  energy:            162.6290436

- temperature:       650.0000000
  free_energy:      -195.3620586
  entropy:           554.5231031
  heat_capacity:     244.9599223
  energy:            165.0779584

- temperature:       660.0000000
  free_energy:      -200.9260402
  entropy:           558.2640334
  heat_capacity:     245.0917905
  energy:            167.5282219

- temperature:       670.0000000
  free_energy:      -206.5271582
  entropy:           561.9506469
  heat_capacity:     245.2179486
  energy:            169.9797752

- temperature:       680.0000000
  free_energy:      -212.1648772
  entropy:           565.5844707
  heat_capacity:     245.3387194
  energy:            172.4325629

- temperature:       690.0000000
  free_energy:      -217.8386766
  entropy:           569.1669698
  heat_capacity:     245.4544036
  energy:            174.8865326

- temperature:       700.0000000
  free_energy:      -223.5480502
  entropy:           572.6995502
  heat_capacity:     245.5652811
  energy:            177.3416349

- temperature:       710.0000000
  free_energy:      -229.2925057
  entropy:           576.1835616
  heat_capacity:     245.6716130
  energy:            179.7978231

- temperature:       720.0000000
  free_energy:      -235.0715639
  entropy:           579.6203010
  heat_capacity:     245.7736431
  energy:            182.2550528

- temperature:       730.0000000
  free_energy:      -240.8847583
  entropy:           583.0110146
  heat_capacity:     245.8715989
  energy:            184.7132824

- temperature:       740.0000000
  free_energy:      -246.7316347
  entropy:           586.3569009
  heat_capacity:     245.9656935
  energy:            187.1724720

- temperature:       750.0000000
  free_energy:      -252.6117507
  entropy:           589.6591130
  heat_capacity:     246.0561261
  energy:            189.6325840

- temperature:       760.0000000
  free_energy:      -258.5246751
  entropy:           592.9187605
  heat_capacity:     246.1430832
  energy:            192.0935829

- temperature:       770.0000000
  free_energy:      -264.4699876
  entropy:           596.1369121
  heat_capacity:     246.2267400
  energy:            194.5554347

- temperature:       780.0000000
  free_energy:      -270.4472785
  entropy:           599.3145971
  heat_capacity:     246.3072604
  energy:            197.0181072

- temperature:       790.0000000
  free_energy:      -276.4561480
  entropy:           602.4528075
  heat_capacity:     246.3847986
  energy:            199.4815700

- temperature:       800.0000000
  free_energy:      -282.4962062
  entropy:           605.5525000
  heat_capacity:     246.4594994
  energy:            201.9457938

- temperature:       810.0000000
  free_energy:      -288.5670727
  entropy:           608.6145971
  heat_capacity:     246.5314989
  energy:            204.4107509

- temperature:       820.0000000
  free_energy:      -294.6683758
  entropy:           611.6399890
  heat_capacity:     246.6009254
  energy:            206.8764152

- temperature:       830.0000000
  free_energy:      -300.7997530
  entropy:           614.6295352
  heat_capacity:     246.6678993
  energy:            209.3427613

- temperature:       840.0000000
  free_energy:      -306.9608498
  entropy:           617.5840657
  heat_capacity:     246.7325345
  energy:            211.8097654

- temperature:       850.0000000
  free_energy:      -313.1513202
  entropy:           620.5043821
  heat_capacity:     246.7949381
  energy:            214.2774045

- temperature:       860.0000000
  free_energy:      -319.3708260
  entropy:           623.3912593
  heat_capacity:     246.8552113
  energy:            216.7456570

- temperature:       870.0000000
  free_energy:      -325.6190365
  entropy:           626.2454465
  heat_capacity:     246.9134496
  energy:            219.2145020

- temperature:       880.0000000
  free_energy:      -331.8956284
  entropy:           629.0676681
  heat_capacity:     246.9697432
  energy:            221.6839195

- temperature:       890.0000000
  free_energy:      -338.2002856
  entropy:           631.8586250
  heat_capacity:     247.0241774
  energy:            224.1538906

- temperature:       900.0000000
  free_energy:      -344.5326989
  entropy:           634.6189956
  heat_capacity:     247.0768330
  energy:            226.6243971

- temperature:       910.0000000
  free_energy:      -350.8925658
  entropy:           637.3494367
  heat_capacity:     247.1277862
  energy:            229.0954216

- temperature:       920.0000000
  free_energy:      -357.2795900
  entropy:           640.0505842
  heat_capacity:     247.1771096
  energy:            231.5669474

- temperature:       930.0000000
  free_energy:      -363.6934819
  entropy:           642.7230543
  heat_capacity:     247.2248716
  energy:            234.0389586

- temperature:       940.0000000
  free_energy:      -370.1339575
  entropy:           645.3674440
  heat_capacity:     247.2711372
  energy:            236.5114399

- temperature:       950.0000000
  free_energy:      -376.6007391
  entropy:           647.9843323
  heat_capacity:     247.3159680
  energy:            238.9843766

- temperature:       960.0000000
  free_energy:      -383.0935544
  entropy:           650.5742802
  heat_capacity:     247.3594227
  energy:            241.4577547

- temperature:       970.0000000
  free_energy:      -389.6121367
  entropy:           653.1378323
  heat_capacity:     247.4015568
  energy:            243.9315606

- temperature:       980.0000000
  free_energy:      -396.1562248
  entropy:           655.6755167
  heat_capacity:     247.4424230
  energy:            246.4057816

- temperature:       990.0000000
  free_energy:      -402.7255625
  entropy:           658.1878460
  heat_capacity:     247.4820717
  energy:            248.8804050

- temperature:      1000.0000000
  free_energy:      -409.3198988
  entropy:           660.6753179
  heat_capacity:     247.5205505
  energy:            251.3554191
