phonopy:
  version: "2.37.1"
  frequency_unit_conversion_factor: 15.633302
  symmetry_tolerance: 1.00000e-05

space_group:
  type: "Fm-3m"
  number: 225
  Hall_symbol: "-F 4 2 3"

primitive_matrix:
- [  0.000000000000000,  0.500000000000000,  0.500000000000000 ]
- [  0.500000000000000,  0.000000000000000,  0.500000000000000 ]
- [  0.500000000000000,  0.500000000000000,  0.000000000000000 ]

supercell_matrix:
- [   2,   0,   0 ]
- [   0,   2,   0 ]
- [   0,   0,   2 ]

primitive_cell:
  lattice:
  - [     0.000000009915772,     3.290428345524137,     3.290428411026772 ] # a
  - [     3.290428557499026,    -0.000000061283620,     3.290428411026772 ] # b
  - [     3.290428465248501,     3.290428406807757,     0.000000000000000 ] # c
  points:
  - symbol: Li # 1
    coordinates: [  0.249999999209527,  0.250000002422519,  0.250000000584661 ]
    mass: 6.940000
  - symbol: Li # 2
    coordinates: [  0.750000001717491,  0.749999999152596,  0.750000001720732 ]
    mass: 6.940000
  - symbol: Li # 3
    coordinates: [  0.500000000038022,  0.499999998913154,  0.500000000350622 ]
    mass: 6.940000
  - symbol: Sn # 4
    coordinates: [  0.999999996095441,  0.999999996852798,  0.000000002311823 ]
    mass: 118.710000
  reciprocal_lattice: # without 2pi
  - [    -0.151955892378476,     0.151955895077339,     0.151955901972889 ] # a*
  - [     0.151955892378476,    -0.151955895077339,     0.151955891594427 ] # b*
  - [     0.151955892378476,     0.151955898879655,    -0.151955896312588 ] # c*

unit_cell:
  lattice:
  - [     6.580857012831755,     0.000000000000000,     0.000000000000000 ] # a
  - [    -0.000000082334752,     6.580856813615513,     0.000000000000000 ] # b
  - [     0.000000102166296,    -0.000000122567239,     6.580856822053544 ] # c
  points:
  - symbol: Li # 1
    coordinates: [  0.250000001503590,  0.249999999897094,  0.250000000816023 ]
    mass: 6.940000
    reduced_to: 1
  - symbol: Li # 2
    coordinates: [  0.750000000436664,  0.750000001719112,  0.750000000435043 ]
    mass: 6.940000
    reduced_to: 2
  - symbol: Li # 3
    coordinates: [  0.749999999798196,  0.250000000290582,  0.250000000822516 ]
    mass: 6.940000
    reduced_to: 2
  - symbol: Li # 4
    coordinates: [  0.249999999897330,  0.750000002460693,  0.750000001303082 ]
    mass: 6.940000
    reduced_to: 1
  - symbol: Li # 5
    coordinates: [  0.749999998972351,  0.750000001239384,  0.250000000264935 ]
    mass: 6.940000
    reduced_to: 1
  - symbol: Li # 6
    coordinates: [  0.250000000119768,  0.250000000349737,  0.750000000011806 ]
    mass: 6.940000
    reduced_to: 2
  - symbol: Li # 7
    coordinates: [  0.250000001643798,  0.749999999975550,  0.250000001375930 ]
    mass: 6.940000
    reduced_to: 2
  - symbol: Li # 8
    coordinates: [  0.750000001172079,  0.250000000222406,  0.750000000436339 ]
    mass: 6.940000
    reduced_to: 1
  - symbol: Li # 9
    coordinates: [  0.999999999631888,  0.000000000194322,  0.499999999475588 ]
    mass: 6.940000
    reduced_to: 9
  - symbol: Li # 10
    coordinates: [  0.500000000526249,  0.999999999440248,  0.999999999980575 ]
    mass: 6.940000
    reduced_to: 9
  - symbol: Li # 11
    coordinates: [  0.999999999968693,  0.499999999236558,  0.999999998802631 ]
    mass: 6.940000
    reduced_to: 9
  - symbol: Li # 12
    coordinates: [  0.500000000073049,  0.499999998863497,  0.499999998524536 ]
    mass: 6.940000
    reduced_to: 9
  - symbol: Sn # 13
    coordinates: [  0.999999999582310,  0.999999999203632,  0.999999996474119 ]
    mass: 118.710000
    reduced_to: 13
  - symbol: Sn # 14
    coordinates: [  0.499999999665717,  0.499999999054108,  0.000000001980775 ]
    mass: 118.710000
    reduced_to: 13
  - symbol: Sn # 15
    coordinates: [  0.499999998307518,  0.999999999123600,  0.500000000069290 ]
    mass: 118.710000
    reduced_to: 13
  - symbol: Sn # 16
    coordinates: [  0.999999998955140,  0.499999998709196,  0.499999999187325 ]
    mass: 118.710000
    reduced_to: 13

supercell:
  lattice:
  - [    13.161714025663510,     0.000000000000000,     0.000000000000000 ] # a
  - [    -0.000000164669504,    13.161713627231027,     0.000000000000000 ] # b
  - [     0.000000204332591,    -0.000000245134479,    13.161713644107088 ] # c
  points:
  - symbol: Li # 1
    coordinates: [  0.125000000751795,  0.124999999948547,  0.125000000408012 ]
    mass: 6.940000
    reduced_to: 1
  - symbol: Li # 2
    coordinates: [  0.625000000751795,  0.124999999948547,  0.125000000408012 ]
    mass: 6.940000
    reduced_to: 1
  - symbol: Li # 3
    coordinates: [  0.125000000751795,  0.624999999948547,  0.125000000408012 ]
    mass: 6.940000
    reduced_to: 1
  - symbol: Li # 4
    coordinates: [  0.625000000751795,  0.624999999948547,  0.125000000408012 ]
    mass: 6.940000
    reduced_to: 1
  - symbol: Li # 5
    coordinates: [  0.125000000751795,  0.124999999948547,  0.625000000408012 ]
    mass: 6.940000
    reduced_to: 1
  - symbol: Li # 6
    coordinates: [  0.625000000751795,  0.124999999948547,  0.625000000408012 ]
    mass: 6.940000
    reduced_to: 1
  - symbol: Li # 7
    coordinates: [  0.125000000751795,  0.624999999948547,  0.625000000408012 ]
    mass: 6.940000
    reduced_to: 1
  - symbol: Li # 8
    coordinates: [  0.625000000751795,  0.624999999948547,  0.625000000408012 ]
    mass: 6.940000
    reduced_to: 1
  - symbol: Li # 9
    coordinates: [  0.375000000218332,  0.375000000859556,  0.375000000217522 ]
    mass: 6.940000
    reduced_to: 9
  - symbol: Li # 10
    coordinates: [  0.875000000218332,  0.375000000859556,  0.375000000217522 ]
    mass: 6.940000
    reduced_to: 9
  - symbol: Li # 11
    coordinates: [  0.375000000218332,  0.875000000859556,  0.375000000217522 ]
    mass: 6.940000
    reduced_to: 9
  - symbol: Li # 12
    coordinates: [  0.875000000218332,  0.875000000859556,  0.375000000217522 ]
    mass: 6.940000
    reduced_to: 9
  - symbol: Li # 13
    coordinates: [  0.375000000218332,  0.375000000859556,  0.875000000217522 ]
    mass: 6.940000
    reduced_to: 9
  - symbol: Li # 14
    coordinates: [  0.875000000218332,  0.375000000859556,  0.875000000217522 ]
    mass: 6.940000
    reduced_to: 9
  - symbol: Li # 15
    coordinates: [  0.375000000218332,  0.875000000859556,  0.875000000217522 ]
    mass: 6.940000
    reduced_to: 9
  - symbol: Li # 16
    coordinates: [  0.875000000218332,  0.875000000859556,  0.875000000217522 ]
    mass: 6.940000
    reduced_to: 9
  - symbol: Li # 17
    coordinates: [  0.374999999899098,  0.125000000145291,  0.125000000411258 ]
    mass: 6.940000
    reduced_to: 9
  - symbol: Li # 18
    coordinates: [  0.874999999899098,  0.125000000145291,  0.125000000411258 ]
    mass: 6.940000
    reduced_to: 9
  - symbol: Li # 19
    coordinates: [  0.374999999899098,  0.625000000145291,  0.125000000411258 ]
    mass: 6.940000
    reduced_to: 9
  - symbol: Li # 20
    coordinates: [  0.874999999899098,  0.625000000145291,  0.125000000411258 ]
    mass: 6.940000
    reduced_to: 9
  - symbol: Li # 21
    coordinates: [  0.374999999899098,  0.125000000145291,  0.625000000411258 ]
    mass: 6.940000
    reduced_to: 9
  - symbol: Li # 22
    coordinates: [  0.874999999899098,  0.125000000145291,  0.625000000411258 ]
    mass: 6.940000
    reduced_to: 9
  - symbol: Li # 23
    coordinates: [  0.374999999899098,  0.625000000145291,  0.625000000411258 ]
    mass: 6.940000
    reduced_to: 9
  - symbol: Li # 24
    coordinates: [  0.874999999899098,  0.625000000145291,  0.625000000411258 ]
    mass: 6.940000
    reduced_to: 9
  - symbol: Li # 25
    coordinates: [  0.124999999948665,  0.375000001230347,  0.375000000651541 ]
    mass: 6.940000
    reduced_to: 1
  - symbol: Li # 26
    coordinates: [  0.624999999948665,  0.375000001230347,  0.375000000651541 ]
    mass: 6.940000
    reduced_to: 1
  - symbol: Li # 27
    coordinates: [  0.124999999948665,  0.875000001230347,  0.375000000651541 ]
    mass: 6.940000
    reduced_to: 1
  - symbol: Li # 28
    coordinates: [  0.624999999948665,  0.875000001230347,  0.375000000651541 ]
    mass: 6.940000
    reduced_to: 1
  - symbol: Li # 29
    coordinates: [  0.124999999948665,  0.375000001230347,  0.875000000651541 ]
    mass: 6.940000
    reduced_to: 1
  - symbol: Li # 30
    coordinates: [  0.624999999948665,  0.375000001230347,  0.875000000651541 ]
    mass: 6.940000
    reduced_to: 1
  - symbol: Li # 31
    coordinates: [  0.124999999948665,  0.875000001230347,  0.875000000651541 ]
    mass: 6.940000
    reduced_to: 1
  - symbol: Li # 32
    coordinates: [  0.624999999948665,  0.875000001230347,  0.875000000651541 ]
    mass: 6.940000
    reduced_to: 1
  - symbol: Li # 33
    coordinates: [  0.374999999486176,  0.375000000619692,  0.125000000132467 ]
    mass: 6.940000
    reduced_to: 1
  - symbol: Li # 34
    coordinates: [  0.874999999486176,  0.375000000619692,  0.125000000132467 ]
    mass: 6.940000
    reduced_to: 1
  - symbol: Li # 35
    coordinates: [  0.374999999486176,  0.875000000619692,  0.125000000132467 ]
    mass: 6.940000
    reduced_to: 1
  - symbol: Li # 36
    coordinates: [  0.874999999486176,  0.875000000619692,  0.125000000132467 ]
    mass: 6.940000
    reduced_to: 1
  - symbol: Li # 37
    coordinates: [  0.374999999486176,  0.375000000619692,  0.625000000132467 ]
    mass: 6.940000
    reduced_to: 1
  - symbol: Li # 38
    coordinates: [  0.874999999486176,  0.375000000619692,  0.625000000132467 ]
    mass: 6.940000
    reduced_to: 1
  - symbol: Li # 39
    coordinates: [  0.374999999486176,  0.875000000619692,  0.625000000132467 ]
    mass: 6.940000
    reduced_to: 1
  - symbol: Li # 40
    coordinates: [  0.874999999486176,  0.875000000619692,  0.625000000132467 ]
    mass: 6.940000
    reduced_to: 1
  - symbol: Li # 41
    coordinates: [  0.125000000059884,  0.125000000174869,  0.375000000005903 ]
    mass: 6.940000
    reduced_to: 9
  - symbol: Li # 42
    coordinates: [  0.625000000059884,  0.125000000174869,  0.375000000005903 ]
    mass: 6.940000
    reduced_to: 9
  - symbol: Li # 43
    coordinates: [  0.125000000059884,  0.625000000174869,  0.375000000005903 ]
    mass: 6.940000
    reduced_to: 9
  - symbol: Li # 44
    coordinates: [  0.625000000059884,  0.625000000174869,  0.375000000005903 ]
    mass: 6.940000
    reduced_to: 9
  - symbol: Li # 45
    coordinates: [  0.125000000059884,  0.125000000174869,  0.875000000005903 ]
    mass: 6.940000
    reduced_to: 9
  - symbol: Li # 46
    coordinates: [  0.625000000059884,  0.125000000174869,  0.875000000005903 ]
    mass: 6.940000
    reduced_to: 9
  - symbol: Li # 47
    coordinates: [  0.125000000059884,  0.625000000174869,  0.875000000005903 ]
    mass: 6.940000
    reduced_to: 9
  - symbol: Li # 48
    coordinates: [  0.625000000059884,  0.625000000174869,  0.875000000005903 ]
    mass: 6.940000
    reduced_to: 9
  - symbol: Li # 49
    coordinates: [  0.125000000821899,  0.374999999987775,  0.125000000687965 ]
    mass: 6.940000
    reduced_to: 9
  - symbol: Li # 50
    coordinates: [  0.625000000821899,  0.374999999987775,  0.125000000687965 ]
    mass: 6.940000
    reduced_to: 9
  - symbol: Li # 51
    coordinates: [  0.125000000821899,  0.874999999987775,  0.125000000687965 ]
    mass: 6.940000
    reduced_to: 9
  - symbol: Li # 52
    coordinates: [  0.625000000821899,  0.874999999987775,  0.125000000687965 ]
    mass: 6.940000
    reduced_to: 9
  - symbol: Li # 53
    coordinates: [  0.125000000821899,  0.374999999987775,  0.625000000687965 ]
    mass: 6.940000
    reduced_to: 9
  - symbol: Li # 54
    coordinates: [  0.625000000821899,  0.374999999987775,  0.625000000687965 ]
    mass: 6.940000
    reduced_to: 9
  - symbol: Li # 55
    coordinates: [  0.125000000821899,  0.874999999987775,  0.625000000687965 ]
    mass: 6.940000
    reduced_to: 9
  - symbol: Li # 56
    coordinates: [  0.625000000821899,  0.874999999987775,  0.625000000687965 ]
    mass: 6.940000
    reduced_to: 9
  - symbol: Li # 57
    coordinates: [  0.375000000586040,  0.125000000111203,  0.375000000218169 ]
    mass: 6.940000
    reduced_to: 1
  - symbol: Li # 58
    coordinates: [  0.875000000586040,  0.125000000111203,  0.375000000218169 ]
    mass: 6.940000
    reduced_to: 1
  - symbol: Li # 59
    coordinates: [  0.375000000586040,  0.625000000111203,  0.375000000218169 ]
    mass: 6.940000
    reduced_to: 1
  - symbol: Li # 60
    coordinates: [  0.875000000586040,  0.625000000111203,  0.375000000218169 ]
    mass: 6.940000
    reduced_to: 1
  - symbol: Li # 61
    coordinates: [  0.375000000586040,  0.125000000111203,  0.875000000218169 ]
    mass: 6.940000
    reduced_to: 1
  - symbol: Li # 62
    coordinates: [  0.875000000586040,  0.125000000111203,  0.875000000218169 ]
    mass: 6.940000
    reduced_to: 1
  - symbol: Li # 63
    coordinates: [  0.375000000586040,  0.625000000111203,  0.875000000218169 ]
    mass: 6.940000
    reduced_to: 1
  - symbol: Li # 64
    coordinates: [  0.875000000586040,  0.625000000111203,  0.875000000218169 ]
    mass: 6.940000
    reduced_to: 1
  - symbol: Li # 65
    coordinates: [  0.499999999815944,  0.000000000097161,  0.249999999737794 ]
    mass: 6.940000
    reduced_to: 65
  - symbol: Li # 66
    coordinates: [  0.999999999815944,  0.000000000097161,  0.249999999737794 ]
    mass: 6.940000
    reduced_to: 65
  - symbol: Li # 67
    coordinates: [  0.499999999815944,  0.500000000097161,  0.249999999737794 ]
    mass: 6.940000
    reduced_to: 65
  - symbol: Li # 68
    coordinates: [  0.999999999815944,  0.500000000097161,  0.249999999737794 ]
    mass: 6.940000
    reduced_to: 65
  - symbol: Li # 69
    coordinates: [  0.499999999815944,  0.000000000097161,  0.749999999737794 ]
    mass: 6.940000
    reduced_to: 65
  - symbol: Li # 70
    coordinates: [  0.999999999815944,  0.000000000097161,  0.749999999737794 ]
    mass: 6.940000
    reduced_to: 65
  - symbol: Li # 71
    coordinates: [  0.499999999815944,  0.500000000097161,  0.749999999737794 ]
    mass: 6.940000
    reduced_to: 65
  - symbol: Li # 72
    coordinates: [  0.999999999815944,  0.500000000097161,  0.749999999737794 ]
    mass: 6.940000
    reduced_to: 65
  - symbol: Li # 73
    coordinates: [  0.250000000263125,  0.499999999720124,  0.499999999990288 ]
    mass: 6.940000
    reduced_to: 65
  - symbol: Li # 74
    coordinates: [  0.750000000263125,  0.499999999720124,  0.499999999990288 ]
    mass: 6.940000
    reduced_to: 65
  - symbol: Li # 75
    coordinates: [  0.250000000263125,  0.999999999720124,  0.499999999990288 ]
    mass: 6.940000
    reduced_to: 65
  - symbol: Li # 76
    coordinates: [  0.750000000263125,  0.999999999720124,  0.499999999990288 ]
    mass: 6.940000
    reduced_to: 65
  - symbol: Li # 77
    coordinates: [  0.250000000263125,  0.499999999720124,  0.999999999990288 ]
    mass: 6.940000
    reduced_to: 65
  - symbol: Li # 78
    coordinates: [  0.750000000263125,  0.499999999720124,  0.999999999990288 ]
    mass: 6.940000
    reduced_to: 65
  - symbol: Li # 79
    coordinates: [  0.250000000263125,  0.999999999720124,  0.999999999990288 ]
    mass: 6.940000
    reduced_to: 65
  - symbol: Li # 80
    coordinates: [  0.750000000263125,  0.999999999720124,  0.999999999990288 ]
    mass: 6.940000
    reduced_to: 65
  - symbol: Li # 81
    coordinates: [  0.499999999984346,  0.249999999618279,  0.499999999401315 ]
    mass: 6.940000
    reduced_to: 65
  - symbol: Li # 82
    coordinates: [  0.999999999984346,  0.249999999618279,  0.499999999401315 ]
    mass: 6.940000
    reduced_to: 65
  - symbol: Li # 83
    coordinates: [  0.499999999984346,  0.749999999618279,  0.499999999401315 ]
    mass: 6.940000
    reduced_to: 65
  - symbol: Li # 84
    coordinates: [  0.999999999984346,  0.749999999618279,  0.499999999401315 ]
    mass: 6.940000
    reduced_to: 65
  - symbol: Li # 85
    coordinates: [  0.499999999984346,  0.249999999618279,  0.999999999401315 ]
    mass: 6.940000
    reduced_to: 65
  - symbol: Li # 86
    coordinates: [  0.999999999984346,  0.249999999618279,  0.999999999401315 ]
    mass: 6.940000
    reduced_to: 65
  - symbol: Li # 87
    coordinates: [  0.499999999984346,  0.749999999618279,  0.999999999401315 ]
    mass: 6.940000
    reduced_to: 65
  - symbol: Li # 88
    coordinates: [  0.999999999984346,  0.749999999618279,  0.999999999401315 ]
    mass: 6.940000
    reduced_to: 65
  - symbol: Li # 89
    coordinates: [  0.250000000036525,  0.249999999431748,  0.249999999262268 ]
    mass: 6.940000
    reduced_to: 65
  - symbol: Li # 90
    coordinates: [  0.750000000036525,  0.249999999431748,  0.249999999262268 ]
    mass: 6.940000
    reduced_to: 65
  - symbol: Li # 91
    coordinates: [  0.250000000036525,  0.749999999431748,  0.249999999262268 ]
    mass: 6.940000
    reduced_to: 65
  - symbol: Li # 92
    coordinates: [  0.750000000036525,  0.749999999431748,  0.249999999262268 ]
    mass: 6.940000
    reduced_to: 65
  - symbol: Li # 93
    coordinates: [  0.250000000036525,  0.249999999431748,  0.749999999262268 ]
    mass: 6.940000
    reduced_to: 65
  - symbol: Li # 94
    coordinates: [  0.750000000036525,  0.249999999431748,  0.749999999262268 ]
    mass: 6.940000
    reduced_to: 65
  - symbol: Li # 95
    coordinates: [  0.250000000036525,  0.749999999431748,  0.749999999262268 ]
    mass: 6.940000
    reduced_to: 65
  - symbol: Li # 96
    coordinates: [  0.750000000036525,  0.749999999431748,  0.749999999262268 ]
    mass: 6.940000
    reduced_to: 65
  - symbol: Sn # 97
    coordinates: [  0.499999999791155,  0.499999999601816,  0.499999998237060 ]
    mass: 118.710000
    reduced_to: 97
  - symbol: Sn # 98
    coordinates: [  0.999999999791155,  0.499999999601816,  0.499999998237060 ]
    mass: 118.710000
    reduced_to: 97
  - symbol: Sn # 99
    coordinates: [  0.499999999791155,  0.999999999601816,  0.499999998237060 ]
    mass: 118.710000
    reduced_to: 97
  - symbol: Sn # 100
    coordinates: [  0.999999999791155,  0.999999999601816,  0.499999998237060 ]
    mass: 118.710000
    reduced_to: 97
  - symbol: Sn # 101
    coordinates: [  0.499999999791155,  0.499999999601816,  0.999999998237060 ]
    mass: 118.710000
    reduced_to: 97
  - symbol: Sn # 102
    coordinates: [  0.999999999791155,  0.499999999601816,  0.999999998237060 ]
    mass: 118.710000
    reduced_to: 97
  - symbol: Sn # 103
    coordinates: [  0.499999999791155,  0.999999999601816,  0.999999998237060 ]
    mass: 118.710000
    reduced_to: 97
  - symbol: Sn # 104
    coordinates: [  0.999999999791155,  0.999999999601816,  0.999999998237060 ]
    mass: 118.710000
    reduced_to: 97
  - symbol: Sn # 105
    coordinates: [  0.249999999832858,  0.249999999527054,  0.000000000990388 ]
    mass: 118.710000
    reduced_to: 97
  - symbol: Sn # 106
    coordinates: [  0.749999999832858,  0.249999999527054,  0.000000000990388 ]
    mass: 118.710000
    reduced_to: 97
  - symbol: Sn # 107
    coordinates: [  0.249999999832858,  0.749999999527054,  0.000000000990388 ]
    mass: 118.710000
    reduced_to: 97
  - symbol: Sn # 108
    coordinates: [  0.749999999832858,  0.749999999527054,  0.000000000990388 ]
    mass: 118.710000
    reduced_to: 97
  - symbol: Sn # 109
    coordinates: [  0.249999999832858,  0.249999999527054,  0.500000000990388 ]
    mass: 118.710000
    reduced_to: 97
  - symbol: Sn # 110
    coordinates: [  0.749999999832858,  0.249999999527054,  0.500000000990388 ]
    mass: 118.710000
    reduced_to: 97
  - symbol: Sn # 111
    coordinates: [  0.249999999832858,  0.749999999527054,  0.500000000990388 ]
    mass: 118.710000
    reduced_to: 97
  - symbol: Sn # 112
    coordinates: [  0.749999999832858,  0.749999999527054,  0.500000000990388 ]
    mass: 118.710000
    reduced_to: 97
  - symbol: Sn # 113
    coordinates: [  0.249999999153759,  0.499999999561800,  0.250000000034645 ]
    mass: 118.710000
    reduced_to: 97
  - symbol: Sn # 114
    coordinates: [  0.749999999153759,  0.499999999561800,  0.250000000034645 ]
    mass: 118.710000
    reduced_to: 97
  - symbol: Sn # 115
    coordinates: [  0.249999999153759,  0.999999999561800,  0.250000000034645 ]
    mass: 118.710000
    reduced_to: 97
  - symbol: Sn # 116
    coordinates: [  0.749999999153759,  0.999999999561800,  0.250000000034645 ]
    mass: 118.710000
    reduced_to: 97
  - symbol: Sn # 117
    coordinates: [  0.249999999153759,  0.499999999561800,  0.750000000034645 ]
    mass: 118.710000
    reduced_to: 97
  - symbol: Sn # 118
    coordinates: [  0.749999999153759,  0.499999999561800,  0.750000000034645 ]
    mass: 118.710000
    reduced_to: 97
  - symbol: Sn # 119
    coordinates: [  0.249999999153759,  0.999999999561800,  0.750000000034645 ]
    mass: 118.710000
    reduced_to: 97
  - symbol: Sn # 120
    coordinates: [  0.749999999153759,  0.999999999561800,  0.750000000034645 ]
    mass: 118.710000
    reduced_to: 97
  - symbol: Sn # 121
    coordinates: [  0.499999999477570,  0.249999999354598,  0.249999999593662 ]
    mass: 118.710000
    reduced_to: 97
  - symbol: Sn # 122
    coordinates: [  0.999999999477570,  0.249999999354598,  0.249999999593662 ]
    mass: 118.710000
    reduced_to: 97
  - symbol: Sn # 123
    coordinates: [  0.499999999477570,  0.749999999354598,  0.249999999593662 ]
    mass: 118.710000
    reduced_to: 97
  - symbol: Sn # 124
    coordinates: [  0.999999999477570,  0.749999999354598,  0.249999999593662 ]
    mass: 118.710000
    reduced_to: 97
  - symbol: Sn # 125
    coordinates: [  0.499999999477570,  0.249999999354598,  0.749999999593662 ]
    mass: 118.710000
    reduced_to: 97
  - symbol: Sn # 126
    coordinates: [  0.999999999477570,  0.249999999354598,  0.749999999593662 ]
    mass: 118.710000
    reduced_to: 97
  - symbol: Sn # 127
    coordinates: [  0.499999999477570,  0.749999999354598,  0.749999999593662 ]
    mass: 118.710000
    reduced_to: 97
  - symbol: Sn # 128
    coordinates: [  0.999999999477570,  0.749999999354598,  0.749999999593662 ]
    mass: 118.710000
    reduced_to: 97

displacements:
- atom:    1
  displacement:
    [   0.0100000000000000,  0.0000000000000000,  0.0000000000000000 ]
  forces:
  - [  -0.0263111200183630, -0.0000005066394806, -0.0000001564621925 ]
  - [  -0.0001155901700258,  0.0000001061707735, -0.0000001080334187 ]
  - [  -0.0000149515690282,  0.0000000356230885,  0.0000006970949471 ]
  - [  -0.0000078065786511, -0.0000001720618457,  0.0000001682201400 ]
  - [  -0.0000150219420902, -0.0000006488990039, -0.0000001747393981 ]
  - [  -0.0000084232233348, -0.0000009455252439, -0.0000003272434697 ]
  - [   0.0000011628726497,  0.0000019357539713, -0.0000003548339009 ]
  - [   0.0000033790711313,  0.0000024815090001, -0.0000006051268429 ]
  - [  -0.0000337961828336,  0.0000033831456676,  0.0000036762794480 ]
  - [  -0.0005904808640480,  0.0004329588264227,  0.0004333518445492 ]
  - [  -0.0005899055395275,  0.0004283971211407, -0.0004282131558284 ]
  - [  -0.0000358894467354,  0.0000020954757929, -0.0000029299408197 ]
  - [  -0.0005891255568713, -0.0004271990619600,  0.0004281631845515 ]
  - [  -0.0000344756990671, -0.0000018775463104,  0.0000021681189537 ]
  - [  -0.0000339020043612, -0.0000036182245822, -0.0000040833037929 ]
  - [  -0.0005910675972700, -0.0004333518445492, -0.0004333853721619 ]
  - [   0.0011230530217290, -0.0000000800924695, -0.0000003067834768 ]
  - [   0.0010659601539373,  0.0000001490116119, -0.0000007282942533 ]
  - [   0.0000107892556116, -0.0000000192085281, -0.0000001420194167 ]
  - [   0.0000117442104965,  0.0000000989530236, -0.0000011678785086 ]
  - [   0.0000112432753667, -0.0000004533288802,  0.0000002628657967 ]
  - [   0.0000121959019452, -0.0000002142540154,  0.0000004686880857 ]
  - [  -0.0000024478649721,  0.0000026928028092, -0.0000004295725375 ]
  - [  -0.0000019926810637,  0.0000022638123482, -0.0000001265434548 ]
  - [   0.0002855882048607,  0.0000993506982923,  0.0000988779356703 ]
  - [  -0.0000203773379326, -0.0000060199527070, -0.0000061425380409 ]
  - [   0.0002912263153121,  0.0001029812119668, -0.0001036161556840 ]
  - [  -0.0000196555629373, -0.0000061513128458,  0.0000053996918723 ]
  - [   0.0002932020288426, -0.0001024771481752,  0.0001030280545820 ]
  - [  -0.0000194377789740,  0.0000063162297010, -0.0000059541198425 ]
  - [   0.0002861078828573, -0.0000988341344055, -0.0000989912950899 ]
  - [  -0.0000193659216166,  0.0000059723097365,  0.0000060241000028 ]
  - [  -0.0001357292057946, -0.0000563708599657, -0.0001012533903122 ]
  - [  -0.0001356024295092,  0.0000562369823456, -0.0001028403639793 ]
  - [  -0.0001355590065941,  0.0000563241992495,  0.0001000866759568 ]
  - [  -0.0001356489956379, -0.0000567715615034,  0.0001006908714771 ]
  - [   0.0000044436892495,  0.0000018073478714,  0.0000054974807426 ]
  - [   0.0000050999224186, -0.0000007431954145,  0.0000055357813835 ]
  - [   0.0000036837300286, -0.0000006977352314, -0.0000062369508669 ]
  - [   0.0000043065520003,  0.0000013783574104, -0.0000060665188357 ]
  - [   0.0001202393323183,  0.0001024268567562, -0.0000027325004339 ]
  - [   0.0000335760414600, -0.0000089313834906, -0.0000009536743164 ]
  - [  -0.0000036846613511, -0.0000088915694505, -0.0000005242181942 ]
  - [  -0.0000048372894526,  0.0000022178282961, -0.0000000854488462 ]
  - [   0.0001208770554513, -0.0001037527108565,  0.0000025795834517 ]
  - [   0.0000335325021297,  0.0000086538493633, -0.0000003622117219 ]
  - [  -0.0000028021167964,  0.0000112885609269, -0.0000007691196515 ]
  - [  -0.0000048598740250,  0.0000004144385457, -0.0000001815642463 ]
  - [   0.0001209992915392, -0.0000021010637283,  0.0001037828624249 ]
  - [   0.0000335592776537, -0.0000001620501280, -0.0000088829547167 ]
  - [   0.0001203361898661,  0.0000026263296604, -0.0001029260456562 ]
  - [   0.0000337082892656, -0.0000000074505806,  0.0000083744525909 ]
  - [  -0.0000023807369871,  0.0000008648494259, -0.0000094417482615 ]
  - [  -0.0000046288478188,  0.0000008473871276,  0.0000017879065126 ]
  - [  -0.0000036986311898, -0.0000002446249709,  0.0000079536112025 ]
  - [  -0.0000048236688599,  0.0000000727377483, -0.0000037158606574 ]
  - [  -0.0001355140702799, -0.0001005458834697, -0.0000566772650927 ]
  - [  -0.0001356229186058, -0.0001015253365040,  0.0000562425702810 ]
  - [   0.0000036454293877,  0.0000052948016673,  0.0000002024462447 ]
  - [   0.0000038665020838,  0.0000054683769122, -0.0000013876706362 ]
  - [  -0.0001355881104246,  0.0001004682853818,  0.0000559000473004 ]
  - [  -0.0001349635422230,  0.0001019965857267, -0.0000572819262743 ]
  - [   0.0000043839681894, -0.0000036366982386, -0.0000005498950486 ]
  - [   0.0000049751251936, -0.0000034491531551,  0.0000010710209608 ]
  - [   0.0000636418772046, -0.0000374492155970,  0.0000383639853681 ]
  - [   0.0016567013226449,  0.0019717253744602, -0.0019709826447070 ]
  - [   0.0000039828591980,  0.0000162200685736,  0.0000094567658380 ]
  - [   0.0000538909916941,  0.0002087596803904, -0.0000792417558841 ]
  - [   0.0000038541647882, -0.0000088661909103, -0.0000160767958732 ]
  - [   0.0000522146474395,  0.0000795844243839, -0.0002091019414365 ]
  - [  -0.0000157473077707, -0.0000173375010490,  0.0000164270895766 ]
  - [  -0.0000046046716307,  0.0000081491889432, -0.0000089310342446 ]
  - [  -0.0000036262758840, -0.0000090082758106, -0.0000086389482021 ]
  - [  -0.0000156068708748,  0.0000161983189173,  0.0000166876707226 ]
  - [   0.0000530518263986, -0.0000796493841335, -0.0002139941789210 ]
  - [   0.0000038905418478,  0.0000091968104243, -0.0000153498822328 ]
  - [   0.0000526231306139, -0.0002145790203940, -0.0000796527601779 ]
  - [   0.0000035486300476, -0.0000165113942785,  0.0000093856360763 ]
  - [   0.0016558137722313, -0.0019905255176127, -0.0019903355278075 ]
  - [   0.0000638314522803,  0.0000396090326831,  0.0000395159004256 ]
  - [   0.0000034607987800,  0.0000098554282886,  0.0000160783529282 ]
  - [   0.0000518696433573, -0.0000794541701907,  0.0002084763254970 ]
  - [  -0.0000149032421177,  0.0000159779156093, -0.0000156462192535 ]
  - [  -0.0000029557979815, -0.0000089542736532,  0.0000094247225206 ]
  - [   0.0000639003919787,  0.0000380725396099, -0.0000383614096791 ]
  - [   0.0016553453169763, -0.0019714422523975,  0.0019712648354471 ]
  - [   0.0000032143343560, -0.0000161720381584, -0.0000096298754215 ]
  - [   0.0000524767638126, -0.0002091037313221,  0.0000795556697994 ]
  - [   0.0016564537072554,  0.0019905227236450,  0.0019909976981580 ]
  - [   0.0000644208630547, -0.0000396311806981, -0.0000395224051317 ]
  - [   0.0000531710684299,  0.0002134857932106,  0.0000796901294962 ]
  - [   0.0000034199329093,  0.0000153416185640, -0.0000081258913269 ]
  - [   0.0000523107592016,  0.0000797188258730,  0.0002140303840861 ]
  - [   0.0000035776756704, -0.0000093458365882,  0.0000156645401148 ]
  - [  -0.0000032670795918,  0.0000080782192526,  0.0000090931571322 ]
  - [  -0.0000156154856086, -0.0000170033599716, -0.0000168085098267 ]
  - [  -0.0000000623811047, -0.0000023618340492, -0.0000016111880541 ]
  - [  -0.0000225934018090, -0.0000331845949404, -0.0000312309712172 ]
  - [   0.0000371905225620,  0.0000182054936886,  0.0000455584377050 ]
  - [  -0.0000124117996165,  0.0000134594738483, -0.0000037710415199 ]
  - [   0.0000343834435625,  0.0000425362777605,  0.0000196173787117 ]
  - [  -0.0000163665026776, -0.0000057546399148,  0.0000137966126204 ]
  - [  -0.0000109663778858,  0.0000573582947254,  0.0000575259327888 ]
  - [   0.0046884226612747,  0.0042317751795053,  0.0042322091758251 ]
  - [   0.0047269202768803,  0.0043242052197456, -0.0043235104531050 ]
  - [  -0.0000111740082502,  0.0000585336238146, -0.0000573936085857 ]
  - [  -0.0000128449319163, -0.0000057630240917, -0.0000141790187627 ]
  - [   0.0000359099358320,  0.0000421199947596, -0.0000205318610824 ]
  - [  -0.0000133486464620,  0.0000143526312968,  0.0000046537606977 ]
  - [   0.0000357888638973,  0.0000202926057682, -0.0000435649417341 ]
  - [  -0.0000218227505684, -0.0000332538038492,  0.0000331532210112 ]