4
Lattice="4.338707720456623 -0.0006442375330826905 -0.00024066133130915115 0.0007036125034421657 4.289982214889539 -0.00015641331622419317 0.0002154518225368777 9.125897472608365e-05 4.289846313438053" Properties=species:S:1:pos:R:3:forces:R:3 structure_index=0 total_energy=-12.158502578735352 stress="-0.08314664661884308 0.00036688390537165105 -0.00010570859012659639 0.00036700256168842316 0.0635657086968422 -0.00019038769823964685 -0.00010583332914393395 -0.00019036539015360177 0.0625423863530159" pbc="T T T"
Li       3.56923015       2.86019061       1.08953698       0.00028219      -0.00020997       0.00045773
Ga       1.39966676       0.71531223       1.08980749       0.00000326       0.00048658       0.00048098
Ga       1.40039165       2.86084564       3.23462567      -0.00065946      -0.00081729      -0.00005223
Sn       3.56916840       0.71522913       3.23489621       0.00037401       0.00054068      -0.00088648
18
Lattice="4.330380898637277 0.0005093318724912622 -0.0010331436976945242 -2.1657224672192816 6.375820055060727 -0.14255880878084823 0.0033519979052959205 -0.12561101202690073 12.827043015633906" Properties=species:S:1:pos:R:3:forces:R:3 structure_index=1 total_energy=-53.07551574707031 stress="0.003934545908123255 0.00010936962644336745 -1.0110144103236962e-05 0.00010938415653072298 -0.0025464321952313185 -0.0031232263427227736 -1.0192001354880631e-05 -0.0031231623142957687 0.006541099399328232" pbc="T T T"
Li       2.27429838       2.14537228      11.49192052      -0.00022460       0.00416978       0.00500170
Li       2.27399524       0.05379706       9.55065450      -0.00025939       0.00701786       0.01055439
Li       2.27123571       0.17968997       0.66777218       0.00003398      -0.00162615      -0.00896966
Li       0.10639847       0.10417873       2.94504726       0.00008200       0.00388858      -0.02526230
Li       0.10599290       2.37659376       0.65717551      -0.00006820       0.00472396      -0.00441050
Li       2.27177828       4.37154803       4.91965581       0.00024102       0.00129532       0.00143947
Li       2.27084245       4.49373100       0.69586641       0.00017798      -0.00439293      -0.01276796
Li       2.27348567       4.26686837       9.39378365       0.00007729       0.01745166       0.00411124
Li       2.27147990       2.42442337       2.91417277       0.00011549      -0.00066132       0.00858858
Li       2.27298871       2.16517897       7.19021149      -0.00001199       0.00275952       0.01203520
Ga       2.27205255       0.17504100       4.87570267       0.00017122      -0.01752401      -0.02150445
Ga       0.10909392       0.08459224      11.73840313       0.00003911       0.01140077       0.00679666
Sn       0.10608232       4.53078565       2.67343159      -0.00004118      -0.01246601      -0.02268252
Sn       0.10688990       2.16418198       4.97268089      -0.00018454      -0.03756122       0.00957347
Sn       0.10792532      -0.00182260       7.32150329       0.00072247      -0.01314644       0.02638599
Sn       0.10779575       4.29754693       7.17807031      -0.00077874       0.03503346      -0.00066897
Sn       0.10874446       4.34421299      11.49858458      -0.00005111      -0.01618545       0.00975564
Sn       0.10857850       2.11737914       9.48397623      -0.00004081       0.01582260       0.00202398
8
Lattice="3.1714117166108426 0.0018391096289886136 0.6946171933066402 1.096642645778632 7.406970711707723 2.5027632632496006 -0.08516781831741141 0.2864315747151558 7.887413514019514" Properties=species:S:1:pos:R:3:forces:R:3 structure_index=2 total_energy=-25.79862403869629 stress="-0.027574695646762848 -0.004272135440260172 -0.007140010595321655 -0.004272115882486105 -0.001612941618077457 0.02056947536766529 -0.007139998488128185 0.02056947536766529 0.005215553101152182" pbc="T T T"
Li       2.27764256       7.60869850       8.35756819      -0.00650954       0.01000014       0.01160946
Li       3.46496979       3.42236656       3.08319637       0.00662777      -0.01039508      -0.01210973
Ga       1.28662028       5.51453930       5.37298499      -0.00017907      -0.00007853       0.00030619
Ga       0.69497496       1.95420379       8.06512769      -0.00025207       0.00050953       0.00083734
Sn       3.44282211       6.37686769       3.13079702      -0.00626169       0.00200827       0.02133342
Sn       2.83527029       2.73256016       5.88619260      -0.00311815       0.02050281       0.00737951
Sn       1.81081816       0.89159193       3.05162416       0.00327893      -0.02053732      -0.00748917
Sn       2.30006081       4.65407124       8.31004907       0.00641382      -0.00200982      -0.02186701
10
Lattice="3.306125759255853 0.00023617452848052415 -2.076256351435988e-05 -0.00028738940928981274 3.3061221539009535 -7.721403882177171e-05 0.0009360507308219483 0.0009118793023627974 17.83837536325772" Properties=species:S:1:pos:R:3:forces:R:3 structure_index=3 total_energy=-30.936918258666992 stress="0.03987976908683777 -0.00019406547653488815 7.399856258416548e-05 -0.0001940212823683396 0.039849672466516495 7.089613791322336e-05 7.412779814330861e-05 7.075552275637165e-05 -0.03341227024793625" pbc="T T T"
Li       3.21147718       2.63712879       4.73550600       0.00050523       0.00042828      -0.01931856
Li       3.21088040       2.63887656      12.18344388       0.00002324       0.00000968      -0.00556566
Li       3.21031230       2.63879724       8.46165444       0.00059743      -0.00060052      -0.00524451
Li       3.21187689       2.63939458      15.89371266      -0.00004536      -0.00057158       0.00387810
Li       3.21228695       2.63756036       1.77256709      -0.00053927      -0.00039654       0.02538847
Ga       1.55926257       0.98389582       3.25639290      -0.00081779       0.00072652      -0.00357141
Sn       1.55775928       0.98553844      10.35677253      -0.00018195       0.00010968      -0.03448755
Sn       1.55821960       0.98589773      14.00365650       0.00043486       0.00011268       0.03564885
Sn       1.55965021       0.98560110      17.77469025       0.00000223       0.00015061      -0.01048026
Sn       1.55803517       0.98471567       6.57515760       0.00002141       0.00003119       0.01375253
5
Lattice="3.6957682111869024 0.03484318560318611 1.5269703060225117 1.6321949951349968 4.826247724343758 1.1762083803200107 0.01573395844498224 -0.3890655823668586 5.194955245744422" Properties=species:S:1:pos:R:3:forces:R:3 structure_index=4 total_energy=-14.613199234008789 stress="0.0001218987163156271 0.000998859410174191 0.0020408823620527983 0.0009987856028601527 -0.01668594405055046 0.01057584397494793 0.0020409240387380123 0.010575913824141026 -0.0023141016718000174" pbc="T T T"
Li       1.54922295       2.76494172       2.22908069      -0.02338986       0.00196569       0.02169695
Li       3.69724785       4.71616628       2.18993268       0.01706340      -0.00198702      -0.00640781
Ga       3.14810630       0.66317731       3.62125096       0.02150809      -0.01170282      -0.04160037
Ga       2.68700983       3.63954924       4.67916287      -0.03030739       0.01521428       0.04208015
Sn       4.19901400       1.60882778       6.28330654       0.01512576      -0.00349010      -0.01576892
7
Lattice="4.3538663362532395 0.002404868104577898 -0.001997067570546194 -2.179925924915524 4.869738640568955 -0.5180317255521049 0.003765970146869072 -0.11594841280522802 6.735883501061587" Properties=species:S:1:pos:R:3:forces:R:3 structure_index=5 total_energy=-21.332223892211914 stress="-0.0026527259033173323 0.0006694889161735773 0.0008633570978417993 0.0006694870535284281 -0.006091696210205555 -0.004456900525838137 0.0008634610567241907 -0.004456881433725357 -0.002342975465580821" pbc="T T T"
Li       1.39975948       3.89113647       4.22472333       0.00006880       0.01339585      -0.00845434
Li       3.57664015       0.63530727       0.76454125      -0.00041978      -0.01369725       0.00785677
Ga      -0.77589199       3.42014327       6.19753865      -0.00010940      -0.04036821       0.00015992
Ga       1.40179580       0.98812651       5.52901992       0.00111546       0.04010139       0.00111617
Ga      -0.77887135       4.69688477       2.23627611       0.00061112      -0.00037890       0.00027392
Sn      -0.77578093       1.81491532       3.68036985      -0.00234982       0.00639746       0.01315100
Sn       1.39844682       2.70880990       1.31084927       0.00108363      -0.00545033      -0.01410345
16
Lattice="4.410557757329166 0.0006462667109625449 -0.0005181035561061801 -2.204789596036307 5.141011717663446 -0.004134067376793964 0.0028590957448182373 0.0270091404731543 16.161237472073775" Properties=species:S:1:pos:R:3:forces:R:3 structure_index=6 total_energy=-49.0771484375 stress="0.008049451746046543 -0.00027364803827367723 -3.6045937577000586e-06 -0.000273729267064482 0.008887363597750664 0.00014816741168033332 -3.610294243117096e-06 0.00014841741358395666 0.0058528343215584755" pbc="T T T"
Li       3.45747552       2.13183926       7.42185100       0.00140495      -0.04063133      -0.00197215
Li       1.25949022       0.93463197      15.50342524      -0.00146581       0.03484390      -0.00085705
Li       1.25693616       3.54890550      13.51237198       0.00021581       0.01484301       0.03865237
Li       1.25486886       3.53476032       1.31620935       0.00021890       0.01453351      -0.03586681
Li       1.25635457       4.64894464       9.39916641      -0.00076899      -0.01104498      -0.03396614
Li       1.25481460       4.64025579       5.43892004      -0.00018001      -0.01157251       0.03534128
Ga       1.25243029       1.71170093       5.28792683       0.00066374       0.01854935       0.01551808
Ga       3.46063573       1.33547436      13.37287624       0.00083044      -0.02552830       0.00761382
Ga       3.45980843       1.32545666       1.47073207      -0.00034391      -0.02322868      -0.01030446
Ga       1.25459306       1.72455981       9.54954946       0.00140398       0.01843638      -0.00699509
Sn       1.25446633       0.29134418       2.80029072      -0.00010661       0.01107306       0.00898766
Sn      -0.95011689       2.75272983      10.88475425      -0.00125876      -0.01221255      -0.00093645
Sn      -0.94725977       3.09059231      15.49468258      -0.00007922       0.02066020       0.00444960
Sn       1.25529701       0.30581526      12.03921326      -0.00002826       0.01358652      -0.00501063
Sn      -0.95281927       2.74268232       3.96023027       0.00052936      -0.00884410      -0.01322912
Sn      -0.94955455       5.11229000       7.42001215      -0.00103561      -0.01346343      -0.00142495
4
Lattice="4.05814583582802 0.0002170563977780176 0.00011815907686609997 -0.0003255139392816124 4.058226621842273 0.0003276306346703726 -0.00013900974435055466 -0.00038916821053363546 4.4473078251669635" Properties=species:S:1:pos:R:3:forces:R:3 structure_index=7 total_energy=-11.800246238708496 stress="0.0719236508011818 -0.001007916172966361 -3.279271913925186e-05 -0.001008019084110856 0.07232730835676193 -9.364710422232747e-05 -3.286784703959711e-05 -9.367117309011519e-05 0.1058422103524208" pbc="T T T"
Li       3.72672930       2.84153510       4.20174032      -0.00023669       0.00011140      -0.00038049
Li       1.69771603       0.81215325       4.20162316      -0.00017628       0.00038888      -0.00058035
Ga       1.69765131       2.84170192       1.97790882      -0.00098835       0.00046393       0.00019337
Sn       3.72656043       0.81288515       1.97771382       0.00140133      -0.00096420       0.00076748
10
Lattice="3.2993814999544804 -9.346221360488701e-05 -0.00012090662684349411 0.00013613751303431814 3.299747356385607 2.488292417351878e-05 0.0004255004006443119 0.00016098615040927518 17.93109819662847" Properties=species:S:1:pos:R:3:forces:R:3 structure_index=8 total_energy=-30.9379940032959 stress="3.12854717776645e-05 0.00013853363634552807 -0.0005903653800487518 0.00013855542056262493 0.0036819854285568 -0.00019221179536543787 -0.0005903171258978546 -0.00019224158313591033 -0.004006252624094486" pbc="T T T"
Li       0.69524750       1.88880644       5.25592412       0.00086631       0.00105048      -0.04747563
Li       0.69473642       1.88844640       8.97954174       0.00093363       0.00054564      -0.00003935
Li       0.69577799       1.88918541      16.50973708       0.00026981       0.00021154      -0.00545248
Li       0.69564644       1.88972776       2.27644996       0.00003766      -0.00012418       0.04756197
Li       0.69569839       1.88862642      12.75514192       0.00004046       0.00029256      -0.00267233
Ga       2.34537999       0.23971923       3.76643324      -0.00072513      -0.00088932       0.00300248
Sn       2.34560523       0.23890212      14.61149436      -0.00032453       0.00012696       0.02091266
Sn       2.34502133       0.23891597      10.89463131      -0.00024958      -0.00042419      -0.03617393
Sn       2.34516706       0.23974139       0.44988201      -0.00004844      -0.00043956      -0.01547761
Sn       2.34518764       0.23898933       7.08622496      -0.00080019      -0.00034993       0.03581423
10
Lattice="3.2939462494965164 -0.00013685340129047444 -6.156061065020225e-05 0.00025966923978502606 3.293919764631958 0.0008399889016824058 0.0007147151262208698 -0.003267039924139835 19.885401096309945" Properties=species:S:1:pos:R:3:forces:R:3 structure_index=9 total_energy=-32.11428451538086 stress="-0.003941098228096962 0.0001273333327844739 -4.2785355617525056e-05 0.00012737035285681486 -0.004226158373057842 0.0003887481288984418 -4.283514863345772e-05 0.0003886897175107151 0.022680943831801414" pbc="T T T"
Li       1.70580432       1.62240968       2.07873683       0.00039251       0.00036019       0.00224435
Li       1.70677322       1.62312444      10.60710295      -0.00001941      -0.00026762       0.00157719
Li       1.70772332       1.62080142      18.20878313      -0.00038028      -0.00025951      -0.00989236
Li       1.70733722       1.62173345      14.37576668       0.00003139       0.00017686       0.00779947
Ga       1.70750289       1.62301872       6.34264695      -0.00040964      -0.00010535       0.00063588
Sn       0.05958942       3.27027763       0.21785998      -0.00007772      -0.00002599      -0.03276268
Sn       0.05902887       3.26929536       4.13042206       0.00031905       0.00018573      -0.01012628
Sn       0.06024047       3.26958676      12.47493283      -0.00006037      -0.00020233       0.03305376
Sn       0.05953520       3.27011664       8.55566760       0.00037001       0.00003547       0.01092822
Sn       0.06079075       3.26822251      16.29452637      -0.00016554       0.00010253      -0.00345755
4
Lattice="4.282343840672587 0.00018039543490580277 -0.0003301238961126262 -0.0007259694422079719 4.282176237948019 0.002433295774611476 0.00015922285788768018 -0.0011691658956586172 4.3584800815192315" Properties=species:S:1:pos:R:3:forces:R:3 structure_index=10 total_energy=-12.15861701965332 stress="0.08735734224319458 -0.0016081302892416716 -0.0008637922583147883 -0.0016080810455605388 0.08613700419664383 0.00637054955586791 -0.0008638902800157666 0.0063704499043524265 0.0980532318353653" pbc="T T T"
Li       0.33968195       1.96081541       0.00916308       0.00023443      -0.00005259      -0.00027658
Ga       0.33976011       4.10129590       2.18944598      -0.00041317      -0.00004435       0.00032141
Ga       2.48071016       1.96023092       2.18795494       0.00053963       0.00013383       0.00059770
Sn       2.48083855       4.10195386       0.01017949      -0.00036089      -0.00003689      -0.00064252
12
Lattice="4.068527305469475 3.9039085565034865e-05 -1.3498268339549546 -0.0049557924376189295 8.993865582990086 -0.015211263071555693 -0.008161281766206636 -0.03638188350908681 6.781831325418395" Properties=species:S:1:pos:R:3:forces:R:3 structure_index=11 total_energy=-37.66838455200195 stress="-0.020509174093604088 5.6510190916014835e-05 0.0004109175642952323 5.649575177812949e-05 -0.016774535179138184 0.0001808489760151133 0.0004108682624064386 0.00018081528833135962 -0.019298555329442024" pbc="T T T"
Li       2.34564754       6.18340505       0.78425649       0.00626118       0.00944099       0.01932902
Li       0.99292839       6.15367899       3.51366441       0.00232827       0.00367144       0.00715222
Li       3.70425010       1.45046586       4.88022816      -0.00305924       0.00334492      -0.00956544
Li       3.70566825       6.12202674       4.88375617       0.00091025       0.00612363       0.00267376
Li       2.36220660       1.46944731       0.83503280       0.00041098      -0.00897116       0.00108418
Ga       1.68171664       8.26216663       5.59000716      -0.00492765       0.00673326      -0.01468368
Ga       1.02079498       1.33744089       3.59825393      -0.00712527      -0.00942513      -0.02121754
Sn       1.67215133       3.83103017       5.56088810      -0.00223906      -0.00331648      -0.00655066
Sn       0.28525414       8.31772252       1.38094980      -0.00251540      -0.00578231      -0.00794135
Sn       3.06239063       8.26110361       2.94524042       0.00752109      -0.00394368       0.02209489
Sn       3.02750960       3.85975055       2.83967804      -0.00162596       0.00599438      -0.00494874
Sn       0.31840040       3.85697161       1.48049321       0.00406083      -0.00386984       0.01257336
19
Lattice="6.653333495554365 0.017612853821108422 0.12094399145165594 0.17474836756631845 7.2108281796112355 2.871903282345125 0.05901736924722541 0.038572104482527896 7.673906103313269" Properties=species:S:1:pos:R:3:forces:R:3 structure_index=12 total_energy=-55.42538833618164 stress="-0.005471420008689165 0.0005947900353930891 0.003416468622162938 0.0005948111647740006 -0.00366393756121397 0.0030324230901896954 0.0034162583760917187 0.0030322636011987925 0.0016973994206637144" pbc="T T T"
Li       5.04586802       1.53301621       3.73010690      -0.00845811      -0.00096559      -0.01462519
Li       6.54776613       6.49482874       3.41399175      -0.00346316      -0.01131172       0.00815123
Li       1.24250759       0.88508143       2.79884850      -0.00844667       0.02169052       0.02623941
Li       2.72904645       5.84550237       9.98438433       0.00715961      -0.00520612      -0.01517097
Li       1.27736469       4.23708191       7.66934243      -0.01151269      -0.00383780      -0.00788058
Ga       5.95657231       2.14553323       1.00754065       0.00980137       0.00480953       0.01302803
Ga       0.72302812       7.20020526       8.37541315      -0.00622079       0.00440472      -0.00222868
Ga       2.06774688       5.30328125       4.98376446       0.00832487       0.02330379      -0.00181470
Ga       4.59540036       4.40871028       4.06270380      -0.01068028      -0.00094403      -0.00755147
Ga       4.55935060       0.65438243       6.52648238      -0.00149057      -0.00985287      -0.00972538
Ga       3.79894223       0.06137328       1.53307597       0.00579081       0.01376545       0.00020368
Ga       0.48147909       3.69888151       3.00394831       0.00666171      -0.01258486       0.03678071
Ga       1.74490314       1.23429406       7.64869897      -0.01017706      -0.02495846       0.00856545
Ga       5.36559924       5.08903135       8.99006002       0.01723013       0.00081384       0.01570490
Ga       3.22072357       6.44010472       7.29533351      -0.00173850       0.02490384      -0.00921828
Ga       6.22516916       2.83239469       5.92728838       0.00072844      -0.02527835      -0.00515342
Sn       3.20424406       2.99357423       1.73550207       0.00315328       0.01459326      -0.04601025
Sn       2.52153747       2.40155615       5.09730310       0.01076128       0.00906500       0.01467707
Sn       6.01218483       5.85724739       6.22986287      -0.00742366      -0.02241015      -0.00397152
4
Lattice="3.7712502802379704 -0.000539611662116424 -8.66419321702823e-05 0.0004871151683032922 3.7713416268906736 -0.00026443216563752994 -0.00019282794877499462 0.0005358456630522298 5.809286993359953" Properties=species:S:1:pos:R:3:forces:R:3 structure_index=13 total_energy=-12.027647972106934 stress="0.05975380167365074 -0.0003969720855820924 -4.4675667595583946e-05 -0.00039695657324045897 0.06002488359808922 8.971635907073505e-06 -4.4773187255486846e-05 8.930438525567297e-06 -0.07760463654994965" pbc="T T T"
Li       2.77304978       0.36625790       0.49477601      -0.00011871       0.00018019       0.00074744
Ga       0.88756206       2.25274811       4.88748712      -0.00017663       0.00003810      -0.01354794
Ga       0.88730988       2.25261291       1.91231026       0.00034535      -0.00016627       0.01232512
Sn       2.77283204       0.36677252       3.39964767      -0.00005001      -0.00005203       0.00047538
16
Lattice="6.1236137082464905 0.07373454019657298 -0.0026050072742604398 0.037288547056340965 5.958023198692085 0.0028954814903247913 0.004085718453524447 -0.004086554912307285 8.353310867870864" Properties=species:S:1:pos:R:3:forces:R:3 structure_index=14 total_energy=-47.14852523803711 stress="-0.00315838772803545 -0.00027288071578368545 -8.877318759914488e-05 -0.0002728023682720959 -0.005201153922826052 0.00017439508519601077 -8.881420217221603e-05 0.00017443620890844613 -0.00922978576272726" pbc="T T T"
Li       2.89179731       1.79025760       7.16059978       0.01879882      -0.02072036      -0.00099222
Li       6.05811983       4.97333093       7.15777352      -0.03879219       0.01554911       0.00072206
Li       4.51835943       3.45766420       4.96590128      -0.00571537       0.01234765       0.00727520
Li       2.78058107       1.87303580       2.98154159       0.01854376       0.00132553       0.00056387
Li       4.51850017       3.45963182       0.99966025      -0.00669520       0.01263008      -0.00753809
Ga       1.37472672       3.28850351       0.94130063       0.00164064      -0.01565637      -0.00365960
Ga       1.39663943       0.37938164       5.02869763       0.00988726      -0.01688783      -0.00368368
Ga       2.78808643       4.78496580       2.98331394       0.00308571       0.00071215       0.00054619
Ga       1.37909376       3.28678917       5.02639715       0.00058822      -0.01465137       0.00426034
Ga       6.10940190       4.87558315       2.98424396      -0.00818735       0.01038056      -0.00148315
Ga       6.10835695       2.04838557       2.98235748      -0.01265362       0.01207924      -0.00080103
Ga       6.04247618       2.07393081       7.15684424       0.00621207       0.00373458       0.00046000
Ga       1.39605197       0.38044494       0.93662038       0.00843099      -0.01605804       0.00414460
Sn       4.51676578       0.50565297       1.01391564       0.00584102       0.01348210      -0.00938150
Sn       4.51457957       0.50395045       4.94770199       0.00832208       0.01294559       0.01095145
Sn       2.87924342       4.68826035       7.16183827      -0.00930683      -0.01121264      -0.00138445
16
Lattice="5.628431868955195 0.009047225216456012 -0.0036571403384371834 0.015909731176244505 6.324908666779917 -0.005898931834276141 0.030960116669796124 -0.008168247695789088 10.238475121102574" Properties=species:S:1:pos:R:3:forces:R:3 structure_index=15 total_energy=-51.88288497924805 stress="0.012230219319462776 0.00023223091557156295 1.427289407729404e-05 0.0002322473010281101 0.010273466818034649 -8.984259329736233e-05 1.4383325833478011e-05 -8.989663183456287e-05 0.009207956492900848" pbc="T T T"
Li       3.38723843       2.35291969       7.57180683       0.00528692      -0.00065927      -0.00786963
Li       0.58556013       0.65975654       7.55439702      -0.01441302       0.00489152      -0.00102543
Li       2.39119120       3.80101217       2.47656900       0.01946612      -0.00620235       0.00275785
Li       5.21974230       5.54769517       2.44300456      -0.01541429      -0.00727818       0.00255173
Ga       4.31254223       3.96636071       4.96057724       0.03629670      -0.02960686       0.01094259
Ga       1.46383096       5.37159825       4.89224450       0.01327400       0.02530313      -0.01105584
Ga       1.53508539       2.19796506      10.04491210      -0.02500753       0.01201075       0.00278132
Ga       1.35654376       5.32044820      10.15483762      -0.00699002       0.00936531      -0.00504661
Sn       2.35899414       0.55296054       2.33161709      -0.01132186      -0.00714526       0.00160286
Sn       4.14064583       3.97625367      10.17073025      -0.00205396      -0.00668306       0.00893890
Sn       4.42350059       0.70129535       5.00961847       0.00932617       0.00335006      -0.00765190
Sn       0.48054405       3.80223537       7.58660864       0.00295041      -0.01215447       0.00061805
Sn       1.64246999       2.30881556       5.04914872       0.00069507       0.00471058       0.00470276
Sn       3.17811598       5.49391557       7.46420311       0.03329539       0.01769515       0.01245349
Sn       4.37544071       0.79797261      10.02727241      -0.02759211      -0.00338510      -0.00636934
Sn       5.32686849       2.46162651       2.44155511      -0.01779798      -0.00421196      -0.00833076
5
Lattice="3.9537483190629046 -0.0031645062139626745 1.842259699985314 1.7034264671656687 4.907620506607226 1.4883741976648668 -0.18865889752888562 -0.6207953188517122 5.530132292386913" Properties=species:S:1:pos:R:3:forces:R:3 structure_index=16 total_energy=-15.87542724609375 stress="0.04932700842618942 -0.011349748820066452 -0.02153472788631916 -0.011349647305905819 0.04784311726689339 -0.01577664725482464 -0.02153473161160946 -0.015776662155985832 -0.0028882650658488274" pbc="T T T"
Li       4.51237673       3.90588755       6.41650014      -0.00004680       0.00016157       0.00010571
Ga       3.46732386       3.18725902       3.53221799      -0.02953183       0.00651781       0.04231551
Ga       4.04250655       0.33800438       2.28265781       0.02961099      -0.00660220      -0.04262645
Sn       1.17717825       1.01485571       3.26827924      -0.00465826      -0.00229771      -0.00851199
Sn       2.19025380       1.89276709       6.23437494       0.00462591       0.00222053       0.00871722
12
Lattice="5.209292430783582 0.09231618479326968 -0.026273663973331623 -1.740761508924942 4.916136427430308 -0.029578765113434415 0.043967632769702496 0.07569753274357725 9.224466808168865" Properties=species:S:1:pos:R:3:forces:R:3 structure_index=17 total_energy=-35.41999053955078 stress="-0.027647586539387703 0.0006427341140806675 0.003831536043435335 0.0006428518099710345 -0.011954112909734249 0.014646089635789394 0.0038315695710480213 0.014645934104919434 0.014215602539479733" pbc="T T T"
Li       3.03883557       0.17662160       6.06086685      -0.00563883       0.00406436       0.03798888
Li      -0.46346441       2.56703625       3.04520507       0.00098405      -0.00348515      -0.03865599
Ga      -0.44528903       2.59048883       5.87229134       0.00264400      -0.00165520      -0.00107177
Ga       0.42135680       0.12067909       4.67334202       0.00206903       0.00312248       0.01781486
Ga       3.03718221       0.20375270       9.12732348       0.00622957      -0.00270588       0.04093812
Ga      -0.47751043       2.53804109      -0.01781081       0.00109765       0.00171868      -0.04891993
Ga       0.43422679       0.14614178       7.54155605      -0.00103482      -0.00116000       0.04070287
Ga       2.12933738       2.59918458       1.56410502       0.00677727      -0.00047860      -0.04289448
Ga       3.01822490       0.14975694       3.23221319      -0.00783298       0.00199615       0.00168114
Ga       2.15528044       2.61814326       4.42944012      -0.00689396      -0.00102322      -0.01229214
Sn       0.39778632       0.09380596       1.55054619       0.00427418      -0.00189477      -0.03244282
Sn       2.16758863       2.65004242       7.55408089      -0.00267514       0.00150116       0.03715124
9
Lattice="4.17804397007797 0.0025363402475900142 -0.0019487619086433526 -2.0931990980802593 4.614608157793145 -1.676295136314497 0.004174563737344158 -0.35541823577069726 9.30812415382234" Properties=species:S:1:pos:R:3:forces:R:3 structure_index=18 total_energy=-27.368824005126953 stress="0.04355539381504059 -0.0027902978472411633 -0.0019286794122308493 -0.0027903441805392504 -0.03196615353226662 0.0073623075149953365 -0.0019286152673885226 0.007362227886915207 -0.012244399636983871" pbc="T T T"
Li      -1.05770556       3.78925225       7.36274602      -0.00004250       0.02384563      -0.00629836
Li       3.12014383       0.96655881       1.19057491      -0.00038062      -0.00985216      -0.01550292
Li       1.03146491       2.29342390       5.91905875       0.00023535       0.01886670       0.01212080
Li       1.03067344       2.40483462       2.70870001      -0.00052959      -0.03710272       0.01460030
Ga       3.12259451       0.71748101       7.44610545      -0.00013025       0.01408203       0.02711855
Ga       3.12123339       0.86081958       4.38850460       0.00022320      -0.01715140      -0.01520079
Sn      -1.06049046       4.07519691       1.12944727       0.00044238      -0.02469919      -0.00573208
Sn       1.02904687       2.51681171      -0.39411844      -0.00022690       0.01251711       0.00246861
Sn      -1.05925754       3.83182629       4.36730886       0.00040893       0.01949399      -0.01357412
12