# Thermal properties / unit cell (natom)

unit:
  temperature:   K
  free_energy:   kJ/mol
  entropy:       J/K/mol
  heat_capacity: J/K/mol

natom: 18   
cutoff_frequency: 0.00000
num_modes: 202500
num_integrated_modes: 202498

zero_point_energy:      71.9829075

thermal_properties:
- temperature:         0.0000000
  free_energy:        71.9829075
  entropy:             0.0000000
  heat_capacity:       0.0000000
  energy:             71.9829075

- temperature:        10.0000000
  free_energy:        71.9798615
  entropy:             1.1432667
  heat_capacity:       3.5001943
  energy:             71.9912942

- temperature:        20.0000000
  free_energy:        71.9360565
  entropy:             9.1331999
  heat_capacity:      24.6865623
  energy:             72.1187205

- temperature:        30.0000000
  free_energy:        71.7727527
  entropy:            24.3571224
  heat_capacity:      52.1041529
  energy:             72.5034664

- temperature:        40.0000000
  free_energy:        71.4382254
  entropy:            42.8791173
  heat_capacity:      77.5379549
  energy:             73.1533901

- temperature:        50.0000000
  free_energy:        70.9106919
  entropy:            62.7836044
  heat_capacity:     101.6560515
  energy:             74.0498721

- temperature:        60.0000000
  free_energy:        70.1801173
  entropy:            83.4305495
  heat_capacity:     125.5751813
  energy:             75.1859502

- temperature:        70.0000000
  free_energy:        69.2403754
  entropy:           104.5913062
  heat_capacity:     149.5915726
  energy:             76.5617668

- temperature:        80.0000000
  free_energy:        68.0870430
  entropy:           126.1261869
  heat_capacity:     173.4082727
  energy:             78.1771379

- temperature:        90.0000000
  free_energy:        66.7170733
  entropy:           147.8942067
  heat_capacity:     196.5128802
  energy:             80.0275519

- temperature:       100.0000000
  free_energy:        65.1288817
  entropy:           169.7455169
  heat_capacity:     218.4341537
  energy:             82.1034334

- temperature:       110.0000000
  free_energy:        63.3223719
  entropy:           191.5347429
  heat_capacity:     238.8484165
  energy:             84.3911936

- temperature:       120.0000000
  free_energy:        61.2988253
  entropy:           213.1332192
  heat_capacity:     257.5898969
  energy:             86.8748116

- temperature:       130.0000000
  free_energy:        59.0606985
  entropy:           234.4352155
  heat_capacity:     274.6197404
  energy:             89.5372765

- temperature:       140.0000000
  free_energy:        56.6113839
  entropy:           255.3590863
  heat_capacity:     289.9861626
  energy:             92.3616560

- temperature:       150.0000000
  free_energy:        53.9549774
  entropy:           275.8454008
  heat_capacity:     303.7897716
  energy:             95.3317875

- temperature:       160.0000000
  free_energy:        51.0960710
  entropy:           295.8537159
  heat_capacity:     316.1578854
  energy:             98.4326655

- temperature:       170.0000000
  free_energy:        48.0395811
  entropy:           315.3590312
  heat_capacity:     327.2272885
  energy:            101.6506164

- temperature:       180.0000000
  free_energy:        44.7906110
  entropy:           334.3484665
  heat_capacity:     337.1335309
  energy:            104.9733349

- temperature:       190.0000000
  free_energy:        41.3543442
  entropy:           352.8183903
  heat_capacity:     346.0048276
  energy:            108.3898384

- temperature:       200.0000000
  free_energy:        37.7359646
  entropy:           370.7720555
  heat_capacity:     353.9589902
  energy:            111.8903757

- temperature:       210.0000000
  free_energy:        33.9405968
  entropy:           388.2177125
  heat_capacity:     361.1022583
  energy:            115.4663165

- temperature:       220.0000000
  free_energy:        29.9732647
  entropy:           405.1671355
  heat_capacity:     367.5292605
  energy:            119.1100345

- temperature:       230.0000000
  free_energy:        25.8388612
  entropy:           421.6344902
  heat_capacity:     373.3236028
  energy:            122.8147940

- temperature:       240.0000000
  free_energy:        21.5421295
  entropy:           437.6354754
  heat_capacity:     378.5587691
  energy:            126.5746437

- temperature:       250.0000000
  free_energy:        17.0876510
  entropy:           453.1866797
  heat_capacity:     383.2991440
  energy:            130.3843209

- temperature:       260.0000000
  free_energy:        12.4798386
  entropy:           468.3051045
  heat_capacity:     387.6010437
  energy:            134.2391657

- temperature:       270.0000000
  free_energy:         7.7229346
  entropy:           483.0078163
  heat_capacity:     391.5136965
  energy:            138.1350450

- temperature:       280.0000000
  free_energy:         2.8210116
  entropy:           497.3116950
  heat_capacity:     395.0801412
  energy:            142.0682862

- temperature:       290.0000000
  free_energy:        -2.2220250
  entropy:           511.2332579
  heat_capacity:     398.3380319
  energy:            146.0356198

- temperature:       300.0000000
  free_energy:        -7.4024326
  entropy:           524.7885380
  heat_capacity:     401.3203500
  energy:            150.0341287

- temperature:       310.0000000
  free_energy:       -12.7166264
  entropy:           537.9930048
  heat_capacity:     404.0560248
  energy:            154.0612051

- temperature:       320.0000000
  free_energy:       -18.1611730
  entropy:           550.8615160
  heat_capacity:     406.5704741
  energy:            158.1145122

- temperature:       330.0000000
  free_energy:       -23.7327844
  entropy:           563.4082920
  heat_capacity:     408.8860711
  energy:            162.1919520

- temperature:       340.0000000
  free_energy:       -29.4283117
  entropy:           575.6469072
  heat_capacity:     411.0225468
  energy:            166.2916368

- temperature:       350.0000000
  free_energy:       -35.2447385
  entropy:           587.5902934
  heat_capacity:     412.9973367
  energy:            170.4118642

- temperature:       360.0000000
  free_energy:       -41.1791745
  entropy:           599.2507520
  heat_capacity:     414.8258798
  energy:            174.5510962

- temperature:       370.0000000
  free_energy:       -47.2288494
  entropy:           610.6399719
  heat_capacity:     416.5218748
  energy:            178.7079401

- temperature:       380.0000000
  free_energy:       -53.3911069
  entropy:           621.7690513
  heat_capacity:     418.0975017
  energy:            182.8811326

- temperature:       390.0000000
  free_energy:       -59.6633985
  entropy:           632.6485225
  heat_capacity:     419.5636124
  energy:            187.0695253

- temperature:       400.0000000
  free_energy:       -66.0432787
  entropy:           643.2883772
  heat_capacity:     420.9298946
  energy:            191.2720722

- temperature:       410.0000000
  free_energy:       -72.5283990
  entropy:           653.6980935
  heat_capacity:     422.2050149
  energy:            195.4878194

- temperature:       420.0000000
  free_energy:       -79.1165034
  entropy:           663.8866620
  heat_capacity:     423.3967411
  energy:            199.7158946

- temperature:       430.0000000
  free_energy:       -85.8054235
  entropy:           673.8626118
  heat_capacity:     424.5120489
  energy:            203.9554995

- temperature:       440.0000000
  free_energy:       -92.5930740
  entropy:           683.6340360
  heat_capacity:     425.5572149
  energy:            208.2059019

- temperature:       450.0000000
  free_energy:       -99.4774482
  entropy:           693.2086158
  heat_capacity:     426.5378966
  energy:            212.4664290

- temperature:       460.0000000
  free_energy:      -106.4566145
  entropy:           702.5936444
  heat_capacity:     427.4592031
  energy:            216.7364619

- temperature:       470.0000000
  free_energy:      -113.5287123
  entropy:           711.7960487
  heat_capacity:     428.3257564
  energy:            221.0154306

- temperature:       480.0000000
  free_energy:      -120.6919487
  entropy:           720.8224109
  heat_capacity:     429.1417445
  energy:            225.3028086

- temperature:       490.0000000
  free_energy:      -127.9445946
  entropy:           729.6789882
  heat_capacity:     429.9109693
  energy:            229.5981096

- temperature:       500.0000000
  free_energy:      -135.2849824
  entropy:           738.3717320
  heat_capacity:     430.6368871
  energy:            233.9008836

- temperature:       510.0000000
  free_energy:      -142.7115021
  entropy:           746.9063051
  heat_capacity:     431.3226455
  energy:            238.2107135

- temperature:       520.0000000
  free_energy:      -150.2225992
  entropy:           755.2880990
  heat_capacity:     431.9711150
  energy:            242.5272123

- temperature:       530.0000000
  free_energy:      -157.8167719
  entropy:           763.5222495
  heat_capacity:     432.5849178
  energy:            246.8500203

- temperature:       540.0000000
  free_energy:      -165.4925684
  entropy:           771.6136509
  heat_capacity:     433.1664523
  energy:            251.1788031

- temperature:       550.0000000
  free_energy:      -173.2485847
  entropy:           779.5669706
  heat_capacity:     433.7179157
  energy:            255.5132491

- temperature:       560.0000000
  free_energy:      -181.0834624
  entropy:           787.3866613
  heat_capacity:     434.2413234
  energy:            259.8530679

- temperature:       570.0000000
  free_energy:      -188.9958867
  entropy:           795.0769736
  heat_capacity:     434.7385267
  energy:            264.1979882

- temperature:       580.0000000
  free_energy:      -196.9845842
  entropy:           802.6419671
  heat_capacity:     435.2112283
  energy:            268.5477568

- temperature:       590.0000000
  free_energy:      -205.0483212
  entropy:           810.0855214
  heat_capacity:     435.6609962
  energy:            272.9021364

- temperature:       600.0000000
  free_energy:      -213.1859022
  entropy:           817.4113454
  heat_capacity:     436.0892764
  energy:            277.2609051

- temperature:       610.0000000
  free_energy:      -221.3961676
  entropy:           824.6229874
  heat_capacity:     436.4974037
  energy:            281.6238547

- temperature:       620.0000000
  free_energy:      -229.6779927
  entropy:           831.7238432
  heat_capacity:     436.8866116
  energy:            285.9907901

- temperature:       630.0000000
  free_energy:      -238.0302860
  entropy:           838.7171646
  heat_capacity:     437.2580418
  energy:            290.3615277

- temperature:       640.0000000
  free_energy:      -246.4519879
  entropy:           845.6060674
  heat_capacity:     437.6127518
  energy:            294.7358952

- temperature:       650.0000000
  free_energy:      -254.9420692
  entropy:           852.3935378
  heat_capacity:     437.9517223
  energy:            299.1137303

- temperature:       660.0000000
  free_energy:      -263.4995301
  entropy:           859.0824399
  heat_capacity:     438.2758636
  energy:            303.4948802

- temperature:       670.0000000
  free_energy:      -272.1233987
  entropy:           865.6755218
  heat_capacity:     438.5860219
  energy:            307.8792010

- temperature:       680.0000000
  free_energy:      -280.8127300
  entropy:           872.1754215
  heat_capacity:     438.8829840
  energy:            312.2665567

- temperature:       690.0000000
  free_energy:      -289.5666049
  entropy:           878.5846725
  heat_capacity:     439.1674829
  energy:            316.6568191

- temperature:       700.0000000
  free_energy:      -298.3841294
  entropy:           884.9057092
  heat_capacity:     439.4402015
  energy:            321.0498671

- temperature:       710.0000000
  free_energy:      -307.2644329
  entropy:           891.1408717
  heat_capacity:     439.7017770
  energy:            325.4455860

- temperature:       720.0000000
  free_energy:      -316.2066681
  entropy:           897.2924105
  heat_capacity:     439.9528044
  energy:            329.8438675

- temperature:       730.0000000
  free_energy:      -325.2100096
  entropy:           903.3624909
  heat_capacity:     440.1938398
  energy:            334.2446088

- temperature:       740.0000000
  free_energy:      -334.2736533
  entropy:           909.3531973
  heat_capacity:     440.4254032
  energy:            338.6477127

- temperature:       750.0000000
  free_energy:      -343.3968156
  entropy:           915.2665367
  heat_capacity:     440.6479815
  energy:            343.0530869

- temperature:       760.0000000
  free_energy:      -352.5787326
  entropy:           921.1044428
  heat_capacity:     440.8620310
  energy:            347.4606439

- temperature:       770.0000000
  free_energy:      -361.8186593
  entropy:           926.8687790
  heat_capacity:     441.0679795
  energy:            351.8703005

- temperature:       780.0000000
  free_energy:      -371.1158690
  entropy:           932.5613420
  heat_capacity:     441.2662283
  energy:            356.2819778

- temperature:       790.0000000
  free_energy:      -380.4696527
  entropy:           938.1838650
  heat_capacity:     441.4571546
  energy:            360.6956007

- temperature:       800.0000000
  free_energy:      -389.8793184
  entropy:           943.7380201
  heat_capacity:     441.6411127
  energy:            365.1110977

- temperature:       810.0000000
  free_energy:      -399.3441905
  entropy:           949.2254214
  heat_capacity:     441.8184358
  energy:            369.5284008

- temperature:       820.0000000
  free_energy:      -408.8636095
  entropy:           954.6476278
  heat_capacity:     441.9894377
  energy:            373.9474453

- temperature:       830.0000000
  free_energy:      -418.4369308
  entropy:           960.0061449
  heat_capacity:     442.1544138
  energy:            378.3681695

- temperature:       840.0000000
  free_energy:      -428.0635249
  entropy:           965.3024279
  heat_capacity:     442.3136427
  energy:            382.7905145

- temperature:       850.0000000
  free_energy:      -437.7427766
  entropy:           970.5378832
  heat_capacity:     442.4673869
  energy:            387.2144241

- temperature:       860.0000000
  free_energy:      -447.4740844
  entropy:           975.7138711
  heat_capacity:     442.6158944
  energy:            391.6398447

- temperature:       870.0000000
  free_energy:      -457.2568602
  entropy:           980.8317075
  heat_capacity:     442.7593993
  energy:            396.0667253

- temperature:       880.0000000
  free_energy:      -467.0905289
  entropy:           985.8926656
  heat_capacity:     442.8981228
  energy:            400.4950168

- temperature:       890.0000000
  free_energy:      -476.9745280
  entropy:           990.8979781
  heat_capacity:     443.0322741
  energy:            404.9246725

- temperature:       900.0000000
  free_energy:      -486.9083070
  entropy:           995.8488386
  heat_capacity:     443.1620511
  energy:            409.3556477

- temperature:       910.0000000
  free_energy:      -496.8913272
  entropy:          1000.7464030
  heat_capacity:     443.2876412
  energy:            413.7878996

- temperature:       920.0000000
  free_energy:      -506.9230612
  entropy:          1005.5917916
  heat_capacity:     443.4092218
  energy:            418.2213872

- temperature:       930.0000000
  free_energy:      -517.0029927
  entropy:          1010.3860902
  heat_capacity:     443.5269612
  energy:            422.6560712

- temperature:       940.0000000
  free_energy:      -527.1306162
  entropy:          1015.1303514
  heat_capacity:     443.6410190
  energy:            427.0919141

- temperature:       950.0000000
  free_energy:      -537.3054363
  entropy:          1019.8255959
  heat_capacity:     443.7515463
  energy:            431.5288798

- temperature:       960.0000000
  free_energy:      -547.5269680
  entropy:          1024.4728143
  heat_capacity:     443.8586870
  energy:            435.9669337

- temperature:       970.0000000
  free_energy:      -557.7947357
  entropy:          1029.0729675
  heat_capacity:     443.9625775
  energy:            440.4060427

- temperature:       980.0000000
  free_energy:      -568.1082736
  entropy:          1033.6269882
  heat_capacity:     444.0633475
  energy:            444.8461749

- temperature:       990.0000000
  free_energy:      -578.4671248
  entropy:          1038.1357823
  heat_capacity:     444.1611203
  energy:            449.2872997

- temperature:      1000.0000000
  free_energy:      -588.8708414
  entropy:          1042.6002291
  heat_capacity:     444.2560132
  energy:            453.7293877
