# Thermal properties / unit cell (natom)

unit:
  temperature:   K
  free_energy:   kJ/mol
  entropy:       J/K/mol
  heat_capacity: J/K/mol

natom: 12   
cutoff_frequency: 0.00000
num_modes: 142272
num_integrated_modes: 142271

zero_point_energy:      25.1379437

thermal_properties:
- temperature:         0.0000000
  free_energy:        25.1379437
  entropy:             0.0000000
  heat_capacity:       0.0000000
  energy:             25.1379437

- temperature:        10.0000000
  free_energy:        25.1300816
  entropy:             3.2497877
  heat_capacity:      10.6105971
  energy:             25.1625795

- temperature:        20.0000000
  free_energy:        25.0088524
  entropy:            24.1388611
  heat_capacity:      58.3095668
  energy:             25.4916297

- temperature:        30.0000000
  free_energy:        24.6079311
  entropy:            56.9546422
  heat_capacity:     104.3163851
  energy:             26.3165704

- temperature:        40.0000000
  free_energy:        23.8642516
  entropy:            91.6656963
  heat_capacity:     136.6106173
  energy:             27.5308795

- temperature:        50.0000000
  free_energy:        22.7801547
  entropy:           124.7984073
  heat_capacity:     160.2028007
  energy:             29.0200751

- temperature:        60.0000000
  free_energy:        21.3756764
  entropy:           155.7319266
  heat_capacity:     179.1115478
  energy:             30.7195920

- temperature:        70.0000000
  free_energy:        19.6725040
  entropy:           184.5711095
  heat_capacity:     195.0413171
  energy:             32.5924817

- temperature:        80.0000000
  free_energy:        17.6905278
  entropy:           211.5272211
  heat_capacity:     208.6483564
  energy:             34.6127055

- temperature:        90.0000000
  free_energy:        15.4475957
  entropy:           236.7914621
  heat_capacity:     220.2671058
  energy:             36.7588273

- temperature:       100.0000000
  free_energy:        12.9597988
  entropy:           260.5248911
  heat_capacity:     230.1574887
  energy:             39.0122880

- temperature:       110.0000000
  free_energy:        10.2417364
  entropy:           282.8662246
  heat_capacity:     238.5605471
  energy:             41.3570211

- temperature:       120.0000000
  free_energy:         7.3067041
  entropy:           303.9382173
  heat_capacity:     245.7001982
  energy:             43.7792902

- temperature:       130.0000000
  free_energy:         4.1668344
  entropy:           323.8511592
  heat_capacity:     251.7769410
  energy:             46.2674851

- temperature:       140.0000000
  free_energy:         0.8332113
  entropy:           342.7046903
  heat_capacity:     256.9644489
  energy:             48.8118679

- temperature:       150.0000000
  free_energy:        -2.6840292
  entropy:           360.5888791
  heat_capacity:     261.4097087
  energy:             51.4043026

- temperature:       160.0000000
  free_energy:        -6.3756071
  entropy:           377.5850377
  heat_capacity:     265.2353131
  energy:             54.0379989

- temperature:       170.0000000
  free_energy:       -10.2330150
  entropy:           393.7664608
  heat_capacity:     268.5426522
  energy:             56.7072833

- temperature:       180.0000000
  free_energy:       -14.2484413
  entropy:           409.1991427
  heat_capacity:     271.4152391
  energy:             59.4074044

- temperature:       190.0000000
  free_energy:       -18.4147007
  entropy:           423.9424737
  heat_capacity:     273.9217835
  energy:             62.1343693

- temperature:       200.0000000
  free_energy:       -22.7251717
  entropy:           438.0499065
  heat_capacity:     276.1188646
  energy:             64.8848096

- temperature:       210.0000000
  free_energy:       -27.1737401
  entropy:           451.5695797
  heat_capacity:     278.0531744
  energy:             67.6558716

- temperature:       220.0000000
  free_energy:       -31.7547492
  entropy:           464.5448908
  heat_capacity:     279.7633649
  energy:             70.4451268

- temperature:       230.0000000
  free_energy:       -36.4629544
  entropy:           477.0150169
  heat_capacity:     281.2815484
  energy:             73.2504995

- temperature:       240.0000000
  free_energy:       -41.2934840
  entropy:           489.0153813
  heat_capacity:     282.6345108
  energy:             76.0702075

- temperature:       250.0000000
  free_energy:       -46.2418035
  entropy:           500.5780703
  heat_capacity:     283.8446882
  energy:             78.9027141

- temperature:       260.0000000
  free_energy:       -51.3036839
  entropy:           511.7322016
  heat_capacity:     284.9309539
  energy:             81.7466885

- temperature:       270.0000000
  free_energy:       -56.4751741
  entropy:           522.5042508
  heat_capacity:     285.9092516
  energy:             84.6009736

- temperature:       280.0000000
  free_energy:       -61.7525759
  entropy:           532.9183389
  heat_capacity:     286.7931075
  energy:             87.4645590

- temperature:       290.0000000
  free_energy:       -67.1324213
  entropy:           542.9964856
  heat_capacity:     287.5940443
  energy:             90.3365595

- temperature:       300.0000000
  free_energy:       -72.6114531
  entropy:           552.7588321
  heat_capacity:     288.3219181
  energy:             93.2161965

- temperature:       310.0000000
  free_energy:       -78.1866070
  entropy:           562.2238376
  heat_capacity:     288.9851923
  energy:             96.1027827

- temperature:       320.0000000
  free_energy:       -83.8549954
  entropy:           571.4084526
  heat_capacity:     289.5911624
  energy:             98.9957094

- temperature:       330.0000000
  free_energy:       -89.6138935
  entropy:           580.3282714
  heat_capacity:     290.1461402
  energy:            101.8944360

- temperature:       340.0000000
  free_energy:       -95.4607262
  entropy:           588.9976671
  heat_capacity:     290.6556060
  energy:            104.7984806

- temperature:       350.0000000
  free_energy:      -101.3930565
  entropy:           597.4299112
  heat_capacity:     291.1243342
  energy:            107.7074124

- temperature:       360.0000000
  free_energy:      -107.4085750
  entropy:           605.6372790
  heat_capacity:     291.5564982
  energy:            110.6208455

- temperature:       370.0000000
  free_energy:      -113.5050905
  entropy:           613.6311439
  heat_capacity:     291.9557572
  energy:            113.5384328

- temperature:       380.0000000
  free_energy:      -119.6805214
  entropy:           621.4220608
  heat_capacity:     292.3253299
  energy:            116.4598617

- temperature:       390.0000000
  free_energy:      -125.9328880
  entropy:           629.0198407
  heat_capacity:     292.6680554
  energy:            119.3848499

- temperature:       400.0000000
  free_energy:      -132.2603050
  entropy:           636.4336167
  heat_capacity:     292.9864450
  energy:            122.3131417

- temperature:       410.0000000
  free_energy:      -138.6609754
  entropy:           643.6719038
  heat_capacity:     293.2827265
  energy:            125.2445051

- temperature:       420.0000000
  free_energy:      -145.1331846
  entropy:           650.7426519
  heat_capacity:     293.5588808
  energy:            128.1787292

- temperature:       430.0000000
  free_energy:      -151.6752948
  entropy:           657.6532939
  heat_capacity:     293.8166740
  energy:            131.1156216

- temperature:       440.0000000
  free_energy:      -158.2857401
  entropy:           664.4107882
  heat_capacity:     294.0576845
  energy:            134.0550067

- temperature:       450.0000000
  free_energy:      -164.9630219
  entropy:           671.0216576
  heat_capacity:     294.2833259
  energy:            136.9967240

- temperature:       460.0000000
  free_energy:      -171.7057049
  entropy:           677.4920243
  heat_capacity:     294.4948676
  energy:            139.9406263

- temperature:       470.0000000
  free_energy:      -178.5124132
  entropy:           683.8276414
  heat_capacity:     294.6934514
  energy:            142.8865782

- temperature:       480.0000000
  free_energy:      -185.3818267
  entropy:           690.0339213
  heat_capacity:     294.8801068
  energy:            145.8344555

- temperature:       490.0000000
  free_energy:      -192.3126776
  entropy:           696.1159618
  heat_capacity:     295.0557636
  energy:            148.7841437

- temperature:       500.0000000
  free_energy:      -199.3037478
  entropy:           702.0785696
  heat_capacity:     295.2212636
  energy:            151.7355370

- temperature:       510.0000000
  free_energy:      -206.3538660
  entropy:           707.9262817
  heat_capacity:     295.3773700
  energy:            154.6885377

- temperature:       520.0000000
  free_energy:      -213.4619048
  entropy:           713.6633849
  heat_capacity:     295.5247762
  energy:            157.6430554

- temperature:       530.0000000
  free_energy:      -220.6267785
  entropy:           719.2939336
  heat_capacity:     295.6641129
  energy:            160.5990063

- temperature:       540.0000000
  free_energy:      -227.8474411
  entropy:           724.8217662
  heat_capacity:     295.7959554
  energy:            163.5563127

- temperature:       550.0000000
  free_energy:      -235.1228836
  entropy:           730.2505196
  heat_capacity:     295.9208285
  energy:            166.5149022

- temperature:       560.0000000
  free_energy:      -242.4521327
  entropy:           735.5836435
  heat_capacity:     296.0392124
  energy:            169.4747076

- temperature:       570.0000000
  free_energy:      -249.8342486
  entropy:           740.8244121
  heat_capacity:     296.1515468
  energy:            172.4356663

- temperature:       580.0000000
  free_energy:      -257.2683235
  entropy:           745.9759366
  heat_capacity:     296.2582349
  energy:            175.3977197

- temperature:       590.0000000
  free_energy:      -264.7534798
  entropy:           751.0411748
  heat_capacity:     296.3596471
  energy:            178.3608134

- temperature:       600.0000000
  free_energy:      -272.2888688
  entropy:           756.0229417
  heat_capacity:     296.4561240
  energy:            181.3248962

- temperature:       610.0000000
  free_energy:      -279.8736693
  entropy:           760.9239177
  heat_capacity:     296.5479792
  energy:            184.2899205

- temperature:       620.0000000
  free_energy:      -287.5070864
  entropy:           765.7466576
  heat_capacity:     296.6355022
  energy:            187.2558414

- temperature:       630.0000000
  free_energy:      -295.1883498
  entropy:           770.4935981
  heat_capacity:     296.7189599
  energy:            190.2226170

- temperature:       640.0000000
  free_energy:      -302.9167134
  entropy:           775.1670645
  heat_capacity:     296.7985992
  energy:            193.1902078

- temperature:       650.0000000
  free_energy:      -310.6914536
  entropy:           779.7692778
  heat_capacity:     296.8746488
  energy:            196.1585770

- temperature:       660.0000000
  free_energy:      -318.5118686
  entropy:           784.3023608
  heat_capacity:     296.9473202
  energy:            199.1276896

- temperature:       670.0000000
  free_energy:      -326.3772772
  entropy:           788.7683432
  heat_capacity:     297.0168100
  energy:            202.0975128

- temperature:       680.0000000
  free_energy:      -334.2870182
  entropy:           793.1691676
  heat_capacity:     297.0833005
  energy:            205.0680158

- temperature:       690.0000000
  free_energy:      -342.2404495
  entropy:           797.5066940
  heat_capacity:     297.1469613
  energy:            208.0391694

- temperature:       700.0000000
  free_energy:      -350.2369471
  entropy:           801.7827045
  heat_capacity:     297.2079501
  energy:            211.0109461

- temperature:       710.0000000
  free_energy:      -358.2759043
  entropy:           805.9989073
  heat_capacity:     297.2664140
  energy:            213.9833199

- temperature:       720.0000000
  free_energy:      -366.3567313
  entropy:           810.1569413
  heat_capacity:     297.3224899
  energy:            216.9562664

- temperature:       730.0000000
  free_energy:      -374.4788544
  entropy:           814.2583790
  heat_capacity:     297.3763058
  energy:            219.9297622

- temperature:       740.0000000
  free_energy:      -382.6417153
  entropy:           818.3047306
  heat_capacity:     297.4279811
  energy:            222.9037854

- temperature:       750.0000000
  free_energy:      -390.8447703
  entropy:           822.2974471
  heat_capacity:     297.4776276
  energy:            225.8783151

- temperature:       760.0000000
  free_energy:      -399.0874901
  entropy:           826.2379232
  heat_capacity:     297.5253497
  energy:            228.8533315

- temperature:       770.0000000
  free_energy:      -407.3693591
  entropy:           830.1275001
  heat_capacity:     297.5712454
  energy:            231.8288160

- temperature:       780.0000000
  free_energy:      -415.6898747
  entropy:           833.9674685
  heat_capacity:     297.6154064
  energy:            234.8047506

- temperature:       790.0000000
  free_energy:      -424.0485472
  entropy:           837.7590707
  heat_capacity:     297.6579189
  energy:            237.7811186

- temperature:       800.0000000
  free_energy:      -432.4448989
  entropy:           841.5035034
  heat_capacity:     297.6988637
  energy:            240.7579038

- temperature:       810.0000000
  free_energy:      -440.8784639
  entropy:           845.2019196
  heat_capacity:     297.7383167
  energy:            243.7350909

- temperature:       820.0000000
  free_energy:      -449.3487876
  entropy:           848.8554305
  heat_capacity:     297.7763494
  energy:            246.7126654

- temperature:       830.0000000
  free_energy:      -457.8554264
  entropy:           852.4651082
  heat_capacity:     297.8130289
  energy:            249.6906134

- temperature:       840.0000000
  free_energy:      -466.3979472
  entropy:           856.0319867
  heat_capacity:     297.8484185
  energy:            252.6689217

- temperature:       850.0000000
  free_energy:      -474.9759268
  entropy:           859.5570641
  heat_capacity:     297.8825780
  energy:            255.6475777

- temperature:       860.0000000
  free_energy:      -483.5889523
  entropy:           863.0413042
  heat_capacity:     297.9155634
  energy:            258.6265693

- temperature:       870.0000000
  free_energy:      -492.2366199
  entropy:           866.4856380
  heat_capacity:     297.9474280
  energy:            261.6058852

- temperature:       880.0000000
  free_energy:      -500.9185351
  entropy:           869.8909652
  heat_capacity:     297.9782218
  energy:            264.5855143

- temperature:       890.0000000
  free_energy:      -509.6343121
  entropy:           873.2581554
  heat_capacity:     298.0079921
  energy:            267.5654462

- temperature:       900.0000000
  free_energy:      -518.3835738
  entropy:           876.5880497
  heat_capacity:     298.0367837
  energy:            270.5456709

- temperature:       910.0000000
  free_energy:      -527.1659515
  entropy:           879.8814618
  heat_capacity:     298.0646389
  energy:            273.5261788

- temperature:       920.0000000
  free_energy:      -535.9810841
  entropy:           883.1391791
  heat_capacity:     298.0915980
  energy:            276.5069607

- temperature:       930.0000000
  free_energy:      -544.8286186
  entropy:           886.3619640
  heat_capacity:     298.1176987
  energy:            279.4880079

- temperature:       940.0000000
  free_energy:      -553.7082094
  entropy:           889.5505546
  heat_capacity:     298.1429771
  energy:            282.4693119

- temperature:       950.0000000
  free_energy:      -562.6195181
  entropy:           892.7056662
  heat_capacity:     298.1674674
  energy:            285.4508648

- temperature:       960.0000000
  free_energy:      -571.5622134
  entropy:           895.8279919
  heat_capacity:     298.1912018
  energy:            288.4326587

- temperature:       970.0000000
  free_energy:      -580.5359709
  entropy:           898.9182034
  heat_capacity:     298.2142111
  energy:            291.4146864

- temperature:       980.0000000
  free_energy:      -589.5404726
  entropy:           901.9769523
  heat_capacity:     298.2365246
  energy:            294.3969407

- temperature:       990.0000000
  free_energy:      -598.5754072
  entropy:           905.0048706
  heat_capacity:     298.2581699
  energy:            297.3794147

- temperature:      1000.0000000
  free_energy:      -607.6404693
  entropy:           908.0025712
  heat_capacity:     298.2791734
  energy:            300.3621019
