phonopy:
  version: "2.37.1"
  frequency_unit_conversion_factor: 15.633302
  symmetry_tolerance: 1.00000e-05

space_group:
  type: "Pm-3m"
  number: 221
  Hall_symbol: "-P 4 2 3"

primitive_matrix:
- [  1.000000000000000,  0.000000000000000, -0.000000000000000 ]
- [  0.000000000000000,  1.000000000000000,  0.000000000000000 ]
- [  0.000000000000000,  0.000000000000000,  1.000000000000000 ]

supercell_matrix:
- [   3,   0,   0 ]
- [   0,   3,   0 ]
- [   0,   0,   3 ]

primitive_cell:
  lattice:
  - [     4.203520689725631,     0.000000000000000,     0.000000000000000 ] # a
  - [     0.000000112675480,     4.203520724228223,     0.000000000000000 ] # b
  - [     0.000000106241927,     0.000000085545932,     4.203520718322380 ] # c
  points:
  - symbol: Li # 1
    coordinates: [  0.000000000117465,  0.500000000407408,  0.500000000769703 ]
    mass: 6.940000
  - symbol: Li # 2
    coordinates: [  0.500000000383777,  0.000000000106843,  0.500000000860789 ]
    mass: 6.940000
  - symbol: Li # 3
    coordinates: [  0.500000000539443,  0.500000000878470,  0.000000000146116 ]
    mass: 6.940000
  - symbol: Sn # 4
    coordinates: [  0.999999998990915,  0.999999998562950,  0.999999998277646 ]
    mass: 118.710000
  reciprocal_lattice: # without 2pi
  - [     0.237895819674262,    -0.000000006376803,    -0.000000006012700 ] # a*
  - [     0.000000000000000,     0.237895817721608,    -0.000000004841422 ] # b*
  - [     0.000000000000000,     0.000000000000000,     0.237895818055846 ] # c*

unit_cell:
  lattice:
  - [     4.203520689725631,     0.000000000000000,     0.000000000000000 ] # a
  - [     0.000000112675480,     4.203520724228222,     0.000000000000000 ] # b
  - [     0.000000106241927,     0.000000085545932,     4.203520718322380 ] # c
  points:
  - symbol: Li # 1
    coordinates: [  0.000000000117465,  0.500000000407408,  0.500000000769703 ]
    mass: 6.940000
    reduced_to: 1
  - symbol: Li # 2
    coordinates: [  0.500000000383777,  0.000000000106843,  0.500000000860789 ]
    mass: 6.940000
    reduced_to: 2
  - symbol: Li # 3
    coordinates: [  0.500000000539443,  0.500000000878470,  0.000000000146116 ]
    mass: 6.940000
    reduced_to: 3
  - symbol: Sn # 4
    coordinates: [  0.999999998990916,  0.999999998562951,  0.999999998277646 ]
    mass: 118.710000
    reduced_to: 4

supercell:
  lattice:
  - [    12.610562069176892,     0.000000000000000,     0.000000000000000 ] # a
  - [     0.000000338026439,    12.610562172684665,     0.000000000000000 ] # b
  - [     0.000000318725781,     0.000000256637797,    12.610562154967141 ] # c
  points:
  - symbol: Li # 1
    coordinates: [  0.000000000039155,  0.166666666802469,  0.166666666923234 ]
    mass: 6.940000
    reduced_to: 1
  - symbol: Li # 2
    coordinates: [  0.333333333372488,  0.166666666802469,  0.166666666923234 ]
    mass: 6.940000
    reduced_to: 1
  - symbol: Li # 3
    coordinates: [  0.666666666705822,  0.166666666802469,  0.166666666923234 ]
    mass: 6.940000
    reduced_to: 1
  - symbol: Li # 4
    coordinates: [  0.000000000039155,  0.500000000135803,  0.166666666923234 ]
    mass: 6.940000
    reduced_to: 1
  - symbol: Li # 5
    coordinates: [  0.333333333372488,  0.500000000135803,  0.166666666923234 ]
    mass: 6.940000
    reduced_to: 1
  - symbol: Li # 6
    coordinates: [  0.666666666705822,  0.500000000135803,  0.166666666923234 ]
    mass: 6.940000
    reduced_to: 1
  - symbol: Li # 7
    coordinates: [  0.000000000039155,  0.833333333469136,  0.166666666923234 ]
    mass: 6.940000
    reduced_to: 1
  - symbol: Li # 8
    coordinates: [  0.333333333372488,  0.833333333469136,  0.166666666923234 ]
    mass: 6.940000
    reduced_to: 1
  - symbol: Li # 9
    coordinates: [  0.666666666705822,  0.833333333469136,  0.166666666923234 ]
    mass: 6.940000
    reduced_to: 1
  - symbol: Li # 10
    coordinates: [  0.000000000039155,  0.166666666802469,  0.500000000256567 ]
    mass: 6.940000
    reduced_to: 1
  - symbol: Li # 11
    coordinates: [  0.333333333372488,  0.166666666802469,  0.500000000256567 ]
    mass: 6.940000
    reduced_to: 1
  - symbol: Li # 12
    coordinates: [  0.666666666705822,  0.166666666802469,  0.500000000256567 ]
    mass: 6.940000
    reduced_to: 1
  - symbol: Li # 13
    coordinates: [  0.000000000039155,  0.500000000135803,  0.500000000256567 ]
    mass: 6.940000
    reduced_to: 1
  - symbol: Li # 14
    coordinates: [  0.333333333372488,  0.500000000135803,  0.500000000256567 ]
    mass: 6.940000
    reduced_to: 1
  - symbol: Li # 15
    coordinates: [  0.666666666705822,  0.500000000135803,  0.500000000256567 ]
    mass: 6.940000
    reduced_to: 1
  - symbol: Li # 16
    coordinates: [  0.000000000039155,  0.833333333469136,  0.500000000256567 ]
    mass: 6.940000
    reduced_to: 1
  - symbol: Li # 17
    coordinates: [  0.333333333372488,  0.833333333469136,  0.500000000256567 ]
    mass: 6.940000
    reduced_to: 1
  - symbol: Li # 18
    coordinates: [  0.666666666705822,  0.833333333469136,  0.500000000256567 ]
    mass: 6.940000
    reduced_to: 1
  - symbol: Li # 19
    coordinates: [  0.000000000039155,  0.166666666802469,  0.833333333589901 ]
    mass: 6.940000
    reduced_to: 1
  - symbol: Li # 20
    coordinates: [  0.333333333372488,  0.166666666802469,  0.833333333589901 ]
    mass: 6.940000
    reduced_to: 1
  - symbol: Li # 21
    coordinates: [  0.666666666705822,  0.166666666802469,  0.833333333589901 ]
    mass: 6.940000
    reduced_to: 1
  - symbol: Li # 22
    coordinates: [  0.000000000039155,  0.500000000135803,  0.833333333589901 ]
    mass: 6.940000
    reduced_to: 1
  - symbol: Li # 23
    coordinates: [  0.333333333372488,  0.500000000135803,  0.833333333589901 ]
    mass: 6.940000
    reduced_to: 1
  - symbol: Li # 24
    coordinates: [  0.666666666705822,  0.500000000135803,  0.833333333589901 ]
    mass: 6.940000
    reduced_to: 1
  - symbol: Li # 25
    coordinates: [  0.000000000039155,  0.833333333469136,  0.833333333589901 ]
    mass: 6.940000
    reduced_to: 1
  - symbol: Li # 26
    coordinates: [  0.333333333372488,  0.833333333469136,  0.833333333589901 ]
    mass: 6.940000
    reduced_to: 1
  - symbol: Li # 27
    coordinates: [  0.666666666705822,  0.833333333469136,  0.833333333589901 ]
    mass: 6.940000
    reduced_to: 1
  - symbol: Li # 28
    coordinates: [  0.166666666794592,  0.000000000035614,  0.166666666953596 ]
    mass: 6.940000
    reduced_to: 28
  - symbol: Li # 29
    coordinates: [  0.500000000127926,  0.000000000035614,  0.166666666953596 ]
    mass: 6.940000
    reduced_to: 28
  - symbol: Li # 30
    coordinates: [  0.833333333461259,  0.000000000035614,  0.166666666953596 ]
    mass: 6.940000
    reduced_to: 28
  - symbol: Li # 31
    coordinates: [  0.166666666794592,  0.333333333368948,  0.166666666953596 ]
    mass: 6.940000
    reduced_to: 28
  - symbol: Li # 32
    coordinates: [  0.500000000127926,  0.333333333368948,  0.166666666953596 ]
    mass: 6.940000
    reduced_to: 28
  - symbol: Li # 33
    coordinates: [  0.833333333461259,  0.333333333368948,  0.166666666953596 ]
    mass: 6.940000
    reduced_to: 28
  - symbol: Li # 34
    coordinates: [  0.166666666794592,  0.666666666702281,  0.166666666953596 ]
    mass: 6.940000
    reduced_to: 28
  - symbol: Li # 35
    coordinates: [  0.500000000127926,  0.666666666702281,  0.166666666953596 ]
    mass: 6.940000
    reduced_to: 28
  - symbol: Li # 36
    coordinates: [  0.833333333461259,  0.666666666702281,  0.166666666953596 ]
    mass: 6.940000
    reduced_to: 28
  - symbol: Li # 37
    coordinates: [  0.166666666794592,  0.000000000035614,  0.500000000286930 ]
    mass: 6.940000
    reduced_to: 28
  - symbol: Li # 38
    coordinates: [  0.500000000127926,  0.000000000035614,  0.500000000286930 ]
    mass: 6.940000
    reduced_to: 28
  - symbol: Li # 39
    coordinates: [  0.833333333461259,  0.000000000035614,  0.500000000286930 ]
    mass: 6.940000
    reduced_to: 28
  - symbol: Li # 40
    coordinates: [  0.166666666794592,  0.333333333368948,  0.500000000286930 ]
    mass: 6.940000
    reduced_to: 28
  - symbol: Li # 41
    coordinates: [  0.500000000127926,  0.333333333368948,  0.500000000286930 ]
    mass: 6.940000
    reduced_to: 28
  - symbol: Li # 42
    coordinates: [  0.833333333461259,  0.333333333368948,  0.500000000286930 ]
    mass: 6.940000
    reduced_to: 28
  - symbol: Li # 43
    coordinates: [  0.166666666794592,  0.666666666702281,  0.500000000286930 ]
    mass: 6.940000
    reduced_to: 28
  - symbol: Li # 44
    coordinates: [  0.500000000127926,  0.666666666702281,  0.500000000286930 ]
    mass: 6.940000
    reduced_to: 28
  - symbol: Li # 45
    coordinates: [  0.833333333461259,  0.666666666702281,  0.500000000286930 ]
    mass: 6.940000
    reduced_to: 28
  - symbol: Li # 46
    coordinates: [  0.166666666794592,  0.000000000035614,  0.833333333620263 ]
    mass: 6.940000
    reduced_to: 28
  - symbol: Li # 47
    coordinates: [  0.500000000127926,  0.000000000035614,  0.833333333620263 ]
    mass: 6.940000
    reduced_to: 28
  - symbol: Li # 48
    coordinates: [  0.833333333461259,  0.000000000035614,  0.833333333620263 ]
    mass: 6.940000
    reduced_to: 28
  - symbol: Li # 49
    coordinates: [  0.166666666794592,  0.333333333368948,  0.833333333620263 ]
    mass: 6.940000
    reduced_to: 28
  - symbol: Li # 50
    coordinates: [  0.500000000127926,  0.333333333368948,  0.833333333620263 ]
    mass: 6.940000
    reduced_to: 28
  - symbol: Li # 51
    coordinates: [  0.833333333461259,  0.333333333368948,  0.833333333620263 ]
    mass: 6.940000
    reduced_to: 28
  - symbol: Li # 52
    coordinates: [  0.166666666794592,  0.666666666702281,  0.833333333620263 ]
    mass: 6.940000
    reduced_to: 28
  - symbol: Li # 53
    coordinates: [  0.500000000127926,  0.666666666702281,  0.833333333620263 ]
    mass: 6.940000
    reduced_to: 28
  - symbol: Li # 54
    coordinates: [  0.833333333461259,  0.666666666702281,  0.833333333620263 ]
    mass: 6.940000
    reduced_to: 28
  - symbol: Li # 55
    coordinates: [  0.166666666846481,  0.166666666959490,  0.000000000048705 ]
    mass: 6.940000
    reduced_to: 55
  - symbol: Li # 56
    coordinates: [  0.500000000179814,  0.166666666959490,  0.000000000048705 ]
    mass: 6.940000
    reduced_to: 55
  - symbol: Li # 57
    coordinates: [  0.833333333513148,  0.166666666959490,  0.000000000048705 ]
    mass: 6.940000
    reduced_to: 55
  - symbol: Li # 58
    coordinates: [  0.166666666846481,  0.500000000292823,  0.000000000048705 ]
    mass: 6.940000
    reduced_to: 55
  - symbol: Li # 59
    coordinates: [  0.500000000179814,  0.500000000292823,  0.000000000048705 ]
    mass: 6.940000
    reduced_to: 55
  - symbol: Li # 60
    coordinates: [  0.833333333513148,  0.500000000292823,  0.000000000048705 ]
    mass: 6.940000
    reduced_to: 55
  - symbol: Li # 61
    coordinates: [  0.166666666846481,  0.833333333626157,  0.000000000048705 ]
    mass: 6.940000
    reduced_to: 55
  - symbol: Li # 62
    coordinates: [  0.500000000179814,  0.833333333626157,  0.000000000048705 ]
    mass: 6.940000
    reduced_to: 55
  - symbol: Li # 63
    coordinates: [  0.833333333513148,  0.833333333626157,  0.000000000048705 ]
    mass: 6.940000
    reduced_to: 55
  - symbol: Li # 64
    coordinates: [  0.166666666846481,  0.166666666959490,  0.333333333382039 ]
    mass: 6.940000
    reduced_to: 55
  - symbol: Li # 65
    coordinates: [  0.500000000179814,  0.166666666959490,  0.333333333382039 ]
    mass: 6.940000
    reduced_to: 55
  - symbol: Li # 66
    coordinates: [  0.833333333513148,  0.166666666959490,  0.333333333382039 ]
    mass: 6.940000
    reduced_to: 55
  - symbol: Li # 67
    coordinates: [  0.166666666846481,  0.500000000292823,  0.333333333382039 ]
    mass: 6.940000
    reduced_to: 55
  - symbol: Li # 68
    coordinates: [  0.500000000179814,  0.500000000292823,  0.333333333382039 ]
    mass: 6.940000
    reduced_to: 55
  - symbol: Li # 69
    coordinates: [  0.833333333513148,  0.500000000292823,  0.333333333382039 ]
    mass: 6.940000
    reduced_to: 55
  - symbol: Li # 70
    coordinates: [  0.166666666846481,  0.833333333626157,  0.333333333382039 ]
    mass: 6.940000
    reduced_to: 55
  - symbol: Li # 71
    coordinates: [  0.500000000179814,  0.833333333626157,  0.333333333382039 ]
    mass: 6.940000
    reduced_to: 55
  - symbol: Li # 72
    coordinates: [  0.833333333513148,  0.833333333626157,  0.333333333382039 ]
    mass: 6.940000
    reduced_to: 55
  - symbol: Li # 73
    coordinates: [  0.166666666846481,  0.166666666959490,  0.666666666715372 ]
    mass: 6.940000
    reduced_to: 55
  - symbol: Li # 74
    coordinates: [  0.500000000179814,  0.166666666959490,  0.666666666715372 ]
    mass: 6.940000
    reduced_to: 55
  - symbol: Li # 75
    coordinates: [  0.833333333513148,  0.166666666959490,  0.666666666715372 ]
    mass: 6.940000
    reduced_to: 55
  - symbol: Li # 76
    coordinates: [  0.166666666846481,  0.500000000292823,  0.666666666715372 ]
    mass: 6.940000
    reduced_to: 55
  - symbol: Li # 77
    coordinates: [  0.500000000179814,  0.500000000292823,  0.666666666715372 ]
    mass: 6.940000
    reduced_to: 55
  - symbol: Li # 78
    coordinates: [  0.833333333513148,  0.500000000292823,  0.666666666715372 ]
    mass: 6.940000
    reduced_to: 55
  - symbol: Li # 79
    coordinates: [  0.166666666846481,  0.833333333626157,  0.666666666715372 ]
    mass: 6.940000
    reduced_to: 55
  - symbol: Li # 80
    coordinates: [  0.500000000179814,  0.833333333626157,  0.666666666715372 ]
    mass: 6.940000
    reduced_to: 55
  - symbol: Li # 81
    coordinates: [  0.833333333513148,  0.833333333626157,  0.666666666715372 ]
    mass: 6.940000
    reduced_to: 55
  - symbol: Sn # 82
    coordinates: [  0.333333332996972,  0.333333332854317,  0.333333332759215 ]
    mass: 118.710000
    reduced_to: 82
  - symbol: Sn # 83
    coordinates: [  0.666666666330305,  0.333333332854317,  0.333333332759215 ]
    mass: 118.710000
    reduced_to: 82
  - symbol: Sn # 84
    coordinates: [  0.999999999663639,  0.333333332854317,  0.333333332759215 ]
    mass: 118.710000
    reduced_to: 82
  - symbol: Sn # 85
    coordinates: [  0.333333332996972,  0.666666666187650,  0.333333332759215 ]
    mass: 118.710000
    reduced_to: 82
  - symbol: Sn # 86
    coordinates: [  0.666666666330305,  0.666666666187650,  0.333333332759215 ]
    mass: 118.710000
    reduced_to: 82
  - symbol: Sn # 87
    coordinates: [  0.999999999663639,  0.666666666187650,  0.333333332759215 ]
    mass: 118.710000
    reduced_to: 82
  - symbol: Sn # 88
    coordinates: [  0.333333332996972,  0.999999999520983,  0.333333332759215 ]
    mass: 118.710000
    reduced_to: 82
  - symbol: Sn # 89
    coordinates: [  0.666666666330305,  0.999999999520983,  0.333333332759215 ]
    mass: 118.710000
    reduced_to: 82
  - symbol: Sn # 90
    coordinates: [  0.999999999663639,  0.999999999520983,  0.333333332759215 ]
    mass: 118.710000
    reduced_to: 82
  - symbol: Sn # 91
    coordinates: [  0.333333332996972,  0.333333332854317,  0.666666666092549 ]
    mass: 118.710000
    reduced_to: 82
  - symbol: Sn # 92
    coordinates: [  0.666666666330305,  0.333333332854317,  0.666666666092549 ]
    mass: 118.710000
    reduced_to: 82
  - symbol: Sn # 93
    coordinates: [  0.999999999663639,  0.333333332854317,  0.666666666092549 ]
    mass: 118.710000
    reduced_to: 82
  - symbol: Sn # 94
    coordinates: [  0.333333332996972,  0.666666666187650,  0.666666666092549 ]
    mass: 118.710000
    reduced_to: 82
  - symbol: Sn # 95
    coordinates: [  0.666666666330305,  0.666666666187650,  0.666666666092549 ]
    mass: 118.710000
    reduced_to: 82
  - symbol: Sn # 96
    coordinates: [  0.999999999663639,  0.666666666187650,  0.666666666092549 ]
    mass: 118.710000
    reduced_to: 82
  - symbol: Sn # 97
    coordinates: [  0.333333332996972,  0.999999999520983,  0.666666666092549 ]
    mass: 118.710000
    reduced_to: 82
  - symbol: Sn # 98
    coordinates: [  0.666666666330305,  0.999999999520983,  0.666666666092549 ]
    mass: 118.710000
    reduced_to: 82
  - symbol: Sn # 99
    coordinates: [  0.999999999663639,  0.999999999520983,  0.666666666092549 ]
    mass: 118.710000
    reduced_to: 82
  - symbol: Sn # 100
    coordinates: [  0.333333332996972,  0.333333332854317,  0.999999999425882 ]
    mass: 118.710000
    reduced_to: 82
  - symbol: Sn # 101
    coordinates: [  0.666666666330305,  0.333333332854317,  0.999999999425882 ]
    mass: 118.710000
    reduced_to: 82
  - symbol: Sn # 102
    coordinates: [  0.999999999663639,  0.333333332854317,  0.999999999425882 ]
    mass: 118.710000
    reduced_to: 82
  - symbol: Sn # 103
    coordinates: [  0.333333332996972,  0.666666666187650,  0.999999999425882 ]
    mass: 118.710000
    reduced_to: 82
  - symbol: Sn # 104
    coordinates: [  0.666666666330305,  0.666666666187650,  0.999999999425882 ]
    mass: 118.710000
    reduced_to: 82
  - symbol: Sn # 105
    coordinates: [  0.999999999663639,  0.666666666187650,  0.999999999425882 ]
    mass: 118.710000
    reduced_to: 82
  - symbol: Sn # 106
    coordinates: [  0.333333332996972,  0.999999999520983,  0.999999999425882 ]
    mass: 118.710000
    reduced_to: 82
  - symbol: Sn # 107
    coordinates: [  0.666666666330305,  0.999999999520983,  0.999999999425882 ]
    mass: 118.710000
    reduced_to: 82
  - symbol: Sn # 108
    coordinates: [  0.999999999663639,  0.999999999520983,  0.999999999425882 ]
    mass: 118.710000
    reduced_to: 82

displacements:
- atom:    1
  displacement:
    [   0.0070710678776158,  0.0070710677461151,  0.0000000000000000 ]
  forces:
  - [  -0.0131802102550864, -0.0141128255054355,  0.0000010635703802 ]
  - [  -0.0007577415090054,  0.0001272484660149,  0.0000003947061487 ]
  - [  -0.0007509551942348,  0.0001244284212589,  0.0000004550383892 ]
  - [  -0.0000055024120229, -0.0002461140975356,  0.0000000791624188 ]
  - [  -0.0000475070919492, -0.0000484213232994,  0.0000001172447810 ]
  - [  -0.0000566258095205, -0.0000565499067307,  0.0000005011097528 ]
  - [  -0.0000070495480031, -0.0002327721158508,  0.0000002970919013 ]
  - [  -0.0000566195631109, -0.0000565415393794,  0.0000004135072231 ]
  - [  -0.0000503705377923, -0.0000510540121468,  0.0000004954636097 ]
  - [  -0.0000061341852415, -0.0000513447448611, -0.0000009844079614 ]
  - [  -0.0000518653541803, -0.0000154003500938,  0.0000047442881623 ]
  - [  -0.0000530281104147, -0.0000142380595207, -0.0000019498693291 ]
  - [  -0.0000961797268246, -0.0007189009338617, -0.0005863858386874 ]
  - [   0.0000123057525343,  0.0000022724270821, -0.0000023891334422 ]
  - [   0.0000016666017473, -0.0000095777213573, -0.0000141283962876 ]
  - [  -0.0000937874574447, -0.0007275566458702,  0.0005973707884550 ]
  - [   0.0000007359776646, -0.0000093920243671,  0.0000137314200401 ]
  - [   0.0000130014959723,  0.0000015363038983,  0.0000021569430828 ]
  - [  -0.0000057525139709, -0.0000517275184393,  0.0000026412308216 ]
  - [  -0.0000517910593771, -0.0000156722962856, -0.0000035439006751 ]
  - [  -0.0000526965159224, -0.0000149272382259,  0.0000035267003113 ]
  - [  -0.0000964328137343, -0.0007185302674770,  0.0005876906216145 ]
  - [   0.0000124306898215,  0.0000020489096642,  0.0000035082775867 ]
  - [   0.0000018617138267, -0.0000095479190350,  0.0000150637060869 ]
  - [  -0.0000941786856856, -0.0007289759814739, -0.0005964525043964 ]
  - [   0.0000010612420738, -0.0000098387081380, -0.0000124759972095 ]
  - [   0.0000130928065118,  0.0000014112902136, -0.0000006407499313 ]
  - [  -0.0002484293654561, -0.0000061362807173,  0.0000004312023520 ]
  - [   0.0000214213505387, -0.0000009965820027,  0.0000004833564162 ]
  - [   0.0031064972281456,  0.0028698230162263,  0.0000000922009349 ]
  - [   0.0031750174239278,  0.0029414892196655,  0.0000004759785952 ]
  - [   0.0000205319374800, -0.0000010376561477, -0.0000000411964720 ]
  - [  -0.0002413490583422, -0.0000164010853041,  0.0000000894069672 ]
  - [  -0.0000007925555110,  0.0000204602256417,  0.0000005909532774 ]
  - [   0.0000022565945983,  0.0000012398231775, -0.0000001412845450 ]
  - [  -0.0000011069150787,  0.0000210406724364,  0.0000000968575478 ]
  - [   0.0003518033772707,  0.0001619511313038,  0.0002155387774110 ]
  - [   0.0000006677582860, -0.0000000543782548,  0.0000329585745931 ]
  - [  -0.0001177686863230,  0.0000762312847655, -0.0000853221863508 ]
  - [  -0.0001176921650767,  0.0000744378194213,  0.0000856712431414 ]
  - [   0.0000005019828677, -0.0000000447034836, -0.0000335260556312 ]
  - [   0.0003571131092031,  0.0001622689887881, -0.0002213828265667 ]
  - [  -0.0000004190951586,  0.0000013194512576,  0.0000029892689781 ]
  - [  -0.0000004107132554,  0.0000001357402653,  0.0000003798340913 ]
  - [  -0.0000010419698810,  0.0000010915100574, -0.0000021047890186 ]
  - [   0.0003515537828207,  0.0001621153642191, -0.0002137273550034 ]
  - [   0.0000017071142793, -0.0000003000955076, -0.0000311844050884 ]
  - [  -0.0001180395483971,  0.0000762817944633,  0.0000863559544086 ]
  - [  -0.0001172497868538,  0.0000745160505176, -0.0000837043044157 ]
  - [   0.0000003492459655,  0.0000002714805305,  0.0000341178529197 ]
  - [   0.0003565114166122,  0.0001624408178031,  0.0002231858670712 ]
  - [  -0.0000007199123502,  0.0000014577526599, -0.0000014591787476 ]
  - [  -0.0000003576278687,  0.0000006037298590,  0.0000005067995517 ]
  - [  -0.0000015551922843,  0.0000014659017324,  0.0000037662684917 ]
  - [   0.0014489898458123, -0.0001601437106729, -0.0014646496856585 ]
  - [   0.0000210190191865,  0.0000231489539146, -0.0000002463062287 ]
  - [   0.0014463178813457, -0.0001540677621961,  0.0014521023258567 ]
  - [   0.0000528329983354,  0.0001661917194724, -0.0001078644127119 ]
  - [   0.0000006342306733, -0.0000123009085655, -0.0000029084626476 ]
  - [   0.0001864981313702, -0.0001406352967024, -0.0001961106318049 ]
  - [   0.0001839557662606, -0.0001346804201603,  0.0001945627154782 ]
  - [   0.0000016260892153, -0.0000102035701275,  0.0000016182309537 ]
  - [   0.0000503845512867,  0.0001665838062763,  0.0001090481237043 ]
  - [   0.0014485074207187, -0.0001598019152880,  0.0014638742431998 ]
  - [   0.0000207833945751,  0.0000230232253671, -0.0000001473817974 ]
  - [   0.0014464876148850, -0.0001536943018436, -0.0014526057057083 ]
  - [   0.0000529233366251,  0.0001668091863394,  0.0001071677543223 ]
  - [   0.0000009173527360, -0.0000118417665362,  0.0000026749912649 ]
  - [   0.0001852390269050, -0.0001393388956785,  0.0001955195330083 ]
  - [   0.0001844502985477, -0.0001343351759715, -0.0001951125450432 ]
  - [   0.0000008149072528, -0.0000104561404441, -0.0000025168992579 ]
  - [   0.0000495936546940,  0.0001673911174294, -0.0001097675412893 ]
  - [  -0.0000017564743757,  0.0000222213566303, -0.0000005038455129 ]
  - [   0.0000012451782823, -0.0000080289319158, -0.0000003380700946 ]
  - [  -0.0000023876727937,  0.0000221971422434, -0.0000005359761417 ]
  - [  -0.0000334149226546, -0.0000094454735518, -0.0000005806796253 ]
  - [  -0.0000001862645149,  0.0000041555613279, -0.0000005473848432 ]
  - [   0.0000326928202412, -0.0000141775235534, -0.0000004018656909 ]
  - [   0.0000326251611114, -0.0000153948585648, -0.0000003180466592 ]
  - [  -0.0000000754371285,  0.0000037263871491, -0.0000002363231033 ]
  - [  -0.0000339461839758, -0.0000099677945400, -0.0000000838190317 ]
  - [   0.0002134045353159,  0.0001119809312513, -0.0000155135057867 ]
  - [  -0.0002188980579376,  0.0000556582745048, -0.0000706384889781 ]
  - [   0.0004748925566673,  0.0025403560139239,  0.0028561800718307 ]
  - [  -0.0000063044803937, -0.0000356398522854, -0.0000011259689927 ]
  - [  -0.0000047869980335, -0.0000362955033779,  0.0000018230639398 ]
  - [   0.0000124908983707,  0.0003726556897163,  0.0000008866190910 ]
  - [  -0.0002214549022028,  0.0000554956495762,  0.0000705905258656 ]
  - [   0.0002128060586983,  0.0001090420410037,  0.0000151097774506 ]
  - [   0.0004859417676926,  0.0025062263011932, -0.0028014518320560 ]
  - [  -0.0000246439394687, -0.0000029429793358, -0.0000005443580449 ]
  - [   0.0000141486525536,  0.0000002570450306, -0.0000013262033463 ]
  - [   0.0000127591192722, -0.0000290945172310, -0.0000009387731552 ]
  - [  -0.0000013038516045,  0.0000034533441067, -0.0000008014030755 ]
  - [   0.0000002048909664,  0.0000034905970097, -0.0000014095567167 ]
  - [   0.0000036992132664,  0.0000595524907112, -0.0000012256205082 ]
  - [   0.0000137574970722,  0.0000005336478353, -0.0000007711350918 ]
  - [  -0.0000242527930823, -0.0000017122365534, -0.0000011324882507 ]
  - [   0.0000122003257275, -0.0000294521450996, -0.0000011697411537 ]
  - [   0.0002129437634721,  0.0001125410199165,  0.0000146417878568 ]
  - [  -0.0002190556697315,  0.0000562258064747,  0.0000691465102136 ]
  - [   0.0004750154912472,  0.0025424100458622, -0.0028571509756148 ]
  - [  -0.0000059753656387, -0.0000357665121555,  0.0000000600703061 ]
  - [  -0.0000046838422350, -0.0000351704657078, -0.0000033676624298 ]
  - [   0.0000130049884319,  0.0003728270530701, -0.0000027948990464 ]
  - [  -0.0002205558121204,  0.0000559277832508, -0.0000719665549695 ]
  - [   0.0002104304730892,  0.0001095719635487, -0.0000168303959072 ]
  - [   0.0004867315292358,  0.0025062337517738,  0.0028001740574837 ]
- atom:   82
  displacement:
    [   0.0100000000000000,  0.0000000000000000,  0.0000000000000000 ]
  forces:
  - [  -0.0000041052308006,  0.0003047212958336,  0.0003053545951843 ]
  - [   0.0006795555818826,  0.0000177137553692,  0.0000181973446161 ]
  - [  -0.0000069008674473, -0.0003077685832977, -0.0003074572305195 ]
  - [  -0.0000043574063966, -0.0003047138452530,  0.0003046691417694 ]
  - [   0.0006796637317166, -0.0000177994370461,  0.0000177128385985 ]
  - [  -0.0000067555811256,  0.0003080628812313, -0.0003071732935496 ]
  - [  -0.0000084942521426,  0.0000011574832115, -0.0000268071889877 ]
  - [   0.0000155695743160,  0.0000010163057595,  0.0000016801059246 ]
  - [  -0.0000077308650361,  0.0000005336623872,  0.0000283941626549 ]
  - [  -0.0000039851402107,  0.0003041727468371, -0.0003043599426746 ]
  - [   0.0006797112291679,  0.0000176206231117, -0.0000173690059455 ]
  - [  -0.0000065916683525, -0.0003073811531067,  0.0003083887859248 ]
  - [  -0.0000036240478494, -0.0003044009208679, -0.0003043208271265 ]
  - [   0.0006790203624405, -0.0000176802277565, -0.0000175119930645 ]
  - [  -0.0000062722247094,  0.0003073848783970,  0.0003078716690652 ]
  - [  -0.0000084155772129, -0.0000003539025784,  0.0000272588804364 ]
  - [   0.0000159896444529, -0.0000003939203452, -0.0000015534460545 ]
  - [  -0.0000074415002018, -0.0000010043440852, -0.0000281110405922 ]
  - [  -0.0000080952149801, -0.0000276956707239,  0.0000011138617992 ]
  - [   0.0000166679019458,  0.0000007934868336,  0.0000009742652765 ]
  - [  -0.0000074153795140,  0.0000273473560810,  0.0000006947957445 ]
  - [  -0.0000083894110503,  0.0000272085890174,  0.0000015124678612 ]
  - [   0.0000160246636369, -0.0000016838312149,  0.0000010006042430 ]
  - [  -0.0000072373077273, -0.0000282116234303,  0.0000009249633877 ]
  - [  -0.0000017485857597, -0.0000009909272194,  0.0000014081597328 ]
  - [   0.0000029336661100, -0.0000008762123684,  0.0000014975667000 ]
  - [  -0.0000008681817008, -0.0000010646451756,  0.0000017173588276 ]
  - [   0.0001192120835185,  0.0000409422355006, -0.0000581294298172 ]
  - [   0.0001170793548226, -0.0000374867304345,  0.0000640964135528 ]
  - [  -0.0000500194728374, -0.0000002340469791,  0.0000006686896086 ]
  - [   0.0035213092342019, -0.0000002845664540,  0.0039191106334329 ]
  - [   0.0036155842244625, -0.0000000998037208, -0.0040835710242391 ]
  - [   0.0005282321362756, -0.0000000140138390, -0.0000051483511925 ]
  - [   0.0001188693568110, -0.0000417910050601, -0.0000579451734666 ]
  - [   0.0001175813376904,  0.0000367956236005,  0.0000636397890048 ]
  - [  -0.0000506595461047, -0.0000005641486496,  0.0000005587935448 ]
  - [   0.0001187575981021,  0.0000414124588133,  0.0000590952113271 ]
  - [   0.0001168083399534, -0.0000373107577616, -0.0000636167824268 ]
  - [  -0.0000500466339872,  0.0000001273024850, -0.0000004507601261 ]
  - [   0.0035214740782976,  0.0000002505257726, -0.0039180843159556 ]
  - [   0.0036159660667181,  0.0000000398140401,  0.0040835160762072 ]
  - [   0.0005266109947115,  0.0000000891741365,  0.0000054799020290 ]
  - [   0.0001185340806842, -0.0000410364009440,  0.0000590224517509 ]
  - [   0.0001166537404060,  0.0000373199582100, -0.0000632842275081 ]
  - [  -0.0000513529885211,  0.0000002232845873,  0.0000000149011612 ]
  - [  -0.0000029634684324, -0.0000023165978291,  0.0000015012919903 ]
  - [  -0.0000017210841179,  0.0000016881183456,  0.0000020787119865 ]
  - [   0.0000049993395805,  0.0000000236558861,  0.0000010021030903 ]
  - [  -0.0000413339585066,  0.0000004786998034,  0.0000015890254872 ]
  - [  -0.0000431407243013,  0.0000002637971193,  0.0000009070645319 ]
  - [   0.0000828873526189,  0.0000003851018846,  0.0000015683472157 ]
  - [  -0.0000032875686884,  0.0000028249341995,  0.0000010522489902 ]
  - [  -0.0000030025839806, -0.0000014631077647,  0.0000003515160643 ]
  - [   0.0000035568227759,  0.0000006607733667,  0.0000011771917343 ]
  - [   0.0001187035813928, -0.0000582570210099,  0.0000409828062402 ]
  - [   0.0001169946044683,  0.0000637266784906, -0.0000376711977879 ]
  - [  -0.0000501088798046,  0.0000002598389983, -0.0000002459569828 ]
  - [   0.0001183394342661,  0.0000586090609431,  0.0000404766178690 ]
  - [   0.0001168400049210, -0.0000643869861960, -0.0000375421950594 ]
  - [  -0.0000496033244417, -0.0000012451782823, -0.0000005737970810 ]
  - [  -0.0000030472874641,  0.0000011697411537, -0.0000032240070595 ]
  - [  -0.0000017341226339,  0.0000012628734112,  0.0000009781358585 ]
  - [   0.0000045970082283,  0.0000002570450306, -0.0000008368811564 ]
  - [   0.0035212328657508,  0.0039190342649817, -0.0000002239830792 ]