phonopy:
  version: "2.37.1"
  frequency_unit_conversion_factor: 15.633302
  symmetry_tolerance: 1.00000e-05

space_group:
  type: "Pmmm"
  number: 47
  Hall_symbol: "-P 2 2"

primitive_matrix:
- [  1.000000000000000,  0.000000000000000,  0.000000000000000 ]
- [  0.000000000000000,  1.000000000000000,  0.000000000000000 ]
- [  0.000000000000000,  0.000000000000000,  1.000000000000000 ]

supercell_matrix:
- [   3,   0,   0 ]
- [   0,   3,   0 ]
- [   0,   0,   2 ]

primitive_cell:
  lattice:
  - [     3.389387997691018,     0.000000000000000,     0.000000000000000 ] # a
  - [    -0.000000039542999,     4.469071333927350,     0.000000000000000 ] # b
  - [     0.000000107472429,     0.000000853137927,     6.667600129594677 ] # c
  points:
  - symbol: Li # 1
    coordinates: [  0.999999988654740,  0.999999995294128,  0.000000001898860 ]
    mass: 6.940000
  - symbol: Sn # 2
    coordinates: [  0.500000003447816,  0.500000023440013,  0.765422339756538 ]
    mass: 118.710000
  - symbol: Sn # 3
    coordinates: [  0.999999998274590,  0.999999978617489,  0.500000006393450 ]
    mass: 118.710000
  - symbol: Sn # 4
    coordinates: [  0.500000010306168,  0.500000002670747,  0.234577651735613 ]
    mass: 118.710000
  reciprocal_lattice: # without 2pi
  - [     0.295038514528652,     0.000000002610544,    -0.000000004755610 ] # a*
  - [     0.000000000000000,     0.223760133880256,    -0.000000028630730 ] # b*
  - [     0.000000000000000,     0.000000000000000,     0.149979000024525 ] # c*

unit_cell:
  lattice:
  - [     3.389387997691018,     0.000000000000000,     0.000000000000000 ] # a
  - [    -0.000000039542999,     4.469071333927350,     0.000000000000000 ] # b
  - [     0.000000107472429,     0.000000853137927,     6.667600129594677 ] # c
  points:
  - symbol: Li # 1
    coordinates: [  0.999999988654740,  0.999999995294129,  0.000000001898860 ]
    mass: 6.940000
    reduced_to: 1
  - symbol: Sn # 2
    coordinates: [  0.500000003447816,  0.500000023440013,  0.765422339756538 ]
    mass: 118.710000
    reduced_to: 2
  - symbol: Sn # 3
    coordinates: [  0.999999998274590,  0.999999978617489,  0.500000006393450 ]
    mass: 118.710000
    reduced_to: 3
  - symbol: Sn # 4
    coordinates: [  0.500000010306168,  0.500000002670747,  0.234577651735613 ]
    mass: 118.710000
    reduced_to: 4

supercell:
  lattice:
  - [    10.168163993073055,     0.000000000000000,     0.000000000000000 ] # a
  - [    -0.000000118628998,    13.407214001782052,     0.000000000000000 ] # b
  - [     0.000000214944858,     0.000001706275855,    13.335200259189355 ] # c
  points:
  - symbol: Li # 1
    coordinates: [  0.333333329551580,  0.333333331764709,  0.000000000949430 ]
    mass: 6.940000
    reduced_to: 1
  - symbol: Li # 2
    coordinates: [  0.666666662884913,  0.333333331764709,  0.000000000949430 ]
    mass: 6.940000
    reduced_to: 1
  - symbol: Li # 3
    coordinates: [  0.999999996218247,  0.333333331764709,  0.000000000949430 ]
    mass: 6.940000
    reduced_to: 1
  - symbol: Li # 4
    coordinates: [  0.333333329551580,  0.666666665098043,  0.000000000949430 ]
    mass: 6.940000
    reduced_to: 1
  - symbol: Li # 5
    coordinates: [  0.666666662884913,  0.666666665098043,  0.000000000949430 ]
    mass: 6.940000
    reduced_to: 1
  - symbol: Li # 6
    coordinates: [  0.999999996218247,  0.666666665098043,  0.000000000949430 ]
    mass: 6.940000
    reduced_to: 1
  - symbol: Li # 7
    coordinates: [  0.333333329551580,  0.999999998431376,  0.000000000949430 ]
    mass: 6.940000
    reduced_to: 1
  - symbol: Li # 8
    coordinates: [  0.666666662884913,  0.999999998431376,  0.000000000949430 ]
    mass: 6.940000
    reduced_to: 1
  - symbol: Li # 9
    coordinates: [  0.999999996218247,  0.999999998431376,  0.000000000949430 ]
    mass: 6.940000
    reduced_to: 1
  - symbol: Li # 10
    coordinates: [  0.333333329551580,  0.333333331764709,  0.500000000949430 ]
    mass: 6.940000
    reduced_to: 1
  - symbol: Li # 11
    coordinates: [  0.666666662884913,  0.333333331764709,  0.500000000949430 ]
    mass: 6.940000
    reduced_to: 1
  - symbol: Li # 12
    coordinates: [  0.999999996218247,  0.333333331764709,  0.500000000949430 ]
    mass: 6.940000
    reduced_to: 1
  - symbol: Li # 13
    coordinates: [  0.333333329551580,  0.666666665098043,  0.500000000949430 ]
    mass: 6.940000
    reduced_to: 1
  - symbol: Li # 14
    coordinates: [  0.666666662884913,  0.666666665098043,  0.500000000949430 ]
    mass: 6.940000
    reduced_to: 1
  - symbol: Li # 15
    coordinates: [  0.999999996218247,  0.666666665098043,  0.500000000949430 ]
    mass: 6.940000
    reduced_to: 1
  - symbol: Li # 16
    coordinates: [  0.333333329551580,  0.999999998431376,  0.500000000949430 ]
    mass: 6.940000
    reduced_to: 1
  - symbol: Li # 17
    coordinates: [  0.666666662884913,  0.999999998431376,  0.500000000949430 ]
    mass: 6.940000
    reduced_to: 1
  - symbol: Li # 18
    coordinates: [  0.999999996218247,  0.999999998431376,  0.500000000949430 ]
    mass: 6.940000
    reduced_to: 1
  - symbol: Sn # 19
    coordinates: [  0.166666667815939,  0.166666674480004,  0.382711169878269 ]
    mass: 118.710000
    reduced_to: 19
  - symbol: Sn # 20
    coordinates: [  0.500000001149272,  0.166666674480004,  0.382711169878269 ]
    mass: 118.710000
    reduced_to: 19
  - symbol: Sn # 21
    coordinates: [  0.833333334482605,  0.166666674480004,  0.382711169878269 ]
    mass: 118.710000
    reduced_to: 19
  - symbol: Sn # 22
    coordinates: [  0.166666667815939,  0.500000007813338,  0.382711169878269 ]
    mass: 118.710000
    reduced_to: 19
  - symbol: Sn # 23
    coordinates: [  0.500000001149272,  0.500000007813338,  0.382711169878269 ]
    mass: 118.710000
    reduced_to: 19
  - symbol: Sn # 24
    coordinates: [  0.833333334482605,  0.500000007813338,  0.382711169878269 ]
    mass: 118.710000
    reduced_to: 19
  - symbol: Sn # 25
    coordinates: [  0.166666667815939,  0.833333341146671,  0.382711169878269 ]
    mass: 118.710000
    reduced_to: 19
  - symbol: Sn # 26
    coordinates: [  0.500000001149272,  0.833333341146671,  0.382711169878269 ]
    mass: 118.710000
    reduced_to: 19
  - symbol: Sn # 27
    coordinates: [  0.833333334482605,  0.833333341146671,  0.382711169878269 ]
    mass: 118.710000
    reduced_to: 19
  - symbol: Sn # 28
    coordinates: [  0.166666667815939,  0.166666674480004,  0.882711169878269 ]
    mass: 118.710000
    reduced_to: 19
  - symbol: Sn # 29
    coordinates: [  0.500000001149272,  0.166666674480004,  0.882711169878269 ]
    mass: 118.710000
    reduced_to: 19
  - symbol: Sn # 30
    coordinates: [  0.833333334482605,  0.166666674480004,  0.882711169878269 ]
    mass: 118.710000
    reduced_to: 19
  - symbol: Sn # 31
    coordinates: [  0.166666667815939,  0.500000007813338,  0.882711169878269 ]
    mass: 118.710000
    reduced_to: 19
  - symbol: Sn # 32
    coordinates: [  0.500000001149272,  0.500000007813338,  0.882711169878269 ]
    mass: 118.710000
    reduced_to: 19
  - symbol: Sn # 33
    coordinates: [  0.833333334482605,  0.500000007813338,  0.882711169878269 ]
    mass: 118.710000
    reduced_to: 19
  - symbol: Sn # 34
    coordinates: [  0.166666667815939,  0.833333341146671,  0.882711169878269 ]
    mass: 118.710000
    reduced_to: 19
  - symbol: Sn # 35
    coordinates: [  0.500000001149272,  0.833333341146671,  0.882711169878269 ]
    mass: 118.710000
    reduced_to: 19
  - symbol: Sn # 36
    coordinates: [  0.833333334482605,  0.833333341146671,  0.882711169878269 ]
    mass: 118.710000
    reduced_to: 19
  - symbol: Sn # 37
    coordinates: [  0.333333332758197,  0.333333326205830,  0.250000003196725 ]
    mass: 118.710000
    reduced_to: 37
  - symbol: Sn # 38
    coordinates: [  0.666666666091530,  0.333333326205830,  0.250000003196725 ]
    mass: 118.710000
    reduced_to: 37
  - symbol: Sn # 39
    coordinates: [  0.999999999424863,  0.333333326205830,  0.250000003196725 ]
    mass: 118.710000
    reduced_to: 37
  - symbol: Sn # 40
    coordinates: [  0.333333332758197,  0.666666659539163,  0.250000003196725 ]
    mass: 118.710000
    reduced_to: 37
  - symbol: Sn # 41
    coordinates: [  0.666666666091530,  0.666666659539163,  0.250000003196725 ]
    mass: 118.710000
    reduced_to: 37
  - symbol: Sn # 42
    coordinates: [  0.999999999424863,  0.666666659539163,  0.250000003196725 ]
    mass: 118.710000
    reduced_to: 37
  - symbol: Sn # 43
    coordinates: [  0.333333332758197,  0.999999992872496,  0.250000003196725 ]
    mass: 118.710000
    reduced_to: 37
  - symbol: Sn # 44
    coordinates: [  0.666666666091530,  0.999999992872496,  0.250000003196725 ]
    mass: 118.710000
    reduced_to: 37
  - symbol: Sn # 45
    coordinates: [  0.999999999424863,  0.999999992872496,  0.250000003196725 ]
    mass: 118.710000
    reduced_to: 37
  - symbol: Sn # 46
    coordinates: [  0.333333332758197,  0.333333326205830,  0.750000003196725 ]
    mass: 118.710000
    reduced_to: 37
  - symbol: Sn # 47
    coordinates: [  0.666666666091530,  0.333333326205830,  0.750000003196725 ]
    mass: 118.710000
    reduced_to: 37
  - symbol: Sn # 48
    coordinates: [  0.999999999424863,  0.333333326205830,  0.750000003196725 ]
    mass: 118.710000
    reduced_to: 37
  - symbol: Sn # 49
    coordinates: [  0.333333332758197,  0.666666659539163,  0.750000003196725 ]
    mass: 118.710000
    reduced_to: 37
  - symbol: Sn # 50
    coordinates: [  0.666666666091530,  0.666666659539163,  0.750000003196725 ]
    mass: 118.710000
    reduced_to: 37
  - symbol: Sn # 51
    coordinates: [  0.999999999424863,  0.666666659539163,  0.750000003196725 ]
    mass: 118.710000
    reduced_to: 37
  - symbol: Sn # 52
    coordinates: [  0.333333332758197,  0.999999992872496,  0.750000003196725 ]
    mass: 118.710000
    reduced_to: 37
  - symbol: Sn # 53
    coordinates: [  0.666666666091530,  0.999999992872496,  0.750000003196725 ]
    mass: 118.710000
    reduced_to: 37
  - symbol: Sn # 54
    coordinates: [  0.999999999424863,  0.999999992872496,  0.750000003196725 ]
    mass: 118.710000
    reduced_to: 37
  - symbol: Sn # 55
    coordinates: [  0.166666670102056,  0.166666667556916,  0.117288825867806 ]
    mass: 118.710000
    reduced_to: 55
  - symbol: Sn # 56
    coordinates: [  0.500000003435389,  0.166666667556916,  0.117288825867806 ]
    mass: 118.710000
    reduced_to: 55
  - symbol: Sn # 57
    coordinates: [  0.833333336768723,  0.166666667556916,  0.117288825867806 ]
    mass: 118.710000
    reduced_to: 55
  - symbol: Sn # 58
    coordinates: [  0.166666670102056,  0.500000000890249,  0.117288825867806 ]
    mass: 118.710000
    reduced_to: 55
  - symbol: Sn # 59
    coordinates: [  0.500000003435389,  0.500000000890249,  0.117288825867806 ]
    mass: 118.710000
    reduced_to: 55
  - symbol: Sn # 60
    coordinates: [  0.833333336768723,  0.500000000890249,  0.117288825867806 ]
    mass: 118.710000
    reduced_to: 55
  - symbol: Sn # 61
    coordinates: [  0.166666670102056,  0.833333334223582,  0.117288825867806 ]
    mass: 118.710000
    reduced_to: 55
  - symbol: Sn # 62
    coordinates: [  0.500000003435389,  0.833333334223582,  0.117288825867806 ]
    mass: 118.710000
    reduced_to: 55
  - symbol: Sn # 63
    coordinates: [  0.833333336768723,  0.833333334223582,  0.117288825867806 ]
    mass: 118.710000
    reduced_to: 55
  - symbol: Sn # 64
    coordinates: [  0.166666670102056,  0.166666667556916,  0.617288825867806 ]
    mass: 118.710000
    reduced_to: 55
  - symbol: Sn # 65
    coordinates: [  0.500000003435389,  0.166666667556916,  0.617288825867806 ]
    mass: 118.710000
    reduced_to: 55
  - symbol: Sn # 66
    coordinates: [  0.833333336768723,  0.166666667556916,  0.617288825867806 ]
    mass: 118.710000
    reduced_to: 55
  - symbol: Sn # 67
    coordinates: [  0.166666670102056,  0.500000000890249,  0.617288825867806 ]
    mass: 118.710000
    reduced_to: 55
  - symbol: Sn # 68
    coordinates: [  0.500000003435389,  0.500000000890249,  0.617288825867806 ]
    mass: 118.710000
    reduced_to: 55
  - symbol: Sn # 69
    coordinates: [  0.833333336768723,  0.500000000890249,  0.617288825867806 ]
    mass: 118.710000
    reduced_to: 55
  - symbol: Sn # 70
    coordinates: [  0.166666670102056,  0.833333334223582,  0.617288825867806 ]
    mass: 118.710000
    reduced_to: 55
  - symbol: Sn # 71
    coordinates: [  0.500000003435389,  0.833333334223582,  0.617288825867806 ]
    mass: 118.710000
    reduced_to: 55
  - symbol: Sn # 72
    coordinates: [  0.833333336768723,  0.833333334223582,  0.617288825867806 ]
    mass: 118.710000
    reduced_to: 55

displacements:
- atom:    1
  displacement:
    [   0.0047359271032411,  0.0062445487398313,  0.0062110068031405 ]
  forces:
  - [  -0.0055375504307449, -0.0102610141038895, -0.0069327787496150 ]
  - [   0.0005559937562793, -0.0002739324700087, -0.0000050443959481 ]
  - [   0.0005484335124493, -0.0002713411813602, -0.0000049415866670 ]
  - [  -0.0001011390704662,  0.0002332343865419, -0.0001158841914730 ]
  - [   0.0000133602879941,  0.0000090335961431,  0.0000251376986853 ]
  - [  -0.0000323629938066, -0.0000269369629677,  0.0000247106290772 ]
  - [  -0.0000990966800600,  0.0002325739915250, -0.0001137243962148 ]
  - [  -0.0000333229545504, -0.0000251187011600,  0.0000242842870648 ]
  - [   0.0000142215285450,  0.0000096160365501,  0.0000234152976191 ]
  - [   0.0000218986533582,  0.0000450644402008,  0.0002371635055169 ]
  - [  -0.0000043170548452,  0.0000286605209112, -0.0000606053508818 ]
  - [  -0.0000033878022805,  0.0000282534820144, -0.0000595041783527 ]
  - [   0.0000096992589533, -0.0000118444522741, -0.0000208289129660 ]
  - [  -0.0000049680056691, -0.0000150648411363,  0.0000082899350673 ]
  - [  -0.0000045183114707, -0.0000152033389895,  0.0000082780607045 ]
  - [   0.0000095877330750, -0.0000122979045045, -0.0000203596428037 ]
  - [  -0.0000048829242587, -0.0000147446990013,  0.0000078016892076 ]
  - [  -0.0000047393841669, -0.0000147535174619,  0.0000083278864622 ]
  - [  -0.0000639709178358, -0.0000366445783584,  0.0265381634235382 ]
  - [   0.0000628796406090,  0.0000075301832112,  0.0265738256275654 ]
  - [  -0.0000050222151913,  0.0000020873117137,  0.0265231281518936 ]
  - [  -0.0000040289014578,  0.0000027287890134,  0.0265401415526867 ]
  - [   0.0000028277281672, -0.0000416174843849,  0.0265766493976116 ]
  - [  -0.0000046525674406, -0.0000429942738265,  0.0265243016183376 ]
  - [  -0.0000037909485400, -0.0000005519832484,  0.0265511311590672 ]
  - [  -0.0000175384338945, -0.0000007671915228,  0.0265544503927231 ]
  - [   0.0000212657905649,  0.0000405719329137,  0.0265768282115459 ]
  - [   0.0023183438461274,  0.0029052337631583,  0.0284633748233318 ]
  - [  -0.0012537192087620,  0.0016539776697755,  0.0275437906384468 ]
  - [   0.0000317877093039, -0.0000621267681709,  0.0265587233006954 ]
  - [   0.0001692759979051, -0.0002014207420871,  0.0264986716210842 ]
  - [   0.0009365694131702,  0.0011121365241706,  0.0255355276167393 ]
  - [   0.0000309864481096,  0.0000269962074526,  0.0265640914440155 ]
  - [  -0.0000226134434342,  0.0000180261395144,  0.0265721157193184 ]
  - [   0.0000145328231156,  0.0000191914568859,  0.0265705026686192 ]
  - [   0.0000074487579695,  0.0000121007424241,  0.0265407785773277 ]
  - [  -0.0000751060433686, -0.0001215533193317,  0.0014933086931705 ]
  - [   0.0002958798431791, -0.0000490380916744,  0.0001525608822703 ]
  - [  -0.0001659579575062, -0.0000489357553306, -0.0000132815912366 ]
  - [   0.0000075600109994,  0.0000357330136467, -0.0000001895241439 ]
  - [  -0.0000421729127993, -0.0000436459667981, -0.0000345492735505 ]
  - [   0.0000474993139505, -0.0000301960262732, -0.0000180774368346 ]
  - [   0.0000075506977737, -0.0000181775812962, -0.0000174120068550 ]
  - [   0.0000110516721179, -0.0000143337529153,  0.0000005019828677 ]
  - [  -0.0000059772282839, -0.0000258439558820,  0.0000158245675266 ]
  - [  -0.0000724378041923, -0.0001195290969918,  0.0014738976024091 ]
  - [  -0.0001663723960519, -0.0000468874350190, -0.0000096424482763 ]
  - [   0.0002974099479616, -0.0000457847490907,  0.0001573348417878 ]
  - [   0.0000079027377069, -0.0000184013497346, -0.0000138692121254 ]
  - [  -0.0000060866586864, -0.0000262307003140,  0.0000189421698451 ]
  - [   0.0000105611979961, -0.0000144923105836,  0.0000018994323909 ]
  - [   0.0000070524401963,  0.0000343089195667,  0.0000020222432795 ]
  - [   0.0000449647195637, -0.0000309899915010, -0.0000161597781698 ]
  - [  -0.0000401632860303, -0.0000404198799515, -0.0000317497397191 ]
  - [   0.0009273648029193,  0.0011050528846681, -0.0275573395192623 ]
  - [   0.0001642233692110, -0.0001924008101923, -0.0266147330403328 ]
  - [   0.0000315308570862,  0.0000289820491162, -0.0265373550355434 ]
  - [  -0.0012806018348783,  0.0016730856150389, -0.0255509167909622 ]
  - [   0.0024135801941156,  0.0030309888534248, -0.0245634280145168 ]
  - [   0.0000297115184367, -0.0000638964847894, -0.0265466459095478 ]
  - [   0.0000140902120620,  0.0000191765720956, -0.0265323407948017 ]
  - [  -0.0000228800345212,  0.0000195890897885, -0.0265312194824219 ]
  - [   0.0000083174090832,  0.0000129684940475, -0.0265625864267349 ]
  - [   0.0000023398679332, -0.0000400626304327, -0.0265285447239876 ]
  - [  -0.0000042635947466,  0.0000027736457469, -0.0265649035573006 ]
  - [  -0.0000044470652938, -0.0000414251080656, -0.0265833586454391 ]
  - [   0.0000608791306149,  0.0000064031919464, -0.0265313461422920 ]
  - [  -0.0000630924478173, -0.0000371705973521, -0.0265690460801125 ]
  - [  -0.0000040922313929,  0.0000021518653739, -0.0265842862427235 ]
  - [  -0.0000169011764228, -0.0000002797023626, -0.0265544615685940 ]
  - [  -0.0000038756988943, -0.0000002548331395, -0.0265580862760544 ]
  - [   0.0000214243773371,  0.0000400995922973, -0.0265306644141674 ]
- atom:   19
  displacement:
    [   0.0047359271032411,  0.0062445487398313,  0.0062110068031405 ]
  forces:
  - [  -0.0000534974969923, -0.0000414753740188, -0.0000184243654076 ]
  - [  -0.0000065688509494, -0.0000191768631339, -0.0000079477358668 ]
  - [   0.0000539200846106,  0.0000033477581383,  0.0000315175966534 ]
  - [  -0.0000119225587696, -0.0000013783337636,  0.0000028628346627 ]
  - [   0.0000201577786356,  0.0000401327852160,  0.0000226862648560 ]
  - [  -0.0000081961043179, -0.0000005980618880, -0.0000064477280830 ]
  - [   0.0000037751160562,  0.0000074261479313, -0.0000215440850297 ]
  - [  -0.0000059558078647, -0.0000199428759515, -0.0000518232736795 ]
  - [  -0.0000036365818232, -0.0000382052094210,  0.0000287928487523 ]
  - [   0.0020849695429206,  0.0032883468084037,  0.0019961914513260 ]
  - [   0.0000306617876049, -0.0000206721015275, -0.0000358826946467 ]
  - [  -0.0009526374051347,  0.0015640058554709,  0.0008684296626598 ]
  - [  -0.0000014981487766,  0.0000192918923858,  0.0000063665211201 ]
  - [   0.0000072727416409,  0.0000119807664305, -0.0000096524599940 ]
  - [  -0.0000056590652093,  0.0000191171420738,  0.0000338635873049 ]
  - [   0.0003087897785008, -0.0004413824062794,  0.0000780272530392 ]
  - [   0.0000303923334286, -0.0000140215270221,  0.0000541852787137 ]
  - [   0.0007796301506460,  0.0012174559524283, -0.0009982420597225 ]
  - [  -0.0063742999918759, -0.0117021147161722,  0.0134963318705559 ]
  - [   0.0008442560210824, -0.0002785299147945,  0.0274355113506317 ]
  - [   0.0028739655390382, -0.0002697176823858,  0.0258614122867584 ]
  - [  -0.0000466553028673,  0.0006081194151193,  0.0266663990914822 ]
  - [   0.0000944815110415,  0.0001100112131098,  0.0265769511461258 ]
  - [  -0.0000176970788743, -0.0000011981792341,  0.0265524685382843 ]
  - [  -0.0000465088523924,  0.0007640889380127,  0.0265101157128811 ]
  - [  -0.0000517570879310,  0.0000865866895765,  0.0264922715723515 ]
  - [   0.0001299748546444,  0.0001991596509470,  0.0264655314385891 ]
  - [   0.0000167889520526,  0.0000523603775946,  0.0277135297656059 ]
  - [  -0.0000143006909639,  0.0000227217678912,  0.0265193246304989 ]
  - [   0.0000047097910283,  0.0000223515780817,  0.0265022851526737 ]
  - [   0.0000119034366435, -0.0000134170641104,  0.0265671946108341 ]
  - [  -0.0000066955108196, -0.0000126812237795,  0.0265535488724709 ]
  - [  -0.0000053727726481, -0.0000080233894550,  0.0265573710203171 ]
  - [   0.0000121598131955, -0.0000312075753754,  0.0265853665769100 ]
  - [  -0.0000006430782378, -0.0000111035651571,  0.0265571288764477 ]
  - [  -0.0000119624646686, -0.0000160344097822,  0.0265578627586365 ]
  - [   0.0002634846605361,  0.0008050440228544, -0.0009157126769423 ]
  - [   0.0002033800701611,  0.0001228281762451, -0.0000425269827247 ]
  - [   0.0001806896179914, -0.0010659465333447,  0.0005553909577429 ]
  - [   0.0000201719813049, -0.0000708932639100, -0.0000083562918007 ]
  - [  -0.0000105026447272, -0.0000210369471461,  0.0000092471018434 ]
  - [  -0.0000095791183412, -0.0000705111160642, -0.0000222027301788 ]
  - [  -0.0024167536757886,  0.0018043864984065,  0.0012333882041276 ]
  - [   0.0002062709681923, -0.0001591728068888, -0.0000649108551443 ]
  - [   0.0028093806467950,  0.0035911335144192,  0.0026324540376663 ]
  - [   0.0000685877166688,  0.0000918247096706,  0.0001302610471612 ]
  - [  -0.0000229193829000, -0.0000262083485723, -0.0000216751359403 ]
  - [  -0.0000448031350970,  0.0001099687069654,  0.0001246565952897 ]
  - [  -0.0000069313682616, -0.0000226541469601, -0.0000091883775895 ]
  - [  -0.0000009262003005, -0.0000005038455129,  0.0000081704929471 ]
  - [   0.0000076377764344, -0.0000223070383072, -0.0000072536058724 ]
  - [   0.0001076813787222, -0.0000819379638415,  0.0000765517543186 ]
  - [  -0.0000224784016609,  0.0000274537596852, -0.0000493746774737 ]
  - [  -0.0000845203176141, -0.0001000916672638,  0.0000693438341841 ]
  - [  -0.0002161502925446, -0.0005296463496052, -0.0253555402159691 ]
  - [   0.0000744448043406,  0.0000714860652806, -0.0267996378242970 ]
  - [  -0.0007264297455549,  0.0000674225520925, -0.0274122655391693 ]
  - [  -0.0000987614330370,  0.0000588244292885, -0.0265500321984291 ]
  - [   0.0001723773311824,  0.0001959336223081, -0.0266894586384296 ]
  - [   0.0000344424042851, -0.0000922805193113, -0.0265068188309669 ]
  - [  -0.0001002091448754,  0.0001221637648996, -0.0264884606003761 ]
  - [  -0.0002069682814181,  0.0001971073797904, -0.0263991095125675 ]
  - [   0.0004099365323782,  0.0004817044828087, -0.0262185856699944 ]
  - [  -0.0001335312554147, -0.0000202345108846, -0.0210979282855988 ]
  - [   0.0003045145422220, -0.0000368050023098, -0.0260826386511326 ]
  - [  -0.0002017817460001, -0.0000367113061657, -0.0264783911406994 ]
  - [   0.0000091707033789,  0.0000689802691340, -0.0265157446265221 ]
  - [  -0.0002713506110013, -0.0003455593250692, -0.0268416963517666 ]
  - [   0.0001395696308464, -0.0001595887006260, -0.0267140641808510 ]
  - [   0.0000085206702352,  0.0000239961591433, -0.0265658199787140 ]
  - [  -0.0000278539955616,  0.0000536300649401, -0.0266269259154797 ]
  - [  -0.0001001469790936, -0.0001274172682315, -0.0264986716210842 ]
- atom:   19
  displacement:
    [  -0.0047359271032411, -0.0062445487398313, -0.0062110068031405 ]
  forces:
  - [   0.0000531394034624,  0.0000417284427385,  0.0000189016900549 ]
  - [   0.0000043353065848,  0.0000213782768697,  0.0000052156392485 ]
  - [  -0.0000513303093612, -0.0000039678443500, -0.0000328269525198 ]
  - [   0.0000126131344587,  0.0000009312302609, -0.0000042984866013 ]
  - [  -0.0000208192504942, -0.0000396606046706, -0.0000247569842031 ]
  - [   0.0000081451144069,  0.0000016389312805,  0.0000058724654082 ]
  - [  -0.0000049879308790, -0.0000062086364778,  0.0000240896806645 ]
  - [   0.0000050256494433,  0.0000192043371499,  0.0000513814229635 ]
  - [   0.0000063411425799,  0.0000385918829124, -0.0000271593889920 ]
  - [  -0.0019846523646265, -0.0031489217653871, -0.0019051785347983 ]
  - [  -0.0000298453232972,  0.0000207338016480,  0.0000368992332369 ]
  - [   0.0009185052476823, -0.0015367011073977, -0.0008451358880848 ]
  - [   0.0000028340145946, -0.0000192894440261, -0.0000052900286391 ]
  - [  -0.0000077632903412, -0.0000134145375341,  0.0000113544519991 ]
  - [   0.0000050910748541, -0.0000193023806787, -0.0000330968759954 ]
  - [  -0.0003201283980161,  0.0004504094249569, -0.0000847764313221 ]
  - [  -0.0000303217821056,  0.0000135989394039, -0.0000562597997487 ]
  - [  -0.0007894459413365, -0.0012263408862054,  0.0010261674178764 ]
  - [   0.0064125051721931,  0.0117752226069570,  0.0395226404070854 ]
  - [  -0.0008096052333713,  0.0002737863687798,  0.0256625674664974 ]
  - [  -0.0029266295023263,  0.0002826711861417,  0.0272512510418892 ]
  - [   0.0000452792737633, -0.0006078112055548,  0.0264406800270081 ]
  - [  -0.0000966668594629, -0.0001122222020058,  0.0265292115509510 ]
  - [   0.0000195784377865, -0.0000018488244677,  0.0265534520149231 ]
  - [   0.0000451069790870, -0.0007616479415447,  0.0265960134565830 ]
  - [   0.0000496078282595, -0.0000835200917209,  0.0266151688992977 ]
  - [  -0.0001251415233128, -0.0001926390978042,  0.0266377441585064 ]
  - [  -0.0000195181928575, -0.0000548624811927,  0.0253947675228119 ]
  - [   0.0000157814938575, -0.0000241006291617,  0.0265835411846638 ]
  - [  -0.0000042421816033, -0.0000241727011598,  0.0265963897109032 ]
  - [  -0.0000148255212480,  0.0000106911011244,  0.0265351980924606 ]
  - [   0.0000085299834609,  0.0000122563851619,  0.0265501439571381 ]
  - [   0.0000060779457272,  0.0000074973113442,  0.0265466496348381 ]
  - [  -0.0000143018551171,  0.0000297313708870,  0.0265161767601967 ]
  - [   0.0000018966384232,  0.0000105498802441,  0.0265472158789635 ]
  - [   0.0000120239074022,  0.0000149105399032,  0.0265413746237755 ]
  - [  -0.0002524768933654, -0.0007895394228399,  0.0008920864202082 ]
  - [  -0.0002066669403575, -0.0001249318011105,  0.0000470252707601 ]
  - [  -0.0001804241910577,  0.0010738518321887, -0.0005548764020205 ]
  - [  -0.0000188811682165,  0.0000702862889739,  0.0000076908618212 ]
  - [   0.0000094136885309,  0.0000198993366212, -0.0000091898255050 ]
  - [   0.0000095954164863,  0.0000704846024746,  0.0000218302011490 ]
  - [   0.0024782982654870, -0.0018425324233249, -0.0012656850740314 ]
  - [  -0.0002040410035988,  0.0001626557204872,  0.0000692205503583 ]
  - [  -0.0029644919559360, -0.0037930754479021, -0.0027868961915374 ]
  - [  -0.0000693090260029, -0.0000899089936865, -0.0001306298654526 ]
  - [   0.0000219587236643,  0.0000280626118183,  0.0000253161415458 ]
  - [   0.0000463034957647, -0.0001090178266168, -0.0001245867460966 ]
  - [   0.0000075856223702,  0.0000229574052355,  0.0000119897958939 ]
  - [   0.0000001438893378,  0.0000011362135410, -0.0000042747706175 ]
  - [  -0.0000078803859651,  0.0000234115868807,  0.0000092247501016 ]
  - [  -0.0001080916263163,  0.0000819231790956, -0.0000748585953261 ]
  - [   0.0000223838724196, -0.0000283769331872,  0.0000529017925146 ]
  - [   0.0000844639725983,  0.0001009949482977, -0.0000703094265191 ]
  - [   0.0002223247429356,  0.0005373921012506, -0.0277880579233170 ]
  - [  -0.0000825684983283, -0.0000742047996027, -0.0263022035360336 ]
  - [   0.0007470254786313, -0.0000780634727562, -0.0256728269159794 ]
  - [   0.0000991378619801, -0.0000599153572693, -0.0265520773828030 ]
  - [  -0.0001721845474094, -0.0001939025241882, -0.0264124013483524 ]
  - [  -0.0000329851172864,  0.0000921709724935, -0.0265952087938786 ]
  - [   0.0000978929456323, -0.0001133094483521, -0.0266079455614090 ]
  - [   0.0002054478973150, -0.0001989330630749, -0.0267057344317436 ]
  - [  -0.0004147018771619, -0.0004886488895863, -0.0268911495804787 ]
  - [   0.0001103152171709, -0.0000033717660699, -0.0318395793437958 ]
  - [  -0.0002789425197989,  0.0000369019617210, -0.0269980058073997 ]
  - [   0.0002098332624882,  0.0000369648587366, -0.0266364626586437 ]
  - [  -0.0000100005718195, -0.0000725277932361, -0.0265914089977741 ]
  - [   0.0002644844353199,  0.0003353612264618, -0.0262719877064228 ]
  - [  -0.0001364566851407,  0.0001581767864991, -0.0263979285955429 ]
  - [  -0.0000102655030787, -0.0000193995583686, -0.0265430398285389 ]
  - [   0.0000286605209112, -0.0000519339228049, -0.0264828577637672 ]
  - [   0.0001029111444950,  0.0001300747098867, -0.0266083441674709 ]
- atom:   37
  displacement:
    [   0.0047359271032411,  0.0062445487398313,  0.0062110068031405 ]
  forces:
  - [  -0.0000718352384865, -0.0001175759825855,  0.0014624516479671 ]
  - [  -0.0000438711140305, -0.0000477891881019, -0.0001059524511220 ]
  - [   0.0001765063498169, -0.0000486792632728,  0.0002480473485775 ]
  - [   0.0000073630362749, -0.0000004219341463, -0.0000350943846570 ]
  - [   0.0000052426476032, -0.0000307713635266,  0.0000122085584735 ]
  - [  -0.0000005112960935,  0.0000083664053818, -0.0000148178514792 ]
  - [   0.0000055199488997,  0.0000189380371012,  0.0000206788063224 ]
  - [   0.0000196101609617, -0.0000252048484981, -0.0000029572365747 ]
  - [  -0.0000114706344903, -0.0000607090914855, -0.0000275085512840 ]
  - [  -0.0000759899849072, -0.0001234733790625,  0.0015038516139612 ]
  - [   0.0001726813352434, -0.0000470515806228,  0.0002467182930559 ]
  - [  -0.0000437707640231, -0.0000478613364976, -0.0001050356077030 ]
  - [   0.0000096338335425,  0.0000129496183945,  0.0000171973370016 ]
  - [  -0.0000198686648218, -0.0000710573513061, -0.0000330191105604 ]
  - [   0.0000216147163883, -0.0000278054067167, -0.0000030231894925 ]
  - [   0.0000076944706962,  0.0000000206246114, -0.0000351930502802 ]
  - [  -0.0000001897678885,  0.0000076435972005, -0.0000141945201904 ]
  - [   0.0000050370581448, -0.0000316796067636,  0.0000134712317958 ]
  - [   0.0004894183948636,  0.0012617812026292,  0.0250088162720203 ]
  - [  -0.0000615469180048, -0.0007829979876988,  0.0269969031214714 ]
  - [   0.0002077014069073, -0.0000071664899224,  0.0266387313604355 ]
  - [  -0.0019974438473582,  0.0013760462170467,  0.0279235914349556 ]