# Thermal properties / unit cell (natom)

unit:
  temperature:   K
  free_energy:   kJ/mol
  entropy:       J/K/mol
  heat_capacity: J/K/mol

natom: 20   
cutoff_frequency: 0.00000
num_modes: 156000
num_integrated_modes: 155995

zero_point_energy:      72.7530270

thermal_properties:
- temperature:         0.0000000
  free_energy:        72.7530270
  entropy:             0.0000000
  heat_capacity:       0.0000000
  energy:             72.7530270

- temperature:        10.0000000
  free_energy:        72.7474600
  entropy:             1.9512082
  heat_capacity:       5.6769554
  energy:             72.7669721

- temperature:        20.0000000
  free_energy:        72.6777361
  entropy:            14.1523326
  heat_capacity:      36.6368762
  energy:             72.9607827

- temperature:        30.0000000
  free_energy:        72.4308280
  entropy:            36.3094080
  heat_capacity:      74.5856391
  energy:             73.5201102

- temperature:        40.0000000
  free_energy:        71.9391963
  entropy:            62.3128985
  heat_capacity:     106.7724570
  energy:             74.4317123

- temperature:        50.0000000
  free_energy:        71.1817962
  entropy:            89.2180388
  heat_capacity:     135.0837308
  energy:             75.6426981

- temperature:        60.0000000
  free_energy:        70.1544135
  entropy:           116.2673777
  heat_capacity:     162.4367709
  energy:             77.1304562

- temperature:        70.0000000
  free_energy:        68.8563173
  entropy:           143.3566940
  heat_capacity:     189.7056028
  energy:             78.8912859

- temperature:        80.0000000
  free_energy:        67.2872652
  entropy:           170.4481430
  heat_capacity:     216.5307726
  energy:             80.9231166

- temperature:        90.0000000
  free_energy:        65.4476481
  entropy:           197.4502086
  heat_capacity:     242.2409486
  energy:             83.2181669

- temperature:       100.0000000
  free_energy:        63.3389892
  entropy:           224.2337297
  heat_capacity:     266.2873403
  energy:             85.7623621

- temperature:       110.0000000
  free_energy:        60.9641500
  entropy:           250.6649256
  heat_capacity:     288.3541486
  energy:             88.5372918

- temperature:       120.0000000
  free_energy:        58.3272582
  entropy:           276.6267326
  heat_capacity:     308.3320288
  energy:             91.5224661

- temperature:       130.0000000
  free_energy:        55.4334881
  entropy:           302.0275955
  heat_capacity:     326.2556596
  energy:             94.6970755

- temperature:       140.0000000
  free_energy:        52.2887959
  entropy:           326.8023826
  heat_capacity:     342.2456992
  energy:             98.0411294

- temperature:       150.0000000
  free_energy:        48.8996683
  entropy:           350.9094702
  heat_capacity:     356.4659855
  energy:            101.5360888

- temperature:       160.0000000
  free_energy:        45.2729083
  entropy:           374.3264915
  heat_capacity:     369.0955412
  energy:            105.1651470

- temperature:       170.0000000
  free_energy:        41.4154646
  entropy:           397.0460316
  heat_capacity:     380.3118243
  energy:            108.9132900

- temperature:       180.0000000
  free_energy:        37.3343011
  entropy:           419.0718284
  heat_capacity:     390.2816106
  energy:            112.7672302

- temperature:       190.0000000
  free_energy:        33.0363019
  entropy:           440.4156482
  heat_capacity:     399.1567082
  energy:            116.7152750

- temperature:       200.0000000
  free_energy:        28.5282040
  entropy:           461.0948233
  heat_capacity:     407.0725606
  energy:            120.7471686

- temperature:       210.0000000
  free_energy:        23.8165511
  entropy:           481.1303669
  heat_capacity:     414.1484803
  energy:            124.8539282

- temperature:       220.0000000
  free_energy:        18.9076646
  entropy:           500.5455587
  heat_capacity:     420.4887260
  energy:            129.0276875

- temperature:       230.0000000
  free_energy:        13.8076261
  entropy:           519.3649036
  heat_capacity:     426.1839556
  energy:            133.2615540

- temperature:       240.0000000
  free_energy:         8.5222694
  entropy:           537.6133765
  heat_capacity:     431.3127855
  energy:            137.5494798

- temperature:       250.0000000
  free_energy:         3.0571784
  entropy:           555.3158848
  heat_capacity:     435.9433068
  energy:            141.8861497

- temperature:       260.0000000
  free_energy:        -2.5823100
  entropy:           572.4968936
  heat_capacity:     440.1344872
  energy:            146.2668823

- temperature:       270.0000000
  free_energy:        -8.3911004
  entropy:           589.1801720
  heat_capacity:     443.9374263
  energy:            150.6875460

- temperature:       280.0000000
  free_energy:       -14.3643308
  entropy:           605.3886285
  heat_capacity:     447.3964590
  energy:            155.1444852

- temperature:       290.0000000
  free_energy:       -20.4973635
  entropy:           621.1442115
  heat_capacity:     450.5501129
  energy:            159.6344578

- temperature:       300.0000000
  free_energy:       -26.7857754
  entropy:           636.4678571
  heat_capacity:     453.4319317
  energy:            164.1545818

- temperature:       310.0000000
  free_energy:       -33.2253473
  entropy:           651.3794698
  heat_capacity:     456.0711811
  energy:            168.7022883

- temperature:       320.0000000
  free_energy:       -39.8120544
  entropy:           665.8979276
  heat_capacity:     458.4934508
  energy:            173.2752825

- temperature:       330.0000000
  free_energy:       -46.5420551
  entropy:           680.0411035
  heat_capacity:     460.7211677
  energy:            177.8715091

- temperature:       340.0000000
  free_energy:       -53.4116819
  entropy:           693.8258976
  heat_capacity:     462.7740324
  energy:            182.4891232

- temperature:       350.0000000
  free_energy:       -60.4174317
  entropy:           707.2682762
  heat_capacity:     464.6693920
  energy:            187.1264650

- temperature:       360.0000000
  free_energy:       -67.5559564
  entropy:           720.3833159
  heat_capacity:     466.4225570
  energy:            191.7820373

- temperature:       370.0000000
  free_energy:       -74.8240544
  entropy:           733.1852483
  heat_capacity:     468.0470720
  energy:            196.4544874

- temperature:       380.0000000
  free_energy:       -82.2186626
  entropy:           745.6875070
  heat_capacity:     469.5549473
  energy:            201.1425901

- temperature:       390.0000000
  free_energy:       -89.7368480
  entropy:           757.9027726
  heat_capacity:     470.9568565
  energy:            205.8452333

- temperature:       400.0000000
  free_energy:       -97.3758013
  entropy:           769.8430179
  heat_capacity:     472.2623069
  energy:            210.5614058

- temperature:       410.0000000
  free_energy:      -105.1328294
  entropy:           781.5195505
  heat_capacity:     473.4797849
  energy:            215.2901863

- temperature:       420.0000000
  free_energy:      -113.0053490
  entropy:           792.9430539
  heat_capacity:     474.6168824
  energy:            220.0307337

- temperature:       430.0000000
  free_energy:      -120.9908808
  entropy:           804.1236268
  heat_capacity:     475.6804046
  energy:            224.7822788

- temperature:       440.0000000
  free_energy:      -129.0870436
  entropy:           815.0708195
  heat_capacity:     476.6764640
  energy:            229.5441169

- temperature:       450.0000000
  free_energy:      -137.2915494
  entropy:           825.7936688
  heat_capacity:     477.6105619
  energy:            234.3156016

- temperature:       460.0000000
  free_energy:      -145.6021978
  entropy:           836.3007305
  heat_capacity:     478.4876591
  energy:            239.0961382

- temperature:       470.0000000
  free_energy:      -154.0168718
  entropy:           846.6001096
  heat_capacity:     479.3122368
  energy:            243.8851797

- temperature:       480.0000000
  free_energy:      -162.5335334
  entropy:           856.6994892
  heat_capacity:     480.0883508
  energy:            248.6822215

- temperature:       490.0000000
  free_energy:      -171.1502192
  entropy:           866.6061566
  heat_capacity:     480.8196781
  energy:            253.4867975

- temperature:       500.0000000
  free_energy:      -179.8650372
  entropy:           876.3270282
  heat_capacity:     481.5095580
  energy:            258.2984769

- temperature:       510.0000000
  free_energy:      -188.6761624
  entropy:           885.8686727
  heat_capacity:     482.1610282
  energy:            263.1168606

- temperature:       520.0000000
  free_energy:      -197.5818341
  entropy:           895.2373322
  heat_capacity:     482.7768563
  energy:            267.9415787

- temperature:       530.0000000
  free_energy:      -206.5803523
  entropy:           904.4389428
  heat_capacity:     483.3595680
  energy:            272.7722874

- temperature:       540.0000000
  free_energy:      -215.6700750
  entropy:           913.4791525
  heat_capacity:     483.9114715
  energy:            277.6086674

- temperature:       550.0000000
  free_energy:      -224.8494153
  entropy:           922.3633390
  heat_capacity:     484.4346796
  energy:            282.4504212

- temperature:       560.0000000
  free_energy:      -234.1168388
  entropy:           931.0966260
  heat_capacity:     484.9311288
  energy:            287.2972718

- temperature:       570.0000000
  free_energy:      -243.4708611
  entropy:           939.6838976
  heat_capacity:     485.4025964
  energy:            292.1489605

- temperature:       580.0000000
  free_energy:      -252.9100456
  entropy:           948.1298128
  heat_capacity:     485.8507162
  energy:            297.0052459

- temperature:       590.0000000
  free_energy:      -262.4330010
  entropy:           956.4388187
  heat_capacity:     486.2769915
  energy:            301.8659020

- temperature:       600.0000000
  free_energy:      -272.0383797
  entropy:           964.6151621
  heat_capacity:     486.6828078
  energy:            306.7307175

- temperature:       610.0000000
  free_energy:      -281.7248756
  entropy:           972.6629014
  heat_capacity:     487.0694432
  energy:            311.5994943

- temperature:       620.0000000
  free_energy:      -291.4912220
  entropy:           980.5859169
  heat_capacity:     487.4380786
  energy:            316.4720464

- temperature:       630.0000000
  free_energy:      -301.3361906
  entropy:           988.3879207
  heat_capacity:     487.7898057
  energy:            321.3481995

- temperature:       640.0000000
  free_energy:      -311.2585889
  entropy:           996.0724664
  heat_capacity:     488.1256357
  energy:            326.2277896

- temperature:       650.0000000
  free_energy:      -321.2572597
  entropy:          1003.6429570
  heat_capacity:     488.4465057
  energy:            331.1106624

- temperature:       660.0000000
  free_energy:      -331.3310788
  entropy:          1011.1026538
  heat_capacity:     488.7532851
  energy:            335.9966727

- temperature:       670.0000000
  free_energy:      -341.4789539
  entropy:          1018.4546832
  heat_capacity:     489.0467817
  energy:            340.8856838

- temperature:       680.0000000
  free_energy:      -351.6998236
  entropy:          1025.7020443
  heat_capacity:     489.3277466
  energy:            345.7775666

- temperature:       690.0000000
  free_energy:      -361.9926555
  entropy:          1032.8476157
  heat_capacity:     489.5968787
  energy:            350.6721993

- temperature:       700.0000000
  free_energy:      -372.3564458
  entropy:          1039.8941610
  heat_capacity:     489.8548293
  energy:            355.5694669

- temperature:       710.0000000
  free_energy:      -382.7902175
  entropy:          1046.8443354
  heat_capacity:     490.1022057
  energy:            360.4692606

- temperature:       720.0000000
  free_energy:      -393.2930198
  entropy:          1053.7006909
  heat_capacity:     490.3395749
  energy:            365.3714776

- temperature:       730.0000000
  free_energy:      -403.8639268
  entropy:          1060.4656813
  heat_capacity:     490.5674665
  energy:            370.2760205

- temperature:       740.0000000
  free_energy:      -414.5020368
  entropy:          1067.1416673
  heat_capacity:     490.7863756
  energy:            375.1827970

- temperature:       750.0000000
  free_energy:      -425.2064710
  entropy:          1073.7309209
  heat_capacity:     490.9967658
  energy:            380.0917196

- temperature:       760.0000000
  free_energy:      -435.9763734
  entropy:          1080.2356300
  heat_capacity:     491.1990712
  energy:            385.0027054

- temperature:       770.0000000
  free_energy:      -446.8109089
  entropy:          1086.6579018
  heat_capacity:     491.3936988
  energy:            389.9156755

- temperature:       780.0000000
  free_energy:      -457.7092634
  entropy:          1092.9997672
  heat_capacity:     491.5810303
  energy:            394.8305551

- temperature:       790.0000000
  free_energy:      -468.6706427
  entropy:          1099.2631844
  heat_capacity:     491.7614242
  energy:            399.7472730

- temperature:       800.0000000
  free_energy:      -479.6942719
  entropy:          1105.4500418
  heat_capacity:     491.9352174
  energy:            404.6657615

- temperature:       810.0000000
  free_energy:      -490.7793944
  entropy:          1111.5621615
  heat_capacity:     492.1027265
  energy:            409.5859564

- temperature:       820.0000000
  free_energy:      -501.9252719
  entropy:          1117.6013024
  heat_capacity:     492.2642497
  energy:            414.5077961

- temperature:       830.0000000
  free_energy:      -513.1311829
  entropy:          1123.5691629
  heat_capacity:     492.4200675
  energy:            419.4312223

- temperature:       840.0000000
  free_energy:      -524.3964230
  entropy:          1129.4673837
  heat_capacity:     492.5704444
  energy:            424.3561793

- temperature:       850.0000000
  free_energy:      -535.7203037
  entropy:          1135.2975502
  heat_capacity:     492.7156298
  energy:            429.2826139

- temperature:       860.0000000
  free_energy:      -547.1021523
  entropy:          1141.0611950
  heat_capacity:     492.8558590
  energy:            434.2104754

- temperature:       870.0000000
  free_energy:      -558.5413108
  entropy:          1146.7598002
  heat_capacity:     492.9913542
  energy:            439.1397153

- temperature:       880.0000000
  free_energy:      -570.0371362
  entropy:          1152.3947996
  heat_capacity:     493.1223252
  energy:            444.0702874

- temperature:       890.0000000
  free_energy:      -581.5889994
  entropy:          1157.9675807
  heat_capacity:     493.2489707
  energy:            449.0021474

- temperature:       900.0000000
  free_energy:      -593.1962850
  entropy:          1163.4794867
  heat_capacity:     493.3714782
  energy:            453.9352530

- temperature:       910.0000000
  free_energy:      -604.8583906
  entropy:          1168.9318180
  heat_capacity:     493.4900255
  energy:            458.8695638

- temperature:       920.0000000
  free_energy:      -616.5747269
  entropy:          1174.3258346
  heat_capacity:     493.6047808
  energy:            463.8050409

- temperature:       930.0000000
  free_energy:      -628.3447170
  entropy:          1179.6627573
  heat_capacity:     493.7159037
  energy:            468.7416473

- temperature:       940.0000000
  free_energy:      -640.1677957
  entropy:          1184.9437692
  heat_capacity:     493.8235452
  energy:            473.6793474

- temperature:       950.0000000
  free_energy:      -652.0434098
  entropy:          1190.1700178
  heat_capacity:     493.9278490
  energy:            478.6181071

- temperature:       960.0000000
  free_energy:      -663.9710172
  entropy:          1195.3426155
  heat_capacity:     494.0289511
  energy:            483.5578937

- temperature:       970.0000000
  free_energy:      -675.9500869
  entropy:          1200.4626420
  heat_capacity:     494.1269808
  energy:            488.4986759

- temperature:       980.0000000
  free_energy:      -687.9800983
  entropy:          1205.5311447
  heat_capacity:     494.2220611
  energy:            493.4404235

- temperature:       990.0000000
  free_energy:      -700.0605414
  entropy:          1210.5491405
  heat_capacity:     494.3143086
  energy:            498.3831076

- temperature:      1000.0000000
  free_energy:      -712.1909161
  entropy:          1215.5176167
  heat_capacity:     494.4038345
  energy:            503.3267006
