# Thermal properties / unit cell (natom)

unit:
  temperature:   K
  free_energy:   kJ/mol
  entropy:       J/K/mol
  heat_capacity: J/K/mol

natom: 11   
cutoff_frequency: 0.00000
num_modes: 178200
num_integrated_modes: 178199

zero_point_energy:      42.7057357

thermal_properties:
- temperature:         0.0000000
  free_energy:        42.7057357
  entropy:             0.0000000
  heat_capacity:       0.0000000
  energy:             42.7057357

- temperature:        10.0000000
  free_energy:        42.7024023
  entropy:             1.2686974
  heat_capacity:       3.7684511
  energy:             42.7150893

- temperature:        20.0000000
  free_energy:        42.6601669
  entropy:             8.1457423
  heat_capacity:      19.0230924
  energy:             42.8230818

- temperature:        30.0000000
  free_energy:        42.5255519
  entropy:            19.2253085
  heat_capacity:      36.6957425
  energy:             43.1023112

- temperature:        40.0000000
  free_energy:        42.2699833
  entropy:            32.0578509
  heat_capacity:      53.0611803
  energy:             43.5522973

- temperature:        50.0000000
  free_energy:        41.8822641
  entropy:            45.5514953
  heat_capacity:      68.3241833
  energy:             44.1598389

- temperature:        60.0000000
  free_energy:        41.3580603
  entropy:            59.3205140
  heat_capacity:      83.1245865
  energy:             44.9172911

- temperature:        70.0000000
  free_energy:        40.6953808
  entropy:            73.2330323
  heat_capacity:      97.7213255
  energy:             45.8216931

- temperature:        80.0000000
  free_energy:        39.8931523
  entropy:            87.2196770
  heat_capacity:     112.0162352
  energy:             46.8707264

- temperature:        90.0000000
  free_energy:        38.9509618
  entropy:           101.2137613
  heat_capacity:     125.7666187
  energy:             48.0602003

- temperature:       100.0000000
  free_energy:        37.8690911
  entropy:           115.1436751
  heat_capacity:     138.7396534
  energy:             49.3834586

- temperature:       110.0000000
  free_energy:        36.6485367
  entropy:           128.9393468
  heat_capacity:     150.7769699
  energy:             50.8318649

- temperature:       120.0000000
  free_energy:        35.2909595
  entropy:           142.5388274
  heat_capacity:     161.8027491
  energy:             52.3956188

- temperature:       130.0000000
  free_energy:        33.7985834
  entropy:           155.8917650
  heat_capacity:     171.8079288
  energy:             54.0645128

- temperature:       140.0000000
  free_energy:        32.1740740
  entropy:           168.9601461
  heat_capacity:     180.8291220
  energy:             55.8284944

- temperature:       150.0000000
  free_energy:        30.4204187
  entropy:           181.7173858
  heat_capacity:     188.9301297
  energy:             57.6780266

- temperature:       160.0000000
  free_energy:        28.5408204
  entropy:           194.1466657
  heat_capacity:     196.1882125
  energy:             59.6042869

- temperature:       170.0000000
  free_energy:        26.5386089
  entropy:           206.2390822
  heat_capacity:     202.6848700
  energy:             61.5992529

- temperature:       180.0000000
  free_energy:        24.4171712
  entropy:           217.9919015
  heat_capacity:     208.5001309
  energy:             63.6557135

- temperature:       190.0000000
  free_energy:        22.1798969
  entropy:           229.4070481
  heat_capacity:     213.7093185
  energy:             65.7672360

- temperature:       200.0000000
  free_energy:        19.8301383
  entropy:           240.4898608
  heat_capacity:     218.3814541
  energy:             67.9281105

- temperature:       210.0000000
  free_energy:        17.3711817
  entropy:           251.2481005
  heat_capacity:     222.5786861
  energy:             70.1332828

- temperature:       220.0000000
  free_energy:        14.8062269
  entropy:           261.6911788
  heat_capacity:     226.3563289
  energy:             72.3782863

- temperature:       230.0000000
  free_energy:        12.1383739
  entropy:           271.8295671
  heat_capacity:     229.7632395
  energy:             74.6591743

- temperature:       240.0000000
  free_energy:         9.3706143
  entropy:           281.6743530
  heat_capacity:     232.8423603
  energy:             76.9724590

- temperature:       250.0000000
  free_energy:         6.5058276
  entropy:           291.2369091
  heat_capacity:     235.6313230
  energy:             79.3150548

- temperature:       260.0000000
  free_energy:         3.5467788
  entropy:           300.5286526
  heat_capacity:     238.1630533
  energy:             81.6842285

- temperature:       270.0000000
  free_energy:         0.4961196
  entropy:           309.5608714
  heat_capacity:     240.4663435
  energy:             84.0775548

- temperature:       280.0000000
  free_energy:        -2.6436104
  entropy:           318.3446019
  heat_capacity:     242.5663762
  energy:             86.4928782

- temperature:       290.0000000
  free_energy:        -5.8699799
  entropy:           326.8905465
  heat_capacity:     244.4851927
  energy:             88.9282786

- temperature:       300.0000000
  free_energy:        -9.1806631
  entropy:           335.2090191
  heat_capacity:     246.2421071
  energy:             91.3820426

- temperature:       310.0000000
  free_energy:       -12.5734351
  entropy:           343.3099124
  heat_capacity:     247.8540681
  energy:             93.8526378

- temperature:       320.0000000
  free_energy:       -16.0461676
  entropy:           351.2026822
  heat_capacity:     249.3359733
  energy:             96.3386907

- temperature:       330.0000000
  free_energy:       -19.5968251
  entropy:           358.8963415
  heat_capacity:     250.7009410
  energy:             98.8389676

- temperature:       340.0000000
  free_energy:       -23.2234594
  entropy:           366.3994642
  heat_capacity:     251.9605446
  energy:            101.3523584

- temperature:       350.0000000
  free_energy:       -26.9242064
  entropy:           373.7201942
  heat_capacity:     253.1250154
  energy:            103.8778616

- temperature:       360.0000000
  free_energy:       -30.6972811
  entropy:           380.8662585
  heat_capacity:     254.2034158
  energy:            106.4145719

- temperature:       370.0000000
  free_energy:       -34.5409738
  entropy:           387.8449830
  heat_capacity:     255.2037898
  energy:            108.9616699

- temperature:       380.0000000
  free_energy:       -38.4536462
  entropy:           394.6633098
  heat_capacity:     256.1332915
  energy:            111.5184116

- temperature:       390.0000000
  free_energy:       -42.4337273
  entropy:           401.3278157
  heat_capacity:     256.9982970
  energy:            114.0841208

- temperature:       400.0000000
  free_energy:       -46.4797105
  entropy:           407.8447303
  heat_capacity:     257.8045004
  energy:            116.6581816

- temperature:       410.0000000
  free_energy:       -50.5901497
  entropy:           414.2199549
  heat_capacity:     258.5569963
  energy:            119.2400318

- temperature:       420.0000000
  free_energy:       -54.7636560
  entropy:           420.4590804
  heat_capacity:     259.2603527
  energy:            121.8291578

- temperature:       430.0000000
  free_energy:       -58.9988953
  entropy:           426.5674049
  heat_capacity:     259.9186726
  energy:            124.4250888

- temperature:       440.0000000
  free_energy:       -63.2945849
  entropy:           432.5499507
  heat_capacity:     260.5356484
  energy:            127.0273934

- temperature:       450.0000000
  free_energy:       -67.6494909
  entropy:           438.4114801
  heat_capacity:     261.1146096
  energy:            129.6356751

- temperature:       460.0000000
  free_energy:       -72.0624262
  entropy:           444.1565112
  heat_capacity:     261.6585631
  energy:            132.2495690

- temperature:       470.0000000
  free_energy:       -76.5322472
  entropy:           449.7893318
  heat_capacity:     262.1702298
  energy:            134.8687388

- temperature:       480.0000000
  free_energy:       -81.0578524
  entropy:           455.3140136
  heat_capacity:     262.6520755
  energy:            137.4928742

- temperature:       490.0000000
  free_energy:       -85.6381799
  entropy:           460.7344250
  heat_capacity:     263.1063393
  energy:            140.1216884

- temperature:       500.0000000
  free_energy:       -90.2722056
  entropy:           466.0542428
  heat_capacity:     263.5350569
  energy:            142.7549158

- temperature:       510.0000000
  free_energy:       -94.9589411
  entropy:           471.2769640
  heat_capacity:     263.9400824
  energy:            145.3923106

- temperature:       520.0000000
  free_energy:       -99.6974323
  entropy:           476.4059163
  heat_capacity:     264.3231072
  energy:            148.0336442

- temperature:       530.0000000
  free_energy:      -104.4867574
  entropy:           481.4442679
  heat_capacity:     264.6856764
  energy:            150.6787045

- temperature:       540.0000000
  free_energy:      -109.3260257
  entropy:           486.3950370
  heat_capacity:     265.0292035
  energy:            153.3272942

- temperature:       550.0000000
  free_energy:      -114.2143758
  entropy:           491.2611005
  heat_capacity:     265.3549836
  energy:            155.9792294

- temperature:       560.0000000
  free_energy:      -119.1509746
  entropy:           496.0452023
  heat_capacity:     265.6642047
  energy:            158.6343387

- temperature:       570.0000000
  free_energy:      -124.1350154
  entropy:           500.7499604
  heat_capacity:     265.9579584
  energy:            161.2924620

- temperature:       580.0000000
  free_energy:      -129.1657176
  entropy:           505.3778747
  heat_capacity:     266.2372485
  energy:            163.9534497

- temperature:       590.0000000
  free_energy:      -134.2423247
  entropy:           509.9313332
  heat_capacity:     266.5029998
  energy:            166.6171618

- temperature:       600.0000000
  free_energy:      -139.3641037
  entropy:           514.4126186
  heat_capacity:     266.7560650
  energy:            169.2834674

- temperature:       610.0000000
  free_energy:      -144.5303438
  entropy:           518.8239136
  heat_capacity:     266.9972313
  energy:            171.9522435

- temperature:       620.0000000
  free_energy:      -149.7403557
  entropy:           523.1673072
  heat_capacity:     267.2272265
  energy:            174.6233748

- temperature:       630.0000000
  free_energy:      -154.9934703
  entropy:           527.4447990
  heat_capacity:     267.4467240
  energy:            177.2967530

- temperature:       640.0000000
  free_energy:      -160.2890384
  entropy:           531.6583043
  heat_capacity:     267.6563477
  energy:            179.9722764

- temperature:       650.0000000
  free_energy:      -165.6264292
  entropy:           535.8096588
  heat_capacity:     267.8566761
  energy:            182.6498490

- temperature:       660.0000000
  free_energy:      -171.0050303
  entropy:           539.9006227
  heat_capacity:     268.0482466
  energy:            185.3293807

- temperature:       670.0000000
  free_energy:      -176.4242460
  entropy:           543.9328842
  heat_capacity:     268.2315584
  energy:            188.0107864

- temperature:       680.0000000
  free_energy:      -181.8834977
  entropy:           547.9080641
  heat_capacity:     268.4070758
  energy:            190.6939859

- temperature:       690.0000000
  free_energy:      -187.3822222
  entropy:           551.8277183
  heat_capacity:     268.5752315
  energy:            193.3789034

- temperature:       700.0000000
  free_energy:      -192.9198719
  entropy:           555.6933418
  heat_capacity:     268.7364285
  energy:            196.0654673

- temperature:       710.0000000
  free_energy:      -198.4959138
  entropy:           559.5063715
  heat_capacity:     268.8910430
  energy:            198.7536100

- temperature:       720.0000000
  free_energy:      -204.1098287
  entropy:           563.2681890
  heat_capacity:     269.0394262
  energy:            201.4432674

- temperature:       730.0000000
  free_energy:      -209.7611113
  entropy:           566.9801235
  heat_capacity:     269.1819063
  energy:            204.1343789

- temperature:       740.0000000
  free_energy:      -215.4492691
  entropy:           570.6434541
  heat_capacity:     269.3187904
  energy:            206.8268869

- temperature:       750.0000000
  free_energy:      -221.1738224
  entropy:           574.2594126
  heat_capacity:     269.4503660
  energy:            209.5207370

- temperature:       760.0000000
  free_energy:      -226.9343034
  entropy:           577.8291853
  heat_capacity:     269.5769024
  energy:            212.2158774

- temperature:       770.0000000
  free_energy:      -232.7302560
  entropy:           581.3539157
  heat_capacity:     269.6986523
  energy:            214.9122591

- temperature:       780.0000000
  free_energy:      -238.5612353
  entropy:           584.8347059
  heat_capacity:     269.8158526
  energy:            217.6098353

- temperature:       790.0000000
  free_energy:      -244.4268072
  entropy:           588.2726189
  heat_capacity:     269.9287260
  energy:            220.3085617

- temperature:       800.0000000
  free_energy:      -250.3265482
  entropy:           591.6686803
  heat_capacity:     270.0374819
  energy:            223.0083961

- temperature:       810.0000000
  free_energy:      -256.2600446
  entropy:           595.0238801
  heat_capacity:     270.1423169
  energy:            225.7092983

- temperature:       820.0000000
  free_energy:      -262.2268928
  entropy:           598.3391741
  heat_capacity:     270.2434165
  energy:            228.4112300

- temperature:       830.0000000
  free_energy:      -268.2266982
  entropy:           601.6154854
  heat_capacity:     270.3409550
  energy:            231.1141547

- temperature:       840.0000000
  free_energy:      -274.2590755
  entropy:           604.8537063
  heat_capacity:     270.4350970
  energy:            233.8180378

- temperature:       850.0000000
  free_energy:      -280.3236482
  entropy:           608.0546989
  heat_capacity:     270.5259977
  energy:            236.5228459

- temperature:       860.0000000
  free_energy:      -286.4200482
  entropy:           611.2192972
  heat_capacity:     270.6138034
  energy:            239.2285474

- temperature:       870.0000000
  free_energy:      -292.5479155
  entropy:           614.3483076
  heat_capacity:     270.6986525
  energy:            241.9351121

- temperature:       880.0000000
  free_energy:      -298.7068983
  entropy:           617.4425106
  heat_capacity:     270.7806756
  energy:            244.6425110

- temperature:       890.0000000
  free_energy:      -304.8966522
  entropy:           620.5026616
  heat_capacity:     270.8599964
  energy:            247.3507166

- temperature:       900.0000000
  free_energy:      -311.1168405
  entropy:           623.5294920
  heat_capacity:     270.9367316
  energy:            250.0597024

- temperature:       910.0000000
  free_energy:      -317.3671334
  entropy:           626.5237103
  heat_capacity:     271.0109921
  energy:            252.7694430

- temperature:       920.0000000
  free_energy:      -323.6472082
  entropy:           629.4860028
  heat_capacity:     271.0828827
  energy:            255.4799143

- temperature:       930.0000000
  free_energy:      -329.9567492
  entropy:           632.4170347
  heat_capacity:     271.1525028
  energy:            258.1910931

- temperature:       940.0000000
  free_energy:      -336.2954469
  entropy:           635.3174511
  heat_capacity:     271.2199466
  energy:            260.9029571

- temperature:       950.0000000
  free_energy:      -342.6629983
  entropy:           638.1878772
  heat_capacity:     271.2853036
  energy:            263.6154850

- temperature:       960.0000000
  free_energy:      -349.0591065
  entropy:           641.0289198
  heat_capacity:     271.3486586
  energy:            266.3286565

- temperature:       970.0000000
  free_energy:      -355.4834807
  entropy:           643.8411675
  heat_capacity:     271.4100923
  energy:            269.0424518

- temperature:       980.0000000
  free_energy:      -361.9358358
  entropy:           646.6251918
  heat_capacity:     271.4696813
  energy:            271.7568522

- temperature:       990.0000000
  free_energy:      -368.4158923
  entropy:           649.3815473
  heat_capacity:     271.5274985
  energy:            274.4718395

- temperature:      1000.0000000
  free_energy:      -374.9233763
  entropy:           652.1107728
  heat_capacity:     271.5836133
  energy:            277.1873965
