# Tetrahedron method
       -2.0615588720        0.0000000000
       -2.0066579321        0.0000000000
       -1.9517569923        0.0000000000
       -1.8968560524        0.0000000000
       -1.8419551126        0.0000000000
       -1.7870541728        0.0000000000
       -1.7321532329        0.0000000000
       -1.6772522931        0.0000000000
       -1.6223513532        0.0000000000
       -1.5674504134        0.0000000000
       -1.5125494736        0.0000000000
       -1.4576485337        0.0000000000
       -1.4027475939        0.0000000000
       -1.3478466541        0.0000000000
       -1.2929457142        0.0000000000
       -1.2380447744        0.0000000000
       -1.1831438345        0.0000000000
       -1.1282428947        0.1386538664
       -1.0733419549        0.3088254635
       -1.0184410150        0.4144990161
       -0.9635400752        0.4879817402
       -0.9086391353        0.5549230829
       -0.8537381955        0.6215439611
       -0.7988372557        0.7070182994
       -0.7439363158        0.6997910857
       -0.6890353760        0.6569127212
       -0.6341344361        0.6390017948
       -0.5792334963        0.6127883625
       -0.5243325565        0.5723639731
       -0.4694316166        0.5230091620
       -0.4145306768        0.4678785058
       -0.3596297369        0.4137980985
       -0.3047287971        0.3556837303
       -0.2498278573        0.3111709520
       -0.1949269174        0.2814910254
       -0.1400259776        0.2632112733
       -0.0851250378        0.2578401998
       -0.0302240979        0.2614880755
        0.0246768419        0.2698536371
        0.0795777818        0.2862229902
        0.1344787216        0.3198992999
        0.1893796614        0.3734962313
        0.2442806013        0.4583203801
        0.2991815411        0.5614150625
        0.3540824810        0.7020072144
        0.4089834208        0.8651504892
        0.4638843606        1.0260233025
        0.5187853005        1.2042009100
        0.5736862403        1.4174609445
        0.6285871802        1.6518104814
        0.6834881200        1.9536031980
        0.7383890598        1.8794851509
        0.7932899997        1.7468262762
        0.8481909395        1.6780972318
        0.9030918793        1.4869507595
        0.9579928192        1.4005310414
        1.0128937590        1.4281765420
        1.0677946989        1.5160326377
        1.1226956387        1.7298561322
        1.1775965785        1.9830689446
        1.2324975184        2.0343723842
        1.2873984582        0.8531746395
        1.3422993981        1.1255424733
        1.3972003379        1.8131745547
        1.4521012777        1.7789287894
        1.5070022176        1.6342394586
        1.5619031574        1.7973426580
        1.6168040973        2.1813882612
        1.6717050371        1.9376171004
        1.7266059769        2.9148504478
        1.7815069168        3.4006730211
        1.8364078566        3.1204709552
        1.8913087964        3.0096758606
        1.9462097363        2.5919978892
        2.0011106761        2.2859491990
        2.0560116160        2.1998303837
        2.1109125558        1.8156244954
        2.1658134956        4.5410918339
        2.2207144355        8.3573347813
        2.2756153753        3.4689182930
        2.3305163152        2.3924183335
        2.3854172550        0.7530113273
        2.4403181948        1.1397319496
        2.4952191347        2.2379589053
        2.5501200745        4.1888566795
        2.6050210144        2.7582721253
        2.6599219542        2.0373078699
        2.7148228940        1.6305274762
        2.7697238339        1.3126317888
        2.8246247737        0.6798368492
        2.8795257136        0.3846315531
        2.9344266534        0.2372705669
        2.9893275932        0.1113259677
        3.0442285331        0.0000000000
        3.0991294729        0.0000000000
        3.1540304127        0.0000000000
        3.2089313526        0.0000000000
        3.2638322924        0.0000000000
        3.3187332323        0.0000000000
        3.3736341721        0.0000000000
        3.4285351119        0.0000000000
        3.4834360518        0.0000000000
        3.5383369916        0.0000000000
        3.5932379315        0.0000000000
        3.6481388713        0.0000000000
        3.7030398111        0.0000000000
        3.7579407510        0.0000000000
        3.8128416908        0.0000000000
        3.8677426307        0.0000000000
        3.9226435705        0.0000000000
        3.9775445103        0.0000000000
        4.0324454502        0.0000000000
        4.0873463900        0.0000000000
        4.1422473298        0.0000000000
        4.1971482697        0.0000000000
        4.2520492095        0.0000000000
        4.3069501494        0.0000000000
        4.3618510892        0.0000000000
        4.4167520290        0.0000000000
        4.4716529689        0.0000000000
        4.5265539087        0.0000000000
        4.5814548486        0.0000000000
        4.6363557884        0.0000000000
        4.6912567282        0.0000000000
        4.7461576681        0.0000000000
        4.8010586079        0.0000000000
        4.8559595478        0.0000000000
        4.9108604876        0.0000000000
        4.9657614274        0.0000000000
        5.0206623673        0.0000000000
        5.0755633071        0.0000000000
        5.1304642469        0.0000000000
        5.1853651868        0.0000000000
        5.2402661266        0.0000000000
        5.2951670665        0.0000000000
        5.3500680063        0.0000000000
        5.4049689461        0.0000000000
        5.4598698860        0.0000000000
        5.5147708258        0.0000000000
        5.5696717657        0.0000000000
        5.6245727055        0.0000000000
        5.6794736453        0.0000000000
        5.7343745852        0.0000000000
        5.7892755250        0.0000000000
        5.8441764649        0.0000000000
        5.8990774047        0.0000000000
        5.9539783445        0.0000000000
        6.0088792844        0.0000000000
        6.0637802242        0.0000000000
        6.1186811641        0.0000000000
        6.1735821039        0.0000000000
        6.2284830437        0.0477759528
        6.2833839836        0.3989861915
        6.3382849234        0.7206264623
        6.3931858632        0.7701984435
        6.4480868031        0.8293575132
        6.5029877429        0.8999699637
        6.5578886828        1.3412776403
        6.6127896226        2.2029480914
        6.6676905624        2.5124034190
        6.7225915023        2.9999069837
        6.7774924421        3.9471756615
        6.8323933820        4.8546648326
        6.8872943218        3.4520452472
        6.9421952616        2.8115566816
        6.9970962015        2.4222445355
        7.0519971413        2.1800074437
        7.1068980812        2.0291898344
        7.1617990210        1.6097018540
        7.2166999608        1.4471553432
        7.2716009007        2.9304709553
        7.3265018405        2.3871029015
        7.3814027803        2.2674230542
        7.4363037202        2.2383821979
        7.4912046600        1.5183750168
        7.5461055999        0.8758556220
        7.6010065397        0.7526838539
        7.6559074795        0.6670961558
        7.7108084194        0.6020917260
        7.7657093592        0.5510208812
        7.8206102991        0.5111689683
        7.8755112389        0.4780498007
        7.9304121787        0.4468119038
        7.9853131186        0.4246508155
        8.0402140584        0.0000000000
        8.0951149983        0.0000000000
        8.1500159381        0.0000000000
        8.2049168779        0.0000000000
        8.2598178178        0.0000000000
        8.3147187576        0.0000000000
        8.3696196975        0.0000000000
        8.4245206373        0.0000000000
        8.4794215771        0.0000000000
        8.5343225170        0.0000000000
        8.5892234568        0.0000000000
        8.6441243966        0.0000000000
        8.6990253365        0.0000000000
        8.7539262763        0.0000000000
        8.8088272162        0.0000000000
        8.8637281560        0.0000000000
        8.9186290958        0.0000000000
