12
Lattice="4.454340165825431 -0.001345484571911324 -0.7952721658019423 -0.14012656152611908 4.40386048808263 -0.7925476135603746 -0.17349137156194125 -0.14206746678056972 11.892164425344603" Properties=species:S:1:pos:R:3:forces:R:3 structure_index=0 total_energy=-35.33139419555664 stress="0.029833290725946426 -0.000766192504670471 -0.007362260017544031 -0.0007661523413844407 0.017304513603448868 -0.007404485251754522 -0.007362192962318659 -0.007404514122754335 -0.024740014225244522" pbc="T T T"
Li       2.40374427       2.66138010       7.04650764       0.00072078       0.00075502      -0.00053078
Li       2.85104878       0.85101462       9.55516021      -0.00154911      -0.00096434      -0.01253138
Li       1.80261666       2.03821976       3.68233477       0.00005836      -0.00252134      -0.00175855
Li       3.69924622       1.69402148       1.43352515       0.00453518       0.00476501       0.02795843
Li       0.25758988       0.47144828       7.89857758       0.00030294       0.00075924       0.00296474
Li       1.13160434       1.34222618      -0.07249049       0.00135366      -0.00055108       0.00923316
Li       3.96772198       4.24711251       2.92933947      -0.00060591       0.00006959       0.00103960
Li       2.15778640       0.13153705       5.66951151      -0.00053273      -0.00067786      -0.00067929
Sn       1.42878065       3.92285992       1.58854518       0.00146875       0.00506959       0.00011793
Sn      -0.12094717       2.35411387       5.77761545      -0.00045948      -0.00164715       0.00004347
Sn       0.50430577       3.00165775       9.27361446      -0.00821492      -0.00677198      -0.03934219
Sn       3.28903217       3.54363327      -0.86213996       0.00292251       0.00171530       0.01348488
6
Lattice="4.501460736722461 -0.007486687148624909 2.1630322508915967 1.7153985932848934 4.385862140418707 2.2386056313905027 -0.039490392627874384 0.10904850285984381 5.8551180007403" Properties=species:S:1:pos:R:3:forces:R:3 structure_index=1 total_energy=-17.818710327148438 stress="0.019311606884002686 0.0009085701894946396 0.02026672475039959 0.0009086207137443125 -0.008486268110573292 0.0028144395910203457 0.02026665210723877 0.002814353909343481 0.015238465741276741" pbc="T T T"
Li       3.19108613       1.60904649       4.70433764       0.02297512      -0.01469738       0.00262707
Li       2.64535266       2.42445579       7.62082927      -0.02789884       0.01422726      -0.00057641
Li       1.11450891       0.18779875       3.24613043       0.01646510       0.00907286       0.01786312
Li       4.71341240       3.84385736       9.08233899      -0.01077337      -0.00676648      -0.01737586
Sn       0.57746780       0.94590941       6.15827487      -0.03867739       0.00812164      -0.03063230
Sn       5.25626250       3.08812695       6.16972563       0.03790938      -0.00995791       0.02809437
8
Lattice="5.376337778648767 -0.0005205169636044373 0.006649574868404494 0.007420556507558908 5.707941430506968 -3.268753782149416 -0.0005581351420173219 -0.0019356003742862097 6.572640439104814" Properties=species:S:1:pos:R:3:forces:R:3 structure_index=2 total_energy=-28.884721755981445 stress="0.03466346114873886 0.006682502571493387 0.005867035128176212 0.006682410836219788 0.028323989361524582 0.01918811723589897 0.005867060273885727 0.01918819546699524 -0.008791092783212662" pbc="T T T"
Li       3.61002151       3.50416787       3.55443359      -0.00013748       0.00024351      -0.00028974
Li       0.92255365       5.40954451       0.26381434       0.00071449      -0.00037797       0.00120404
Sn       0.92078007       2.55863016       1.90685071      -0.00082328       0.02007099       0.03703099
Sn       0.92269488       2.55755880      -1.38877458      -0.00178950       0.02092833      -0.03493021
Sn       3.60418404       0.65059108       1.90725749       0.00117457      -0.02135084       0.03105664
Sn       3.61095485       3.51515207       0.26816550      -0.00087549       0.03831965      -0.00370952
Sn       3.60467135       0.64332444       5.17933860       0.00128547      -0.01551798      -0.03408962
Sn       0.92316234       5.40324056      -3.02207430       0.00045121      -0.04231569       0.00372741
18
Lattice="4.797825365508441 0.00039791361865538865 0.0003510808400305926 -0.0001536980130999732 7.855912299380559 1.550892261528612 -0.00028193293777668024 0.034330606586074806 9.269344719725265" Properties=species:S:1:pos:R:3:forces:R:3 structure_index=3 total_energy=-53.318504333496094 stress="-0.022014526650309563 2.5246299628634006e-05 -3.5634395317174494e-05 2.5288611141149886e-05 -0.005696167703717947 0.003773815929889679 -3.563348946045153e-05 0.003773645032197237 0.016159724444150925" pbc="T T T"
Li       2.15159368       0.86928426       7.91003597       0.00013679      -0.01953623      -0.02300309
Li       2.15210199       6.21759529       4.92226583       0.00011325       0.03878171       0.01495375
Li       4.55003328       1.81558494       3.23143295       0.00049563      -0.03255461      -0.00653132
Li       2.15181061       6.17124398       1.54620636       0.00019326       0.01433215      -0.00471649
Li       4.55051977       4.47172487       1.57827118       0.00023980       0.00199039      -0.01253137
Li       4.55031580       1.76685118       6.33128447       0.00045851       0.01692821      -0.00282285
Li       4.55090429       1.74845393       9.36812308       0.00002053      -0.04193876       0.00605791
Li       4.55169330       4.46858777       4.89624321      -0.00070877       0.02938589      -0.00089465
Li       2.15159524       6.16407766       7.81233003       0.00019920      -0.01668907       0.01458389
Li       2.15097946       0.94498130       4.66935290       0.00046857      -0.02089475       0.01313244
Li       4.55139282       4.51147831       7.81323992      -0.00046286       0.00132607       0.00761303
Li       4.55205355       7.15487669       3.23059256      -0.00082944      -0.00282776       0.00425163
Sn       2.15250989       3.40882096       6.30470983      -0.00050391       0.00383224      -0.02278799
Sn       4.55029065       7.13988112       6.38712735       0.00035554      -0.00488242      -0.01042197
Sn       2.15254616       0.96759329       1.68355944      -0.00048442       0.02524411       0.00620467
Sn       2.15167917       3.71570529       3.27222848       0.00019040       0.02540941       0.02172182
Sn       4.55042282       7.09767731       9.31021356       0.00025068      -0.00942791       0.02485452
Sn       2.15203266       3.50762904       9.32752473      -0.00013276      -0.00847867      -0.02966391
8
Lattice="4.835612921473881 0.00037879819825164125 0.0010458413120256161 -0.0005344581392409289 5.181823787550089 -2.973497630025615 -0.00046113736930925757 -0.004849898714371193 5.972439655694763" Properties=species:S:1:pos:R:3:forces:R:3 structure_index=4 total_energy=-18.915340423583984 stress="-0.010940042324364185 -0.0004357431025709957 0.0004643009742721915 -0.00043590497807599604 0.04555251821875572 -0.0016538769705221057 0.00046423892490565777 -0.001653829007409513 0.047402430325746536" pbc="T T T"
Li       4.50544225       3.44306683       1.21114490      -0.00138431       0.01911524       0.00282062
Li       2.08844054       2.48006447      -0.24982709      -0.00039021       0.01902512      -0.03075842
Li       2.08751004       2.47952842       2.68959429       0.00131820       0.01384130       0.02235892
Li       4.50783380       3.37401764      -1.77981151      -0.00146940      -0.00777416       0.00624075
Li       2.08785296       5.11280665      -1.76243426       0.00046450      -0.02549240       0.00162819
Li       4.50646966       0.72613002       2.78091249      -0.00242135      -0.00202733       0.00517585
Li       4.50511406       0.73536316      -0.35874772      -0.00011861      -0.00898047      -0.01405953
Sn       2.08530929       5.08522318       1.22285684       0.00400119      -0.00770728       0.00659362
4
Lattice="4.447401384481923 0.004215018119835593 0.0007526477748555877 -0.004871169389249669 4.447364435267266 -0.0031594830538424355 -0.0005426915729792604 0.0023105255497835645 4.297506788047443" Properties=species:S:1:pos:R:3:forces:R:3 structure_index=5 total_energy=-13.045053482055664 stress="0.04138018935918808 -0.0007077942136675119 0.0001897476176964119 -0.0007078303606249392 0.041280005127191544 -0.0007828209199942648 0.00018973737314809114 -0.0007828588713891804 0.0745849683880806" pbc="T T T"
Li       3.43540833       1.90537085       2.84788941      -0.00217976      -0.00057977      -0.00184524
Li       1.20468563       4.12672512       2.84617973       0.00133376      -0.00037092      -0.00214235
Sn       3.43105826       4.12647524       0.69597967      -0.00138569       0.00124879       0.00190711
Sn       1.20798469       1.90152522       0.69706848       0.00223168      -0.00029810       0.00208047
8
Lattice="4.85523339979146 -0.0008635910330394606 0.0004703612960757037 0.0016376722654185456 5.1923890678095646 -2.999802766177253 -0.0010279445496567115 0.002363693776276239 5.998570687613756" Properties=species:S:1:pos:R:3:forces:R:3 structure_index=6 total_energy=-22.158096313476562 stress="-0.03177618980407715 -0.0004732305242214352 -0.0005339597119018435 -0.0004731882072519511 -0.002181579591706395 0.0006486178608611226 -0.0005338857299648225 0.0006485383491963148 -0.0014674026751890779" pbc="T T T"
Li       4.43628000       2.83040094       3.16374631       0.00048801      -0.03253190       0.00099866
Li       2.00989103       1.28384575       0.16556710      -0.00037598       0.03220920      -0.00097166
Li       4.43683028       0.37329625       1.74750944      -0.00022738       0.01534518       0.02675193
Li       2.00989427       3.74040692      -1.25404257       0.00010701      -0.01617122       0.02755576
Li       2.00951107       3.74063168       1.58198509       0.00007299      -0.01504100      -0.02686006
Li       4.43639517       0.37369936       4.58370723      -0.00018070       0.01619205      -0.02805230
Sn       4.43726704       2.92157877       0.16496933       0.00016989       0.00032587      -0.00002680
Sn       2.00895107       1.19251028       3.16422549      -0.00005385      -0.00032819       0.00060446
4
Lattice="3.9724265069631293 0.0007774091108197891 -1.6929601247643506 -0.7281136833060711 3.9022777899669365 -1.6938061839729701 -0.0028255003773496315 -0.003674942054203341 5.521999630223914" Properties=species:S:1:pos:R:3:forces:R:3 structure_index=7 total_energy=-13.026641845703125 stress="-0.047071050852537155 0.010001957416534424 0.037571780383586884 0.010002021677792072 -0.06056463345885277 0.04620067775249481 0.03757178410887718 0.04620065540075302 0.053854938596487045" pbc="T T T"
Li       3.31343039       2.02218401       0.84890296      -0.00146959       0.00021889       0.00068220
Li       2.13844486       3.00063404      -1.91348134      -0.00034189      -0.00161683       0.00042729
Sn       0.51937613       1.04882698      -0.21584557      -0.00483955      -0.00190707      -0.00572391
Sn       1.68609473       0.06927854       2.53907147       0.00665103       0.00330502       0.00461442
8
Lattice="5.267075014583405 -0.0035504381546895385 0.06699690588191219 0.03354507031541531 5.268465098525876 0.018071417132732706 -0.006665732883652059 -0.0034327232899229966 5.267935055062603" Properties=species:S:1:pos:R:3:forces:R:3 structure_index=8 total_energy=-22.146265029907227 stress="-0.016295822337269783 0.008401789702475071 0.0170766469091177 0.00840187631547451 -0.014372961595654488 0.00783283170312643 0.017076775431632996 0.007832931354641914 -0.014670467004179955" pbc="T T T"
Li       0.33829094       2.90788029       2.67008815      -0.00391749      -0.00180696       0.00544442
Li       2.96901616       2.89343154       2.73134345       0.00618140       0.00095384      -0.00262918
Li       4.25846958       0.26786654       4.04486311       0.00164646      -0.00266159      -0.00704046
Li       1.65689082       1.58595864       0.06047683      -0.00172519       0.00091856      -0.00007094
Li       4.28469776       0.26296230       1.40759539      -0.00092175      -0.00032706       0.00655820
Li       1.65931615       4.22130996       0.07559441       0.00312373      -0.00318315      -0.00195761
Sn       4.29241602       2.90025855       0.10091501      -0.00243215       0.00327786      -0.00117121
Sn       1.63853462       0.26553430       2.69255265      -0.00195498       0.00282850       0.00086678
10
Lattice="4.6670276340360495 -0.000846321472484978 0.001988977879163511 0.0011300932208804268 5.338382402164263 -0.964570210693772 -0.002640067794707321 -0.07119921987215934 7.127469295230979" Properties=species:S:1:pos:R:3:forces:R:3 structure_index=9 total_energy=-26.772903442382812 stress="-0.029960570856928825 -0.0006781352567486465 0.0009189824340865016 -0.0006778379320167005 0.03906410560011864 0.006932895164936781 0.0009192758006975055 0.006933093536645174 -0.03725140169262886" pbc="T T T"
Li       3.60925625       1.14576125       2.49267638       0.00002424      -0.00421756      -0.00467542
Li       1.27627794       1.54494922       0.37799447       0.00013248       0.00135955       0.00519888
Li       1.27666675       4.87915812       1.09741183       0.00015171       0.01457384      -0.00261584
Li       3.60923210       4.17619270       3.46539096       0.00036287       0.00256329      -0.00008855
Li       3.60756421       2.17371340       5.15153793       0.00116106       0.01510605      -0.00966647
Li       1.27513832       3.77938000       5.57183184      -0.00112996       0.00010578      -0.00835031
Li       3.60999890       3.14683604       0.80548949      -0.00004520      -0.01101376       0.00793970
Li       1.27463857       0.44410738       4.84531976      -0.00029634      -0.01637078       0.01162616
Sn       1.27595812       2.66258875       2.97463025      -0.00096070       0.00181531       0.00171076
Sn       3.60714098      -0.04291419       7.02375485       0.00059988      -0.00392167      -0.00107896
15
Lattice="5.4260900572434645 -0.04860036891648505 0.7630040188751203 0.5937230238963475 6.734581162051512 2.9295837526014217 -0.08375800932771316 -0.049883575273513926 7.375371325449094" Properties=species:S:1:pos:R:3:forces:R:3 structure_index=10 total_energy=-36.181541442871094 stress="-0.017538532614707947 0.006038899999111891 0.01129033975303173 0.00603894330561161 -0.021568268537521362 0.013963544741272926 0.011290539987385273 0.013964072801172733 -0.007689919788390398" pbc="T T T"
Li       5.19717862       6.06671522       6.86524889       0.00687075       0.00818996       0.00814126
Li       2.81824771       3.31662822       2.40705181       0.00482222       0.01093386       0.00459912
Li       1.52058112       2.08490521       7.69454525      -0.00880347      -0.01130304      -0.01833779
Li       1.54301165       5.91248318       3.61910900      -0.01564142       0.01278424       0.01009806
Li       4.84884022       1.61083828       2.55641734       0.01124034       0.01527786       0.01717958
Li       0.33711542       0.74789891       5.43148788      -0.00722726       0.01379526      -0.01345453
Li       5.42084986       4.51668672       9.56745117       0.01672013      -0.00912844      -0.01576316
Li       1.76780137       4.37030488       6.31708037      -0.00789671      -0.01285435      -0.00470064
Li       3.18516529       1.85161070       5.12538693       0.00028940      -0.00030905       0.00057187
Li       3.55458715       0.38258472       7.84344189      -0.00715940      -0.01021257      -0.00501874
Li       0.60681606       2.99658081       4.05680283       0.00699389      -0.01068039       0.01493678
Li       3.01403128       5.64377258       8.31872067       0.01778364       0.00826021       0.02697034
Li       3.94995932       4.79433965       4.86471125      -0.01418720      -0.01244497      -0.02747305
Sn       1.96457719       0.53886241       2.93133653       0.03200995      -0.01107484      -0.00528823
Sn       4.40824671       3.16214679       7.31973134      -0.03581481       0.00876634       0.00753909
12
Lattice="3.0484241891753108 -0.0010769048910786248 -0.00025415328258653893 0.00312402503896028 8.851717687432247 -0.0017844777373743172 0.0014125492694443138 0.0016955881956571565 8.54975756758312" Properties=species:S:1:pos:R:3:forces:R:3 structure_index=11 total_energy=-35.67771911621094 stress="0.009018167853355408 3.765528163057752e-06 -2.359348945901729e-05 3.74992464458046e-06 -0.01048410777002573 -3.302760160295293e-05 -2.3503343982156366e-05 -3.3020485716406256e-05 0.0061608231626451015" pbc="T T T"
Li       1.63122839       6.77024799       0.35479264      -0.00032718       0.00186351      -0.00413341
Li       1.62948213       2.35081289       6.12734650       0.00011858      -0.00130769       0.01143278
Li       1.63084850       6.77305158       6.13149666       0.00017298       0.00056659       0.00199320
Li       0.10514937       4.56380512       4.62838365      -0.00000023      -0.00144995      -0.00086303
Li       0.10348556       0.13363262       1.85300453       0.00010513       0.00076598       0.01265437
Li       0.10549640       4.56180179       1.85736736      -0.00013288      -0.00029631       0.00041197
Li       1.62854172       2.34836831       0.35688609       0.00033322      -0.00038362      -0.00981630
Li       0.10335535       0.13527061       4.63356752       0.00011558       0.00023289      -0.01206494
Sn       1.63071060       6.76978035       3.24288237      -0.00055205       0.01405793      -0.00083082
Sn       1.62789103       2.35228451       3.24274634       0.00036370      -0.01416243      -0.00050029
Sn       0.10693429       4.56460543       7.51728116      -0.00018765      -0.00881133       0.00091927
Sn       0.10518513       0.13351903       7.51808251      -0.00000921       0.00892440       0.00079718
4
Lattice="3.9850134790574963 -0.0023493367738321304 -1.6717461743826334 -0.7012377794951756 3.9211161135713186 -1.676768839007318 -0.026488105523894214 -0.02824333132769412 5.503863650651786" Properties=species:S:1:pos:R:3:forces:R:3 structure_index=12 total_energy=-13.026829719543457 stress="-0.02781449817121029 0.021405264735221863 0.037662114948034286 0.021405264735221863 -0.02398352511227131 0.040048178285360336 0.037662092596292496 0.04004817083477974 0.019883381202816963" pbc="T T T"
Li       2.29626450       1.55214719      -0.32101545       0.00082860      -0.00065439      -0.00062599
Li       1.11314733       2.51824339       2.42746277      -0.00073021      -0.00007986       0.00099321
Sn       3.45620234       0.55734538       2.43131421      -0.00160206      -0.00104423       0.00001965
Sn      -0.04667097       3.51223138      -0.32443420       0.00150368       0.00177848      -0.00038686
4
Lattice="4.316709777773004 -0.00023601123980663598 0.002675034493648124 0.0008567483911560059 4.43467251397488 0.000634929993837403 -0.000791217094059682 -0.00020598824438423588 4.433349584218265" Properties=species:S:1:pos:R:3:forces:R:3 structure_index=13 total_energy=-13.044883728027344 stress="0.07494261860847473 0.0006391679053194821 0.0021132100373506546 0.000639119534753263 -0.03848189860582352 0.0005033141933381557 0.0021132093388587236 0.0005032227491028607 -0.04272324591875076" pbc="T T T"
Li       2.38493061       1.10153030       1.26804384       0.00161699      -0.00117488       0.00138062
Li       2.38546486       3.31581046       3.48880988       0.00100621       0.00103828      -0.00144771
Sn       0.22781937       1.09935684       3.48451528      -0.00168514       0.00114931       0.00131158
Sn       0.22814824       3.31796571       1.26954160      -0.00093806      -0.00101270      -0.00124449
12
Lattice="5.273460797638898 0.018357713371243915 -1.9678583181023723 -0.36755549354244454 6.35780626139264 -1.028619342577568 0.10669218716713078 -0.05424859363033951 8.554910634692858" Properties=species:S:1:pos:R:3:forces:R:3 structure_index=14 total_energy=-41.844058990478516 stress="0.013997971080243587 -0.001041607465595007 0.01167688425630331 -0.001041616778820753 -0.008200027979910374 -0.01590411178767681 0.011676941998302937 -0.01590406894683838 0.017017753794789314" pbc="T T T"
Li       2.66137425       2.28500264      -1.17312297       0.00189248       0.00581642       0.00125074
Li       4.54560192       4.40598830       0.68094157       0.00164581       0.00422595       0.01111262
Li       3.44154295       4.74337689       3.89980091      -0.00147422      -0.00332774      -0.01177154
Li       0.31466249       0.54757351       0.19338145      -0.00248779      -0.00709100      -0.00095835
Sn       4.70858946       1.18151029       1.06140953      -0.02359440       0.01329092       0.00996062
Sn       1.79395416       5.90130880       1.46332947       0.00430211      -0.01454195       0.00699039
Sn       3.64642380       1.61145629       4.54680236       0.02394334      -0.01332934      -0.00990613
Sn       0.91987058       3.23083312       5.08412941      -0.00416628       0.01353866      -0.00634435
Sn       2.02472299       2.76230653       1.88802831      -0.00143336      -0.00253335      -0.00665297
Sn      -0.01707662       3.76704483      -0.36088378      -0.01169346      -0.00507786      -0.00208037
Sn       1.05704769       0.01041084       5.68799609       0.00084633       0.00512227       0.00661488
Sn       2.62425767       5.42201378      -1.64669778       0.01221946       0.00390702       0.00178447
6
Lattice="4.650574517238811 0.0011803831224677923 -0.00013452048030623611 -0.0006986049418093589 4.414975801530107 -1.4575219819585858 0.00028947513151082976 0.08942353424897198 7.6742286962947714" Properties=species:S:1:pos:R:3:forces:R:3 structure_index=15 total_energy=-22.28135108947754 stress="0.0020472416654229164 0.0006279119406826794 -9.029049579112325e-06 0.0006279164808802307 -0.009400413371622562 0.005360728595405817 -8.974807315098587e-06 0.005360785406082869 -0.0013161484384909272" pbc="T T T"
Li       1.21015276       0.23953573       2.62286615       0.00074083      -0.00031653      -0.00120110
Sn       3.53671850       2.44720992       1.89170264      -0.00055772       0.00010128       0.00083786
Sn       3.53518353       0.97799450       4.85725448       0.00114737      -0.00625546      -0.01979483
Sn       3.53670097       3.91686775      -1.07189427      -0.00047720       0.00595333       0.01962021
Sn       1.21163340       3.17679805       4.10351733      -0.00109292      -0.00252735      -0.00774008
Sn       1.21129283       1.71588886      -0.31904730       0.00023964       0.00304474       0.00827793
9
Lattice="5.3326906620059695 0.056875398180651335 0.6653473360517437 2.6284617388348908 4.303676784263879 0.3176995969240596 -1.1116965091240092 0.030506187674780805 7.455025826369509" Properties=species:S:1:pos:R:3:forces:R:3 structure_index=16 total_energy=-26.757734298706055 stress="-0.006987683940678835 -0.0004269998171366751 0.0241189394146204 -0.00042680013575591147 0.018156247213482857 -0.0010950377909466624 0.024118822067975998 -0.0010951722506433725 0.02946295030415058" pbc="T T T"
Li       6.38042884       2.36297035       3.28397112      -0.00284940      -0.01954597      -0.00286561
Li       1.17585612       3.82035555       7.69196085       0.00340011       0.02112067       0.00108304
Li       3.85292697       2.36578521       8.02700924       0.00564602      -0.02092669       0.00291755
Li       3.70178173       3.81833857       2.94610239      -0.00358021       0.02067805      -0.00109553
Li       2.45281729       2.33637070       5.32367815      -0.00069762      -0.01859507      -0.00085500
Li       5.10700459       3.85151075       5.65075841      -0.00156984       0.01713863       0.00132264
Sn       1.20524558       0.94124319       7.70222294      -0.00485065       0.00001202       0.00224610
Sn       5.13126748       0.97043242       5.66130392      -0.00043452      -0.00033690      -0.00020734
Sn       3.72297749       0.93885414       2.95503599       0.00493611       0.00045525      -0.00254585
8
Lattice="4.856074920205452 0.0014836780594094316 0.00041945536792333514 -0.0018976681131604612 5.193561104662654 -2.998948094568133 6.374722938285733e-06 0.0008739777391309024 5.998485851690465" Properties=species:S:1:pos:R:3:forces:R:3 structure_index=17 total_energy=-22.15835189819336 stress="-0.020926034078001976 0.0008266058866865933 5.0963597459485754e-05 0.0008264565840363503 -0.0033974279649555683 0.00037553763831965625 5.0947448471561074e-05 0.00037538656033575535 -0.002849907148629427" pbc="T T T"
Li       1.74179432       3.22292918       1.07723876      -0.00040031      -0.01454953       0.02431579
Li       4.16834591       5.05123835       1.07859212       0.00010558       0.01273735       0.02427858
Li       4.16748718       5.04858745      -2.08547523       0.00078620       0.01524197      -0.02565428
Li       4.17033697       2.31057458      -0.50526648      -0.00069252      -0.02891325       0.00120795
Li       1.74116627       0.76795990       2.49523066       0.00057221       0.02849188      -0.00107891
Li       1.74114962       3.22191609       3.91079946      -0.00004438      -0.01324798      -0.02382951
Sn       4.16950898       2.40518638       2.49420372      -0.00019435       0.00046814      -0.00004635
Sn       1.74199249       0.67400831       5.49401274      -0.00013245      -0.00022856       0.00080675
4
Lattice="3.614480039497507 -0.00036015462511522484 0.0005540260944280781 0.00044445030312146986 4.5099794929048 -0.000311837629411963 -0.0006966016573538432 0.0005238284362444832 4.5171286148238545" Properties=species:S:1:pos:R:3:forces:R:3 structure_index=18 total_energy=-11.04134750366211 stress="-0.07629825919866562 -1.8385917428531684e-05 -1.663293005549349e-05 -1.8492526578484103e-05 -0.09113180637359619 0.00014143022417556494 -1.6616575521766208e-05 0.00014142731379251927 -0.028556831181049347" pbc="T T T"
Li       2.89617576       0.62248127       2.86383084       0.00018195      -0.00098922      -0.04167432
Li       2.89675251       2.87713540       0.53103350       0.00017975      -0.00020415       0.02209939
Li       1.08936098       2.87649747       2.76970389      -0.00023546       0.00119123       0.03888918
Sn       1.08938510       0.62222176       0.59114833      -0.00012624       0.00000213      -0.01931426
5
Lattice="4.104398366436016 -0.00044676394833420677 1.742776659226724 2.068393593184877 4.96085078674923 0.8326012095298421 0.016541179554053785 -0.07566438308193561 5.660470646048285" Properties=species:S:1:pos:R:3:forces:R:3 structure_index=19 total_energy=-16.994009017944336 stress="-0.01979118213057518 0.02080506831407547 0.006928024347871542 0.02080502174794674 0.006752852350473404 -0.04997933655977249 0.006928179878741503 -0.04997926205396652 -0.040508292615413666" pbc="T T T"
Li       0.61668025       0.97843353       5.79804109      -0.01448864      -0.03039420       0.03376015
Li       3.46348758       2.07427344       4.80101028       0.01367720       0.03128476      -0.03295840
Sn       5.12552070       4.00634128       6.58741927       0.00083989       0.00108527       0.00046766
Sn       2.25585156       3.02935805       1.94175068       0.00867509      -0.02263380      -0.02062625
Sn       1.80693059       0.10178065       2.99848596      -0.00870355       0.02065798       0.01935682
6
Lattice="4.228942615947311 -0.0010925760720137264 -2.1253319545030727 0.0033223657978626955 4.721482049231681 -0.0015327845630591984 0.06022867148903126 2.8514287810533275e-05 5.388682948515639" Properties=species:S:1:pos:R:3:forces:R:3 structure_index=20 total_energy=-15.241618156433105 stress="0.027005024254322052 0.0018691339064389467 -0.03447229042649269 0.0018691756995394826 0.0693838819861412 -0.0011578875128179789 -0.03447216749191284 -0.0011581906583160162 -0.024049587547779083" pbc="T T T"
Li       0.08279421       4.29135579       5.35147006      -0.00618399      -0.00136814      -0.01324482
Li       2.82120416       4.29010492       0.26432065       0.00979429      -0.00020176       0.01040169
Li       2.11545960       1.92861920       4.13504365      -0.01459967      -0.00301150      -0.03628436
Li       0.78505827       1.92780928       1.48428404       0.01529115      -0.00088100       0.03196169
Li       3.56497299       1.93254161       1.74559569      -0.00094249      -0.00267843       0.00120253
Sn       1.45355646       4.28659585       2.80570172      -0.00335928       0.00814082       0.00596328
8
Lattice="4.5046098388393006 0.00026384891906277793 -0.0004102632138809051 -0.0005886539245947073 5.652088516244424 -1.2823397625479631 0.0007271301536935929 0.10188738369202308 5.795063244509602" Properties=species:S:1:pos:R:3:forces:R:3 structure_index=21 total_energy=-22.088157653808594 stress="0.04886423796415329 -4.2695581214502454e-05 0.0002895199286285788 -4.280103530618362e-05 -0.01817365549504757 0.00018937879940494895 0.0002896868682000786 0.00018935970729216933 -0.017060797661542892" pbc="T T T"
Li       3.82396449       1.94582761       4.24284699       0.00025209      -0.00075316      -0.00137895
Li       3.82483955       1.88919970       1.34648718      -0.00070293       0.00088231      -0.00166844
Li       1.57194004       0.45360629       0.21547549      -0.00035403      -0.00056299       0.00131749
Li       3.82370063       4.77236077       3.59854497       0.00037220      -0.00235567       0.00003831
Li       1.57190920       3.33117939       2.47005122      -0.00021659       0.00052792       0.00103552
Li       3.82371813       4.71410257       0.70163644      -0.00030362       0.00312912       0.00018803
Sn       1.57144426       0.50574288       3.11331704       0.00092876      -0.00064634       0.00009815
Sn       1.57135288       3.27915214      -0.42694178       0.00002412      -0.00022119       0.00036989
10