phonopy:
  version: "2.37.1"
  frequency_unit_conversion_factor: 15.633302
  symmetry_tolerance: 1.00000e-05

space_group:
  type: "P4/mmm"
  number: 123
  Hall_symbol: "-P 4 2"

primitive_matrix:
- [  1.000000000000000,  0.000000000000000,  0.000000000000000 ]
- [  0.000000000000000,  1.000000000000000,  0.000000000000000 ]
- [  0.000000000000000,  0.000000000000000,  1.000000000000000 ]

supercell_matrix:
- [   3,   0,   0 ]
- [   0,   3,   0 ]
- [   0,   0,   4 ]

primitive_cell:
  lattice:
  - [     4.866809661832965,     0.000000000000000,     0.000000000000000 ] # a
  - [    -0.000000017230400,     4.866809665885290,     0.000000000000000 ] # b
  - [     0.000000015456543,    -0.000000011817901,     3.032931071676830 ] # c
  points:
  - symbol: Li # 1
    coordinates: [  0.999999999780697,  0.499999999963243,  0.499999999185181 ]
    mass: 6.940000
  - symbol: Li # 2
    coordinates: [  0.499999999656907,  0.999999999721898,  0.499999999637310 ]
    mass: 6.940000
  - symbol: Sn # 3
    coordinates: [  0.000000000517703,  0.000000000276534,  0.000000001131218 ]
    mass: 118.710000
  reciprocal_lattice: # without 2pi
  - [     0.205473414718129,     0.000000000727456,    -0.000000001047142 ] # a*
  - [     0.000000000000000,     0.205473414547042,     0.000000000800633 ] # b*
  - [     0.000000000000000,     0.000000000000000,     0.329714054281862 ] # c*

unit_cell:
  lattice:
  - [     4.866809661832964,     0.000000000000000,     0.000000000000000 ] # a
  - [    -0.000000017230400,     4.866809665885290,     0.000000000000000 ] # b
  - [     0.000000015456543,    -0.000000011817901,     3.032931071676830 ] # c
  points:
  - symbol: Li # 1
    coordinates: [  0.999999999780697,  0.499999999963243,  0.499999999185181 ]
    mass: 6.940000
    reduced_to: 1
  - symbol: Li # 2
    coordinates: [  0.499999999656907,  0.999999999721898,  0.499999999637310 ]
    mass: 6.940000
    reduced_to: 2
  - symbol: Sn # 3
    coordinates: [  0.000000000517703,  0.000000000276534,  0.000000001131218 ]
    mass: 118.710000
    reduced_to: 3

supercell:
  lattice:
  - [    14.600428985498894,     0.000000000000000,     0.000000000000000 ] # a
  - [    -0.000000051691199,    14.600428997655870,     0.000000000000000 ] # b
  - [     0.000000061826172,    -0.000000047271602,    12.131724286707321 ] # c
  points:
  - symbol: Li # 1
    coordinates: [  0.333333333260232,  0.166666666654414,  0.124999999796295 ]
    mass: 6.940000
    reduced_to: 1
  - symbol: Li # 2
    coordinates: [  0.666666666593566,  0.166666666654414,  0.124999999796295 ]
    mass: 6.940000
    reduced_to: 1
  - symbol: Li # 3
    coordinates: [  0.999999999926899,  0.166666666654414,  0.124999999796295 ]
    mass: 6.940000
    reduced_to: 1
  - symbol: Li # 4
    coordinates: [  0.333333333260232,  0.499999999987748,  0.124999999796295 ]
    mass: 6.940000
    reduced_to: 1
  - symbol: Li # 5
    coordinates: [  0.666666666593566,  0.499999999987748,  0.124999999796295 ]
    mass: 6.940000
    reduced_to: 1
  - symbol: Li # 6
    coordinates: [  0.999999999926899,  0.499999999987748,  0.124999999796295 ]
    mass: 6.940000
    reduced_to: 1
  - symbol: Li # 7
    coordinates: [  0.333333333260232,  0.833333333321081,  0.124999999796295 ]
    mass: 6.940000
    reduced_to: 1
  - symbol: Li # 8
    coordinates: [  0.666666666593566,  0.833333333321081,  0.124999999796295 ]
    mass: 6.940000
    reduced_to: 1
  - symbol: Li # 9
    coordinates: [  0.999999999926899,  0.833333333321081,  0.124999999796295 ]
    mass: 6.940000
    reduced_to: 1
  - symbol: Li # 10
    coordinates: [  0.333333333260232,  0.166666666654414,  0.374999999796295 ]
    mass: 6.940000
    reduced_to: 1
  - symbol: Li # 11
    coordinates: [  0.666666666593566,  0.166666666654414,  0.374999999796295 ]
    mass: 6.940000
    reduced_to: 1
  - symbol: Li # 12
    coordinates: [  0.999999999926899,  0.166666666654414,  0.374999999796295 ]
    mass: 6.940000
    reduced_to: 1
  - symbol: Li # 13
    coordinates: [  0.333333333260232,  0.499999999987748,  0.374999999796295 ]
    mass: 6.940000
    reduced_to: 1
  - symbol: Li # 14
    coordinates: [  0.666666666593566,  0.499999999987748,  0.374999999796295 ]
    mass: 6.940000
    reduced_to: 1
  - symbol: Li # 15
    coordinates: [  0.999999999926899,  0.499999999987748,  0.374999999796295 ]
    mass: 6.940000
    reduced_to: 1
  - symbol: Li # 16
    coordinates: [  0.333333333260232,  0.833333333321081,  0.374999999796295 ]
    mass: 6.940000
    reduced_to: 1
  - symbol: Li # 17
    coordinates: [  0.666666666593566,  0.833333333321081,  0.374999999796295 ]
    mass: 6.940000
    reduced_to: 1
  - symbol: Li # 18
    coordinates: [  0.999999999926899,  0.833333333321081,  0.374999999796295 ]
    mass: 6.940000
    reduced_to: 1
  - symbol: Li # 19
    coordinates: [  0.333333333260232,  0.166666666654414,  0.624999999796295 ]
    mass: 6.940000
    reduced_to: 1
  - symbol: Li # 20
    coordinates: [  0.666666666593566,  0.166666666654414,  0.624999999796295 ]
    mass: 6.940000
    reduced_to: 1
  - symbol: Li # 21
    coordinates: [  0.999999999926899,  0.166666666654414,  0.624999999796295 ]
    mass: 6.940000
    reduced_to: 1
  - symbol: Li # 22
    coordinates: [  0.333333333260232,  0.499999999987748,  0.624999999796295 ]
    mass: 6.940000
    reduced_to: 1
  - symbol: Li # 23
    coordinates: [  0.666666666593566,  0.499999999987748,  0.624999999796295 ]
    mass: 6.940000
    reduced_to: 1
  - symbol: Li # 24
    coordinates: [  0.999999999926899,  0.499999999987748,  0.624999999796295 ]
    mass: 6.940000
    reduced_to: 1
  - symbol: Li # 25
    coordinates: [  0.333333333260232,  0.833333333321081,  0.624999999796295 ]
    mass: 6.940000
    reduced_to: 1
  - symbol: Li # 26
    coordinates: [  0.666666666593566,  0.833333333321081,  0.624999999796295 ]
    mass: 6.940000
    reduced_to: 1
  - symbol: Li # 27
    coordinates: [  0.999999999926899,  0.833333333321081,  0.624999999796295 ]
    mass: 6.940000
    reduced_to: 1
  - symbol: Li # 28
    coordinates: [  0.333333333260232,  0.166666666654414,  0.874999999796295 ]
    mass: 6.940000
    reduced_to: 1
  - symbol: Li # 29
    coordinates: [  0.666666666593566,  0.166666666654414,  0.874999999796295 ]
    mass: 6.940000
    reduced_to: 1
  - symbol: Li # 30
    coordinates: [  0.999999999926899,  0.166666666654414,  0.874999999796295 ]
    mass: 6.940000
    reduced_to: 1
  - symbol: Li # 31
    coordinates: [  0.333333333260232,  0.499999999987748,  0.874999999796295 ]
    mass: 6.940000
    reduced_to: 1
  - symbol: Li # 32
    coordinates: [  0.666666666593566,  0.499999999987748,  0.874999999796295 ]
    mass: 6.940000
    reduced_to: 1
  - symbol: Li # 33
    coordinates: [  0.999999999926899,  0.499999999987748,  0.874999999796295 ]
    mass: 6.940000
    reduced_to: 1
  - symbol: Li # 34
    coordinates: [  0.333333333260232,  0.833333333321081,  0.874999999796295 ]
    mass: 6.940000
    reduced_to: 1
  - symbol: Li # 35
    coordinates: [  0.666666666593566,  0.833333333321081,  0.874999999796295 ]
    mass: 6.940000
    reduced_to: 1
  - symbol: Li # 36
    coordinates: [  0.999999999926899,  0.833333333321081,  0.874999999796295 ]
    mass: 6.940000
    reduced_to: 1
  - symbol: Li # 37
    coordinates: [  0.166666666552302,  0.333333333240633,  0.124999999909327 ]
    mass: 6.940000
    reduced_to: 37
  - symbol: Li # 38
    coordinates: [  0.499999999885636,  0.333333333240633,  0.124999999909327 ]
    mass: 6.940000
    reduced_to: 37
  - symbol: Li # 39
    coordinates: [  0.833333333218969,  0.333333333240633,  0.124999999909327 ]
    mass: 6.940000
    reduced_to: 37
  - symbol: Li # 40
    coordinates: [  0.166666666552302,  0.666666666573966,  0.124999999909327 ]
    mass: 6.940000
    reduced_to: 37
  - symbol: Li # 41
    coordinates: [  0.499999999885636,  0.666666666573966,  0.124999999909327 ]
    mass: 6.940000
    reduced_to: 37
  - symbol: Li # 42
    coordinates: [  0.833333333218969,  0.666666666573966,  0.124999999909327 ]
    mass: 6.940000
    reduced_to: 37
  - symbol: Li # 43
    coordinates: [  0.166666666552302,  0.999999999907299,  0.124999999909327 ]
    mass: 6.940000
    reduced_to: 37
  - symbol: Li # 44
    coordinates: [  0.499999999885636,  0.999999999907299,  0.124999999909327 ]
    mass: 6.940000
    reduced_to: 37
  - symbol: Li # 45
    coordinates: [  0.833333333218969,  0.999999999907299,  0.124999999909327 ]
    mass: 6.940000
    reduced_to: 37
  - symbol: Li # 46
    coordinates: [  0.166666666552302,  0.333333333240633,  0.374999999909327 ]
    mass: 6.940000
    reduced_to: 37
  - symbol: Li # 47
    coordinates: [  0.499999999885636,  0.333333333240633,  0.374999999909327 ]
    mass: 6.940000
    reduced_to: 37
  - symbol: Li # 48
    coordinates: [  0.833333333218969,  0.333333333240633,  0.374999999909327 ]
    mass: 6.940000
    reduced_to: 37
  - symbol: Li # 49
    coordinates: [  0.166666666552302,  0.666666666573966,  0.374999999909327 ]
    mass: 6.940000
    reduced_to: 37
  - symbol: Li # 50
    coordinates: [  0.499999999885636,  0.666666666573966,  0.374999999909327 ]
    mass: 6.940000
    reduced_to: 37
  - symbol: Li # 51
    coordinates: [  0.833333333218969,  0.666666666573966,  0.374999999909327 ]
    mass: 6.940000
    reduced_to: 37
  - symbol: Li # 52
    coordinates: [  0.166666666552302,  0.999999999907299,  0.374999999909327 ]
    mass: 6.940000
    reduced_to: 37
  - symbol: Li # 53
    coordinates: [  0.499999999885636,  0.999999999907299,  0.374999999909327 ]
    mass: 6.940000
    reduced_to: 37
  - symbol: Li # 54
    coordinates: [  0.833333333218969,  0.999999999907299,  0.374999999909327 ]
    mass: 6.940000
    reduced_to: 37
  - symbol: Li # 55
    coordinates: [  0.166666666552302,  0.333333333240633,  0.624999999909327 ]
    mass: 6.940000
    reduced_to: 37
  - symbol: Li # 56
    coordinates: [  0.499999999885636,  0.333333333240633,  0.624999999909327 ]
    mass: 6.940000
    reduced_to: 37
  - symbol: Li # 57
    coordinates: [  0.833333333218969,  0.333333333240633,  0.624999999909327 ]
    mass: 6.940000
    reduced_to: 37
  - symbol: Li # 58
    coordinates: [  0.166666666552302,  0.666666666573966,  0.624999999909327 ]
    mass: 6.940000
    reduced_to: 37
  - symbol: Li # 59
    coordinates: [  0.499999999885636,  0.666666666573966,  0.624999999909327 ]
    mass: 6.940000
    reduced_to: 37
  - symbol: Li # 60
    coordinates: [  0.833333333218969,  0.666666666573966,  0.624999999909327 ]
    mass: 6.940000
    reduced_to: 37
  - symbol: Li # 61
    coordinates: [  0.166666666552302,  0.999999999907299,  0.624999999909327 ]
    mass: 6.940000
    reduced_to: 37
  - symbol: Li # 62
    coordinates: [  0.499999999885636,  0.999999999907299,  0.624999999909327 ]
    mass: 6.940000
    reduced_to: 37
  - symbol: Li # 63
    coordinates: [  0.833333333218969,  0.999999999907299,  0.624999999909327 ]
    mass: 6.940000
    reduced_to: 37
  - symbol: Li # 64
    coordinates: [  0.166666666552302,  0.333333333240633,  0.874999999909327 ]
    mass: 6.940000
    reduced_to: 37
  - symbol: Li # 65
    coordinates: [  0.499999999885636,  0.333333333240633,  0.874999999909327 ]
    mass: 6.940000
    reduced_to: 37
  - symbol: Li # 66
    coordinates: [  0.833333333218969,  0.333333333240633,  0.874999999909327 ]
    mass: 6.940000
    reduced_to: 37
  - symbol: Li # 67
    coordinates: [  0.166666666552302,  0.666666666573966,  0.874999999909327 ]
    mass: 6.940000
    reduced_to: 37
  - symbol: Li # 68
    coordinates: [  0.499999999885636,  0.666666666573966,  0.874999999909327 ]
    mass: 6.940000
    reduced_to: 37
  - symbol: Li # 69
    coordinates: [  0.833333333218969,  0.666666666573966,  0.874999999909327 ]
    mass: 6.940000
    reduced_to: 37
  - symbol: Li # 70
    coordinates: [  0.166666666552302,  0.999999999907299,  0.874999999909327 ]
    mass: 6.940000
    reduced_to: 37
  - symbol: Li # 71
    coordinates: [  0.499999999885636,  0.999999999907299,  0.874999999909327 ]
    mass: 6.940000
    reduced_to: 37
  - symbol: Li # 72
    coordinates: [  0.833333333218969,  0.999999999907299,  0.874999999909327 ]
    mass: 6.940000
    reduced_to: 37
  - symbol: Sn # 73
    coordinates: [  0.000000000172568,  0.000000000092178,  0.000000000282804 ]
    mass: 118.710000
    reduced_to: 73
  - symbol: Sn # 74
    coordinates: [  0.333333333505901,  0.000000000092178,  0.000000000282804 ]
    mass: 118.710000
    reduced_to: 73
  - symbol: Sn # 75
    coordinates: [  0.666666666839234,  0.000000000092178,  0.000000000282804 ]
    mass: 118.710000
    reduced_to: 73
  - symbol: Sn # 76
    coordinates: [  0.000000000172568,  0.333333333425511,  0.000000000282804 ]
    mass: 118.710000
    reduced_to: 73
  - symbol: Sn # 77
    coordinates: [  0.333333333505901,  0.333333333425511,  0.000000000282804 ]
    mass: 118.710000
    reduced_to: 73
  - symbol: Sn # 78
    coordinates: [  0.666666666839234,  0.333333333425511,  0.000000000282804 ]
    mass: 118.710000
    reduced_to: 73
  - symbol: Sn # 79
    coordinates: [  0.000000000172568,  0.666666666758845,  0.000000000282804 ]
    mass: 118.710000
    reduced_to: 73
  - symbol: Sn # 80
    coordinates: [  0.333333333505901,  0.666666666758845,  0.000000000282804 ]
    mass: 118.710000
    reduced_to: 73
  - symbol: Sn # 81
    coordinates: [  0.666666666839234,  0.666666666758845,  0.000000000282804 ]
    mass: 118.710000
    reduced_to: 73
  - symbol: Sn # 82
    coordinates: [  0.000000000172568,  0.000000000092178,  0.250000000282804 ]
    mass: 118.710000
    reduced_to: 73
  - symbol: Sn # 83
    coordinates: [  0.333333333505901,  0.000000000092178,  0.250000000282804 ]
    mass: 118.710000
    reduced_to: 73
  - symbol: Sn # 84
    coordinates: [  0.666666666839234,  0.000000000092178,  0.250000000282804 ]
    mass: 118.710000
    reduced_to: 73
  - symbol: Sn # 85
    coordinates: [  0.000000000172568,  0.333333333425511,  0.250000000282804 ]
    mass: 118.710000
    reduced_to: 73
  - symbol: Sn # 86
    coordinates: [  0.333333333505901,  0.333333333425511,  0.250000000282804 ]
    mass: 118.710000
    reduced_to: 73
  - symbol: Sn # 87
    coordinates: [  0.666666666839234,  0.333333333425511,  0.250000000282804 ]
    mass: 118.710000
    reduced_to: 73
  - symbol: Sn # 88
    coordinates: [  0.000000000172568,  0.666666666758845,  0.250000000282804 ]
    mass: 118.710000
    reduced_to: 73
  - symbol: Sn # 89
    coordinates: [  0.333333333505901,  0.666666666758845,  0.250000000282804 ]
    mass: 118.710000
    reduced_to: 73
  - symbol: Sn # 90
    coordinates: [  0.666666666839234,  0.666666666758845,  0.250000000282804 ]
    mass: 118.710000
    reduced_to: 73
  - symbol: Sn # 91
    coordinates: [  0.000000000172568,  0.000000000092178,  0.500000000282804 ]
    mass: 118.710000
    reduced_to: 73
  - symbol: Sn # 92
    coordinates: [  0.333333333505901,  0.000000000092178,  0.500000000282804 ]
    mass: 118.710000
    reduced_to: 73
  - symbol: Sn # 93
    coordinates: [  0.666666666839234,  0.000000000092178,  0.500000000282804 ]
    mass: 118.710000
    reduced_to: 73
  - symbol: Sn # 94
    coordinates: [  0.000000000172568,  0.333333333425511,  0.500000000282804 ]
    mass: 118.710000
    reduced_to: 73
  - symbol: Sn # 95
    coordinates: [  0.333333333505901,  0.333333333425511,  0.500000000282804 ]
    mass: 118.710000
    reduced_to: 73
  - symbol: Sn # 96
    coordinates: [  0.666666666839234,  0.333333333425511,  0.500000000282804 ]
    mass: 118.710000
    reduced_to: 73
  - symbol: Sn # 97
    coordinates: [  0.000000000172568,  0.666666666758845,  0.500000000282804 ]
    mass: 118.710000
    reduced_to: 73
  - symbol: Sn # 98
    coordinates: [  0.333333333505901,  0.666666666758845,  0.500000000282804 ]
    mass: 118.710000
    reduced_to: 73
  - symbol: Sn # 99
    coordinates: [  0.666666666839234,  0.666666666758845,  0.500000000282804 ]
    mass: 118.710000
    reduced_to: 73
  - symbol: Sn # 100
    coordinates: [  0.000000000172568,  0.000000000092178,  0.750000000282804 ]
    mass: 118.710000
    reduced_to: 73
  - symbol: Sn # 101
    coordinates: [  0.333333333505901,  0.000000000092178,  0.750000000282804 ]
    mass: 118.710000
    reduced_to: 73
  - symbol: Sn # 102
    coordinates: [  0.666666666839234,  0.000000000092178,  0.750000000282804 ]
    mass: 118.710000
    reduced_to: 73
  - symbol: Sn # 103
    coordinates: [  0.000000000172568,  0.333333333425511,  0.750000000282804 ]
    mass: 118.710000
    reduced_to: 73
  - symbol: Sn # 104
    coordinates: [  0.333333333505901,  0.333333333425511,  0.750000000282804 ]
    mass: 118.710000
    reduced_to: 73
  - symbol: Sn # 105
    coordinates: [  0.666666666839234,  0.333333333425511,  0.750000000282804 ]
    mass: 118.710000
    reduced_to: 73
  - symbol: Sn # 106
    coordinates: [  0.000000000172568,  0.666666666758845,  0.750000000282804 ]
    mass: 118.710000
    reduced_to: 73
  - symbol: Sn # 107
    coordinates: [  0.333333333505901,  0.666666666758845,  0.750000000282804 ]
    mass: 118.710000
    reduced_to: 73
  - symbol: Sn # 108
    coordinates: [  0.666666666839234,  0.666666666758845,  0.750000000282804 ]
    mass: 118.710000
    reduced_to: 73

displacements:
- atom:    1
  displacement:
    [   0.0060966308481542,  0.0060966308292596,  0.0050657857073761 ]
  forces:
  - [   0.0009441174333915, -0.0257769972085953, -0.0101825287565589 ]
  - [  -0.0004299911670387,  0.0000241128727794, -0.0000033761871236 ]
  - [  -0.0004222799325362,  0.0000232718884945, -0.0000042553092499 ]
  - [  -0.0000649882713333, -0.0007294379174709,  0.0003955884021707 ]
  - [  -0.0000213177409023, -0.0000292891636491, -0.0000046326467782 ]
  - [   0.0000052402501751, -0.0000029373914003, -0.0000046525883590 ]
  - [  -0.0000647937413305, -0.0007321871817112,  0.0003864283207804 ]
  - [   0.0000046890927479, -0.0000079805031419, -0.0000043944687604 ]
  - [  -0.0000204176430998, -0.0000329315662384, -0.0000043733207349 ]
  - [  -0.0000973045825958, -0.0001032454892993,  0.0019757305271924 ]
  - [   0.0000229829456657, -0.0000086929649115,  0.0000124056823552 ]
  - [   0.0000044601019908, -0.0000075390562415, -0.0000099875032902 ]
  - [   0.0000038081780076, -0.0008940026164055, -0.0005373987369239 ]
  - [   0.0000144343357533,  0.0000139367766678,  0.0000088666565716 ]
  - [  -0.0000003483640967,  0.0000058715231717,  0.0000009248033166 ]
  - [   0.0000041141174734, -0.0003371550701559,  0.0001469198614359 ]
  - [   0.0000058172736317, -0.0000049355439842,  0.0000012344680727 ]
  - [   0.0000073375822467,  0.0000027231872082, -0.0000067558139563 ]
  - [  -0.0000231387093663, -0.0000216965563595, -0.0001606950536370 ]
  - [   0.0000064144842327, -0.0000040689483285,  0.0000080652534962 ]
  - [   0.0000064483992901, -0.0000038640573621,  0.0000080368481576 ]
  - [  -0.0000063709449023,  0.0000091064721346, -0.0000102873891592 ]
  - [   0.0000031586969271,  0.0000052172690630,  0.0000031166709960 ]
  - [   0.0000033954788705,  0.0000055395066738,  0.0000029969960451 ]
  - [  -0.0000061539467424,  0.0000087344087660, -0.0000100866891444 ]
  - [   0.0000029809307307,  0.0000046421773732,  0.0000039204023778 ]
  - [   0.0000030421010706,  0.0000052475370467,  0.0000038016587496 ]
  - [  -0.0000891502713785, -0.0000892011448741,  0.0019661285914481 ]
  - [   0.0000046825734898, -0.0000068973749876, -0.0000118515008580 ]
  - [   0.0000236641972151, -0.0000066999346018,  0.0000105802591861 ]
  - [   0.0000040002632886, -0.0003304388374090,  0.0001422948116669 ]
  - [   0.0000077292788774,  0.0000077411532402, -0.0000091518913905 ]
  - [   0.0000065889912548, -0.0000001862645149, -0.0000009006066648 ]
  - [   0.0000045538181439, -0.0009109806269407, -0.0005466706934385 ]
  - [  -0.0000005922047421,  0.0000052414834499, -0.0000012337959561 ]
  - [   0.0000144089099194,  0.0000141207128763,  0.0000069061320573 ]
  - [   0.0001846645027399,  0.0001454366574762,  0.0001499411155237 ]
  - [   0.0005364157259464,  0.0005712949205190,  0.0001486582186772 ]
  - [  -0.0000075399875641,  0.0000016196324850,  0.0000015071623238 ]
  - [   0.0000015068799257, -0.0000053224539442,  0.0000014521770026 ]
  - [   0.0000047385692596, -0.0000053103940445,  0.0000015038808669 ]
  - [  -0.0000012069940567, -0.0000033335761600, -0.0000002144943210 ]
  - [   0.0004956698976457,  0.0005371727747843,  0.0001456728205085 ]
  - [   0.0001897476613522,  0.0001463274529669,  0.0001444478548365 ]
  - [  -0.0000028349459171,  0.0000012837739405,  0.0000015303471628 ]
  - [   0.0003852779045701,  0.0000430589425378, -0.0002152635715902 ]
  - [  -0.0003946535289288, -0.0001795025455067, -0.0003604511730373 ]
  - [   0.0000054808333516,  0.0000000101226760,  0.0000020186416805 ]
  - [  -0.0000007911585271,  0.0000073468286246,  0.0000009615905583 ]
  - [   0.0000037946738303,  0.0000074890676842,  0.0000010114163160 ]
  - [  -0.0000018919818103, -0.0000003487798494,  0.0000005615875125 ]
  - [  -0.0001471410505474, -0.0000579948646191,  0.0000881766900420 ]
  - [   0.0001343702897429,  0.0001650575577514, -0.0000580945052207 ]
  - [   0.0000100270844996, -0.0000000065796186, -0.0000004135072231 ]
  - [   0.0000047250650823,  0.0000037582392451, -0.0000095064751804 ]
  - [   0.0000054663978517,  0.0000041226776375, -0.0000100908800960 ]
  - [  -0.0000106096267700, -0.0000003739874046, -0.0000018910504878 ]
  - [  -0.0000000977888703, -0.0000085769133875, -0.0000018044374883 ]
  - [   0.0000027287751436, -0.0000083039276433, -0.0000024824403226 ]
  - [  -0.0000025215558708, -0.0000003131447102,  0.0000002197921276 ]
  - [   0.0000031837262213,  0.0000041501320993, -0.0000096275471151 ]
  - [   0.0000077136792243,  0.0000042733322516, -0.0000104256905615 ]
  - [  -0.0000105001963675, -0.0000001267756886, -0.0000018356367946 ]
  - [   0.0001335665583611,  0.0001634728396311, -0.0000591624921071 ]
  - [  -0.0001464234665036, -0.0000579508487135,  0.0000875462355907 ]
  - [   0.0000053672119975, -0.0000003351597115, -0.0000023026682356 ]
  - [   0.0000007115304470,  0.0000070360256359, -0.0000011081970115 ]
  - [   0.0000018384307623,  0.0000073288101703, -0.0000015825048649 ]
  - [  -0.0000024894252419, -0.0000004073372111, -0.0000012011332728 ]
  - [  -0.0004014186561108, -0.0001803653867682, -0.0003609921841417 ]
  - [   0.0003845673054457,  0.0000416218244936, -0.0002138046547771 ]
  - [   0.0000051846727729, -0.0000002202609153, -0.0000000215914042 ]
  - [  -0.0000429395913670,  0.0000371914356947, -0.0000735763460398 ]
  - [  -0.0002050967887044,  0.0099203325808048,  0.0041159968823195 ]
  - [  -0.0000349760521203, -0.0000153443361341, -0.0000122860074043 ]
  - [   0.0000213275943679, -0.0000170604325831,  0.0000114627182484 ]
  - [  -0.0002389638684690,  0.0042044436559081, -0.0016822163015604 ]
  - [  -0.0000980317126960,  0.0000358403194696,  0.0000749435275793 ]
  - [   0.0000005521329172, -0.0000040805898607,  0.0000014938414097 ]
  - [  -0.0000022263266146,  0.0000673090107739,  0.0000019762665033 ]
  - [  -0.0000007932540029, -0.0000042207539082, -0.0000007357448339 ]
  - [  -0.0000955718642217,  0.0000388955813833,  0.0000744815915823 ]
  - [  -0.0002200183516834,  0.0042584789916873, -0.0016692765057087 ]
  - [   0.0000142108474392, -0.0000131640044856,  0.0000133961439133 ]
  - [  -0.0000307087975671, -0.0000170566490851, -0.0000093523412943 ]
  - [  -0.0002555621904321,  0.0101561583578587,  0.0042473133653402 ]
  - [  -0.0000460297160316,  0.0000359650584869, -0.0000735577195883 ]
  - [   0.0000025128842935, -0.0000030187366065,  0.0000003427267075 ]
  - [  -0.0000023266475182,  0.0000682223471813,  0.0000036060810089 ]
  - [  -0.0000029550574254, -0.0000031696108636,  0.0000012386590242 ]
  - [   0.0000309616189043,  0.0000029592499686,  0.0000079683959484 ]
  - [  -0.0000037236313801, -0.0000330664006469, -0.0000805128365755 ]
  - [  -0.0000292692275252,  0.0000032951411413, -0.0000041685998440 ]
  - [   0.0000093222388386, -0.0000007538183127,  0.0000034645199776 ]
  - [  -0.0000042495375965, -0.0000913560215849,  0.0010506026446819 ]
  - [  -0.0000052001560107, -0.0000012679956853, -0.0000092945992947 ]
  - [   0.0000038297393985, -0.0000050980306696, -0.0000010374933481 ]
  - [  -0.0000016899430193,  0.0000392396759707, -0.0000041481107473 ]
  - [  -0.0000022362801246, -0.0000050162198022, -0.0000012218952179 ]
  - [   0.0000003275076779, -0.0000005783513188, -0.0000068284571171 ]
  - [  -0.0000040661543608, -0.0000932563780225,  0.0010510329157114 ]
  - [   0.0000048186630011, -0.0000005406464538,  0.0000061113387346 ]
  - [  -0.0000242243731918,  0.0000004675239325, -0.0000027194619179 ]
  - [  -0.0000038570724428, -0.0000377229880542, -0.0000741854310036 ]
  - [   0.0000285198912024,  0.0000001860316843,  0.0000114943832159 ]
  - [   0.0000017693399741, -0.0000058365985751,  0.0000008121132851 ]
  - [  -0.0000015445984900,  0.0000414262758568,  0.0000006183981895 ]
  - [   0.0000002216547728, -0.0000059846788645,  0.0000030919909477 ]
- atom:   73
  displacement:
    [   0.0076913503446071, -0.0000000000249022,  0.0063908629993541 ]
  forces:
  - [  -0.0000826744362712, -0.0000854451209307,  0.0000400930039177 ]
  - [  -0.0000167918624356, -0.0000060060992837, -0.0000377617543563 ]
  - [  -0.0002969095949084,  0.0030802506953478,  0.0015737869543955 ]
  - [   0.0000009458744898,  0.0000022016465664, -0.0000012789550965 ]
  - [  -0.0000004308531061,  0.0000032326206565,  0.0000020567581487 ]
  - [  -0.0000002511770845,  0.0000027650967240,  0.0000022952754080 ]
  - [  -0.0000831462675706,  0.0000830348581076,  0.0000400373828597 ]
  - [  -0.0000167223624885,  0.0000033592805266, -0.0000378014556190 ]
  - [  -0.0002965964667965, -0.0030816923826933,  0.0015736144268885 ]
  - [  -0.0000056475400925,  0.0000120350159705, -0.0000252546742558 ]
  - [   0.0000086519867182, -0.0000179642811418,  0.0000248318538070 ]
  - [  -0.0000035595189729,  0.0005891215987504,  0.0006074155680835 ]
  - [  -0.0000012028031051,  0.0000019781291485, -0.0000013322569430 ]
  - [   0.0000009404029697,  0.0000027138739824,  0.0000020060688257 ]
  - [   0.0000000872621797,  0.0000028484500945, -0.0000017937272787 ]
  - [  -0.0000057374127209, -0.0000142534263432, -0.0000250930897892 ]
  - [   0.0000084952916950,  0.0000156429596245,  0.0000249482691288 ]
  - [  -0.0000036282785913, -0.0005908901803195,  0.0006074956618249 ]
  - [   0.0000086385989562,  0.0000181696377695,  0.0000249501317739 ]
  - [  -0.0000048897927627, -0.0000123251229525, -0.0000247224234045 ]
  - [  -0.0000015510704543, -0.0005934205837548,  0.0006194408051670 ]
  - [   0.0000006692716852,  0.0000021439045668,  0.0000004805624485 ]
  - [  -0.0000007823109627,  0.0000029038637877, -0.0000028689391911 ]
  - [   0.0000002899841434,  0.0000030756928027, -0.0000036065466702 ]
  - [   0.0000088091474026, -0.0000148345716298,  0.0000251801684499 ]
  - [  -0.0000053620897233,  0.0000150571577251, -0.0000245776027441 ]
  - [  -0.0000017958745957,  0.0005973293446004,  0.0006194366142154 ]
  - [  -0.0000172409927472,  0.0000064680352807, -0.0000390214918298 ]
  - [  -0.0000807261094451,  0.0000850502401590,  0.0000386426581827 ]
  - [  -0.0002775201282930, -0.0030578020960093,  0.0015853390796110 ]
  - [  -0.0000009867362678,  0.0000019976869226,  0.0000004424246072 ]
  - [   0.0000014863908291,  0.0000028461217880, -0.0000026954180612 ]
  - [  -0.0000003564628059,  0.0000027231872082,  0.0000015693426576 ]
  - [  -0.0000169978011400, -0.0000026226043701, -0.0000391048160964 ]
  - [  -0.0000811218051240, -0.0000815177336335,  0.0000386595638702 ]
  - [  -0.0002777403860819,  0.0030620703473687,  0.0015855228994042 ]
  - [  -0.0000315438956022,  0.0000003553841452,  0.0000010958201528 ]
  - [  -0.0000008018687367,  0.0000007348985491,  0.0000004125431587 ]
  - [   0.0000568386167288, -0.0000662410675432,  0.0000006920859050 ]
  - [  -0.0000317282974720, -0.0000001637217792,  0.0000010657690837 ]
  - [   0.0000001545995474, -0.0000006026252777,  0.0000004152752808 ]
  - [   0.0000606589019299,  0.0000658510980429,  0.0000006009306617 ]
  - [   0.0122776459902525,  0.0000001604162065,  0.0061180060729384 ]
  - [   0.0000907713547349,  0.0000002236119201,  0.0000032833381738 ]
  - [   0.0059214038774371, -0.0000000444503385, -0.0028217867948115 ]
  - [  -0.0000008451752365, -0.0000075121479313, -0.0000004358589649 ]
  - [  -0.0000012409873307, -0.0000009688535556,  0.0000003715977073 ]
  - [   0.0000023259781301, -0.0000070112419053,  0.0000010468065739 ]
  - [  -0.0000008889473975,  0.0000074721228884, -0.0000004814937711 ]
  - [  -0.0000006393529475,  0.0000011099984931,  0.0000002998858690 ]
  - [   0.0000024512410164,  0.0000067605751610,  0.0000009294599295 ]
  - [   0.0005140872672200,  0.0000002264348780,  0.0005691787227988 ]
  - [   0.0000577406026423,  0.0000001421661437, -0.0000025909394026 ]
  - [  -0.0006615254096687, -0.0000000290621500,  0.0006468212231994 ]
  - [   0.0000037304125726,  0.0000065129661380,  0.0000005150213838 ]
  - [  -0.0000013737007976,  0.0000008049037206, -0.0000013019889593 ]
  - [  -0.0000026430934668,  0.0000069705056376, -0.0000009415671229 ]
  - [   0.0000034151598811, -0.0000070027090260,  0.0000005676411092 ]
  - [  -0.0000004665926099, -0.0000007495239061, -0.0000011716037989 ]
  - [  -0.0000029313378036, -0.0000076284522947, -0.0000008908100426 ]
  - [  -0.0006770775653422, -0.0000001668687304,  0.0006642774678767 ]
  - [   0.0000567520037293,  0.0000000072851023, -0.0000031408853829 ]
  - [   0.0005088737234473, -0.0000001684395698,  0.0005729515105486 ]
  - [   0.0000578854233027,  0.0000649834983051,  0.0000000649833964 ]
  - [  -0.0000012889504433, -0.0000012897653505, -0.0000009743762348 ]
  - [  -0.0000330526381731, -0.0000013234093785,  0.0000002710926310 ]
  - [   0.0000578593462706, -0.0000656126067042, -0.0000000211057340 ]