phonopy:
  version: "2.37.1"
  frequency_unit_conversion_factor: 15.633302
  symmetry_tolerance: 1.00000e-05

space_group:
  type: "P1"
  number: 1
  Hall_symbol: "P 1"

primitive_matrix:
- [  1.000000000000000,  0.000000000000000,  0.000000000000000 ]
- [  0.000000000000000,  1.000000000000000, -0.000000000000000 ]
- [  0.000000000000000,  0.000000000000000,  1.000000000000000 ]

supercell_matrix:
- [   3,   0,   0 ]
- [   0,   3,   0 ]
- [   0,   0,   1 ]

primitive_cell:
  lattice:
  - [     4.454909793736437,     0.000000000000000,     0.000000000000000 ] # a
  - [     0.000570378696337,     4.485918338427035,     0.000000000000000 ] # b
  - [     0.002856641488017,     0.000507358275078,    11.457712916786022 ] # c
  points:
  - symbol: Li # 1
    coordinates: [  0.889490883035258,  0.211989009668669,  0.326597025313796 ]
    mass: 6.940000
  - symbol: Li # 2
    coordinates: [  0.889782722124902,  0.711757207556130,  0.493660521702734 ]
    mass: 6.940000
  - symbol: Li # 3
    coordinates: [  0.889914999600417,  0.211758109449995,  0.674762960924560 ]
    mass: 6.940000
  - symbol: Li # 4
    coordinates: [  0.890137695435121,  0.212017941172426,  0.022948737205468 ]
    mass: 6.940000
  - symbol: Li # 5
    coordinates: [  0.390020271605044,  0.712051166643916,  0.027268685810749 ]
    mass: 6.940000
  - symbol: Li # 6
    coordinates: [  0.389780344346957,  0.211987016010777,  0.174776176711928 ]
    mass: 6.940000
  - symbol: Li # 7
    coordinates: [  0.389838677579668,  0.711873826509607,  0.322275638641385 ]
    mass: 6.940000
  - symbol: Li # 8
    coordinates: [  0.890055190485731,  0.712025078557595,  0.855881510547144 ]
    mass: 6.940000
  - symbol: Sn # 9
    coordinates: [  0.389925866325054,  0.711858813494317,  0.674757687314897 ]
    mass: 118.710000
  - symbol: Sn # 10
    coordinates: [  0.889916371417239,  0.712008323063651,  0.174772616792379 ]
    mass: 118.710000
  - symbol: Sn # 11
    coordinates: [  0.389511436642614,  0.211878642963399,  0.484054110886524 ]
    mass: 118.710000
  - symbol: Sn # 12
    coordinates: [  0.390204723281581,  0.211959700022771,  0.865470580400404 ]
    mass: 118.710000
  reciprocal_lattice: # without 2pi
  - [     0.224471436302928,    -0.000028541251878,    -0.000055964042897 ] # a*
  - [     0.000000000000000,     0.222919795804987,    -0.000009871097653 ] # b*
  - [     0.000000000000000,     0.000000000000000,     0.087277452949180 ] # c*

unit_cell:
  lattice:
  - [     4.454909793736437,     0.000000000000000,     0.000000000000000 ] # a
  - [     0.000570378696337,     4.485918338427035,     0.000000000000000 ] # b
  - [     0.002856641488017,     0.000507358275078,    11.457712916786020 ] # c
  points:
  - symbol: Li # 1
    coordinates: [  0.889490883035258,  0.211989009668669,  0.326597025313796 ]
    mass: 6.940000
    reduced_to: 1
  - symbol: Li # 2
    coordinates: [  0.889782722124902,  0.711757207556130,  0.493660521702734 ]
    mass: 6.940000
    reduced_to: 2
  - symbol: Li # 3
    coordinates: [  0.889914999600417,  0.211758109449995,  0.674762960924560 ]
    mass: 6.940000
    reduced_to: 3
  - symbol: Li # 4
    coordinates: [  0.890137695435121,  0.212017941172426,  0.022948737205468 ]
    mass: 6.940000
    reduced_to: 4
  - symbol: Li # 5
    coordinates: [  0.390020271605044,  0.712051166643916,  0.027268685810749 ]
    mass: 6.940000
    reduced_to: 5
  - symbol: Li # 6
    coordinates: [  0.389780344346957,  0.211987016010777,  0.174776176711928 ]
    mass: 6.940000
    reduced_to: 6
  - symbol: Li # 7
    coordinates: [  0.389838677579668,  0.711873826509607,  0.322275638641385 ]
    mass: 6.940000
    reduced_to: 7
  - symbol: Li # 8
    coordinates: [  0.890055190485731,  0.712025078557595,  0.855881510547145 ]
    mass: 6.940000
    reduced_to: 8
  - symbol: Sn # 9
    coordinates: [  0.389925866325054,  0.711858813494317,  0.674757687314897 ]
    mass: 118.710000
    reduced_to: 9
  - symbol: Sn # 10
    coordinates: [  0.889916371417239,  0.712008323063651,  0.174772616792379 ]
    mass: 118.710000
    reduced_to: 10
  - symbol: Sn # 11
    coordinates: [  0.389511436642614,  0.211878642963399,  0.484054110886524 ]
    mass: 118.710000
    reduced_to: 11
  - symbol: Sn # 12
    coordinates: [  0.390204723281581,  0.211959700022771,  0.865470580400404 ]
    mass: 118.710000
    reduced_to: 12

supercell:
  lattice:
  - [    13.364729381209312,     0.000000000000000,     0.000000000000000 ] # a
  - [     0.001711136089011,    13.457755015281105,     0.000000000000000 ] # b
  - [     0.002856641488017,     0.000507358275078,    11.457712916786020 ] # c
  points:
  - symbol: Li # 1
    coordinates: [  0.296496961011753,  0.070663003222890,  0.326597025313796 ]
    mass: 6.940000
    reduced_to: 1
  - symbol: Li # 2
    coordinates: [  0.629830294345086,  0.070663003222890,  0.326597025313796 ]
    mass: 6.940000
    reduced_to: 1
  - symbol: Li # 3
    coordinates: [  0.963163627678419,  0.070663003222890,  0.326597025313796 ]
    mass: 6.940000
    reduced_to: 1
  - symbol: Li # 4
    coordinates: [  0.296496961011753,  0.403996336556223,  0.326597025313796 ]
    mass: 6.940000
    reduced_to: 1
  - symbol: Li # 5
    coordinates: [  0.629830294345086,  0.403996336556223,  0.326597025313796 ]
    mass: 6.940000
    reduced_to: 1
  - symbol: Li # 6
    coordinates: [  0.963163627678419,  0.403996336556223,  0.326597025313796 ]
    mass: 6.940000
    reduced_to: 1
  - symbol: Li # 7
    coordinates: [  0.296496961011753,  0.737329669889556,  0.326597025313796 ]
    mass: 6.940000
    reduced_to: 1
  - symbol: Li # 8
    coordinates: [  0.629830294345086,  0.737329669889556,  0.326597025313796 ]
    mass: 6.940000
    reduced_to: 1
  - symbol: Li # 9
    coordinates: [  0.963163627678419,  0.737329669889556,  0.326597025313796 ]
    mass: 6.940000
    reduced_to: 1
  - symbol: Li # 10
    coordinates: [  0.296594240708300,  0.237252402518710,  0.493660521702734 ]
    mass: 6.940000
    reduced_to: 10
  - symbol: Li # 11
    coordinates: [  0.629927574041634,  0.237252402518710,  0.493660521702734 ]
    mass: 6.940000
    reduced_to: 10
  - symbol: Li # 12
    coordinates: [  0.963260907374967,  0.237252402518710,  0.493660521702734 ]
    mass: 6.940000
    reduced_to: 10
  - symbol: Li # 13
    coordinates: [  0.296594240708300,  0.570585735852043,  0.493660521702734 ]
    mass: 6.940000
    reduced_to: 10
  - symbol: Li # 14
    coordinates: [  0.629927574041634,  0.570585735852043,  0.493660521702734 ]
    mass: 6.940000
    reduced_to: 10
  - symbol: Li # 15
    coordinates: [  0.963260907374967,  0.570585735852043,  0.493660521702734 ]
    mass: 6.940000
    reduced_to: 10
  - symbol: Li # 16
    coordinates: [  0.296594240708300,  0.903919069185377,  0.493660521702734 ]
    mass: 6.940000
    reduced_to: 10
  - symbol: Li # 17
    coordinates: [  0.629927574041634,  0.903919069185377,  0.493660521702734 ]
    mass: 6.940000
    reduced_to: 10
  - symbol: Li # 18
    coordinates: [  0.963260907374967,  0.903919069185377,  0.493660521702734 ]
    mass: 6.940000
    reduced_to: 10
  - symbol: Li # 19
    coordinates: [  0.296638333200139,  0.070586036483332,  0.674762960924560 ]
    mass: 6.940000
    reduced_to: 19
  - symbol: Li # 20
    coordinates: [  0.629971666533472,  0.070586036483332,  0.674762960924560 ]
    mass: 6.940000
    reduced_to: 19
  - symbol: Li # 21
    coordinates: [  0.963304999866806,  0.070586036483332,  0.674762960924560 ]
    mass: 6.940000
    reduced_to: 19
  - symbol: Li # 22
    coordinates: [  0.296638333200139,  0.403919369816665,  0.674762960924560 ]
    mass: 6.940000
    reduced_to: 19
  - symbol: Li # 23
    coordinates: [  0.629971666533472,  0.403919369816665,  0.674762960924560 ]
    mass: 6.940000
    reduced_to: 19
  - symbol: Li # 24
    coordinates: [  0.963304999866806,  0.403919369816665,  0.674762960924560 ]
    mass: 6.940000
    reduced_to: 19
  - symbol: Li # 25
    coordinates: [  0.296638333200139,  0.737252703149998,  0.674762960924560 ]
    mass: 6.940000
    reduced_to: 19
  - symbol: Li # 26
    coordinates: [  0.629971666533472,  0.737252703149998,  0.674762960924560 ]
    mass: 6.940000
    reduced_to: 19
  - symbol: Li # 27
    coordinates: [  0.963304999866806,  0.737252703149998,  0.674762960924560 ]
    mass: 6.940000
    reduced_to: 19
  - symbol: Li # 28
    coordinates: [  0.296712565145040,  0.070672647057475,  0.022948737205468 ]
    mass: 6.940000
    reduced_to: 28
  - symbol: Li # 29
    coordinates: [  0.630045898478374,  0.070672647057475,  0.022948737205468 ]
    mass: 6.940000
    reduced_to: 28
  - symbol: Li # 30
    coordinates: [  0.963379231811707,  0.070672647057475,  0.022948737205468 ]
    mass: 6.940000
    reduced_to: 28
  - symbol: Li # 31
    coordinates: [  0.296712565145040,  0.404005980390809,  0.022948737205468 ]
    mass: 6.940000
    reduced_to: 28
  - symbol: Li # 32
    coordinates: [  0.630045898478374,  0.404005980390809,  0.022948737205468 ]
    mass: 6.940000
    reduced_to: 28
  - symbol: Li # 33
    coordinates: [  0.963379231811707,  0.404005980390809,  0.022948737205468 ]
    mass: 6.940000
    reduced_to: 28
  - symbol: Li # 34
    coordinates: [  0.296712565145040,  0.737339313724142,  0.022948737205468 ]
    mass: 6.940000
    reduced_to: 28
  - symbol: Li # 35
    coordinates: [  0.630045898478374,  0.737339313724142,  0.022948737205468 ]
    mass: 6.940000
    reduced_to: 28
  - symbol: Li # 36
    coordinates: [  0.963379231811707,  0.737339313724142,  0.022948737205468 ]
    mass: 6.940000
    reduced_to: 28
  - symbol: Li # 37
    coordinates: [  0.130006757201681,  0.237350388881305,  0.027268685810749 ]
    mass: 6.940000
    reduced_to: 37
  - symbol: Li # 38
    coordinates: [  0.463340090535015,  0.237350388881305,  0.027268685810749 ]
    mass: 6.940000
    reduced_to: 37
  - symbol: Li # 39
    coordinates: [  0.796673423868348,  0.237350388881305,  0.027268685810749 ]
    mass: 6.940000
    reduced_to: 37
  - symbol: Li # 40
    coordinates: [  0.130006757201681,  0.570683722214639,  0.027268685810749 ]
    mass: 6.940000
    reduced_to: 37
  - symbol: Li # 41
    coordinates: [  0.463340090535015,  0.570683722214639,  0.027268685810749 ]
    mass: 6.940000
    reduced_to: 37
  - symbol: Li # 42
    coordinates: [  0.796673423868348,  0.570683722214639,  0.027268685810749 ]
    mass: 6.940000
    reduced_to: 37
  - symbol: Li # 43
    coordinates: [  0.130006757201681,  0.904017055547972,  0.027268685810749 ]
    mass: 6.940000
    reduced_to: 37
  - symbol: Li # 44
    coordinates: [  0.463340090535015,  0.904017055547972,  0.027268685810749 ]
    mass: 6.940000
    reduced_to: 37
  - symbol: Li # 45
    coordinates: [  0.796673423868348,  0.904017055547972,  0.027268685810749 ]
    mass: 6.940000
    reduced_to: 37
  - symbol: Li # 46
    coordinates: [  0.129926781448986,  0.070662338670259,  0.174776176711928 ]
    mass: 6.940000
    reduced_to: 46
  - symbol: Li # 47
    coordinates: [  0.463260114782319,  0.070662338670259,  0.174776176711928 ]
    mass: 6.940000
    reduced_to: 46
  - symbol: Li # 48
    coordinates: [  0.796593448115652,  0.070662338670259,  0.174776176711928 ]
    mass: 6.940000
    reduced_to: 46
  - symbol: Li # 49
    coordinates: [  0.129926781448986,  0.403995672003592,  0.174776176711928 ]
    mass: 6.940000
    reduced_to: 46
  - symbol: Li # 50
    coordinates: [  0.463260114782319,  0.403995672003592,  0.174776176711928 ]
    mass: 6.940000
    reduced_to: 46
  - symbol: Li # 51
    coordinates: [  0.796593448115652,  0.403995672003592,  0.174776176711928 ]
    mass: 6.940000
    reduced_to: 46
  - symbol: Li # 52
    coordinates: [  0.129926781448986,  0.737329005336926,  0.174776176711928 ]
    mass: 6.940000
    reduced_to: 46
  - symbol: Li # 53
    coordinates: [  0.463260114782319,  0.737329005336926,  0.174776176711928 ]
    mass: 6.940000
    reduced_to: 46
  - symbol: Li # 54
    coordinates: [  0.796593448115652,  0.737329005336926,  0.174776176711928 ]
    mass: 6.940000
    reduced_to: 46
  - symbol: Li # 55
    coordinates: [  0.129946225859889,  0.237291275503202,  0.322275638641385 ]
    mass: 6.940000
    reduced_to: 55
  - symbol: Li # 56
    coordinates: [  0.463279559193223,  0.237291275503202,  0.322275638641385 ]
    mass: 6.940000
    reduced_to: 55
  - symbol: Li # 57
    coordinates: [  0.796612892526556,  0.237291275503202,  0.322275638641385 ]
    mass: 6.940000
    reduced_to: 55
  - symbol: Li # 58
    coordinates: [  0.129946225859889,  0.570624608836535,  0.322275638641385 ]
    mass: 6.940000
    reduced_to: 55
  - symbol: Li # 59
    coordinates: [  0.463279559193223,  0.570624608836535,  0.322275638641385 ]
    mass: 6.940000
    reduced_to: 55
  - symbol: Li # 60
    coordinates: [  0.796612892526556,  0.570624608836535,  0.322275638641385 ]
    mass: 6.940000
    reduced_to: 55
  - symbol: Li # 61
    coordinates: [  0.129946225859889,  0.903957942169869,  0.322275638641385 ]
    mass: 6.940000
    reduced_to: 55
  - symbol: Li # 62
    coordinates: [  0.463279559193223,  0.903957942169869,  0.322275638641385 ]
    mass: 6.940000
    reduced_to: 55
  - symbol: Li # 63
    coordinates: [  0.796612892526556,  0.903957942169869,  0.322275638641385 ]
    mass: 6.940000
    reduced_to: 55
  - symbol: Li # 64
    coordinates: [  0.296685063495244,  0.237341692852532,  0.855881510547145 ]
    mass: 6.940000
    reduced_to: 64
  - symbol: Li # 65
    coordinates: [  0.630018396828577,  0.237341692852532,  0.855881510547145 ]
    mass: 6.940000
    reduced_to: 64
  - symbol: Li # 66
    coordinates: [  0.963351730161910,  0.237341692852532,  0.855881510547145 ]
    mass: 6.940000
    reduced_to: 64
  - symbol: Li # 67
    coordinates: [  0.296685063495244,  0.570675026185865,  0.855881510547145 ]
    mass: 6.940000
    reduced_to: 64
  - symbol: Li # 68
    coordinates: [  0.630018396828577,  0.570675026185865,  0.855881510547145 ]
    mass: 6.940000
    reduced_to: 64
  - symbol: Li # 69
    coordinates: [  0.963351730161910,  0.570675026185865,  0.855881510547145 ]
    mass: 6.940000
    reduced_to: 64
  - symbol: Li # 70
    coordinates: [  0.296685063495244,  0.904008359519198,  0.855881510547145 ]
    mass: 6.940000
    reduced_to: 64
  - symbol: Li # 71
    coordinates: [  0.630018396828577,  0.904008359519198,  0.855881510547145 ]
    mass: 6.940000
    reduced_to: 64
  - symbol: Li # 72
    coordinates: [  0.963351730161910,  0.904008359519198,  0.855881510547145 ]
    mass: 6.940000
    reduced_to: 64
  - symbol: Sn # 73
    coordinates: [  0.129975288775018,  0.237286271164772,  0.674757687314897 ]
    mass: 118.710000
    reduced_to: 73
  - symbol: Sn # 74
    coordinates: [  0.463308622108351,  0.237286271164772,  0.674757687314897 ]
    mass: 118.710000
    reduced_to: 73
  - symbol: Sn # 75
    coordinates: [  0.796641955441685,  0.237286271164772,  0.674757687314897 ]
    mass: 118.710000
    reduced_to: 73
  - symbol: Sn # 76
    coordinates: [  0.129975288775018,  0.570619604498106,  0.674757687314897 ]
    mass: 118.710000
    reduced_to: 73
  - symbol: Sn # 77
    coordinates: [  0.463308622108351,  0.570619604498106,  0.674757687314897 ]
    mass: 118.710000
    reduced_to: 73
  - symbol: Sn # 78
    coordinates: [  0.796641955441685,  0.570619604498106,  0.674757687314897 ]
    mass: 118.710000
    reduced_to: 73
  - symbol: Sn # 79
    coordinates: [  0.129975288775018,  0.903952937831439,  0.674757687314897 ]
    mass: 118.710000
    reduced_to: 73
  - symbol: Sn # 80
    coordinates: [  0.463308622108351,  0.903952937831439,  0.674757687314897 ]
    mass: 118.710000
    reduced_to: 73
  - symbol: Sn # 81
    coordinates: [  0.796641955441685,  0.903952937831439,  0.674757687314897 ]
    mass: 118.710000
    reduced_to: 73
  - symbol: Sn # 82
    coordinates: [  0.296638790472413,  0.237336107687884,  0.174772616792379 ]
    mass: 118.710000
    reduced_to: 82
  - symbol: Sn # 83
    coordinates: [  0.629972123805747,  0.237336107687884,  0.174772616792379 ]
    mass: 118.710000
    reduced_to: 82
  - symbol: Sn # 84
    coordinates: [  0.963305457139080,  0.237336107687884,  0.174772616792379 ]
    mass: 118.710000
    reduced_to: 82
  - symbol: Sn # 85
    coordinates: [  0.296638790472413,  0.570669441021217,  0.174772616792379 ]
    mass: 118.710000
    reduced_to: 82
  - symbol: Sn # 86
    coordinates: [  0.629972123805747,  0.570669441021217,  0.174772616792379 ]
    mass: 118.710000
    reduced_to: 82
  - symbol: Sn # 87
    coordinates: [  0.963305457139080,  0.570669441021217,  0.174772616792379 ]
    mass: 118.710000
    reduced_to: 82
  - symbol: Sn # 88
    coordinates: [  0.296638790472413,  0.904002774354550,  0.174772616792379 ]
    mass: 118.710000
    reduced_to: 82
  - symbol: Sn # 89
    coordinates: [  0.629972123805747,  0.904002774354550,  0.174772616792379 ]
    mass: 118.710000
    reduced_to: 82
  - symbol: Sn # 90
    coordinates: [  0.963305457139080,  0.904002774354550,  0.174772616792379 ]
    mass: 118.710000
    reduced_to: 82
  - symbol: Sn # 91
    coordinates: [  0.129837145547538,  0.070626214321133,  0.484054110886524 ]
    mass: 118.710000
    reduced_to: 91
  - symbol: Sn # 92
    coordinates: [  0.463170478880871,  0.070626214321133,  0.484054110886524 ]
    mass: 118.710000
    reduced_to: 91
  - symbol: Sn # 93
    coordinates: [  0.796503812214205,  0.070626214321133,  0.484054110886524 ]
    mass: 118.710000
    reduced_to: 91
  - symbol: Sn # 94
    coordinates: [  0.129837145547538,  0.403959547654466,  0.484054110886524 ]
    mass: 118.710000
    reduced_to: 91
  - symbol: Sn # 95
    coordinates: [  0.463170478880871,  0.403959547654466,  0.484054110886524 ]
    mass: 118.710000
    reduced_to: 91
  - symbol: Sn # 96
    coordinates: [  0.796503812214205,  0.403959547654466,  0.484054110886524 ]
    mass: 118.710000
    reduced_to: 91
  - symbol: Sn # 97
    coordinates: [  0.129837145547538,  0.737292880987799,  0.484054110886524 ]
    mass: 118.710000
    reduced_to: 91
  - symbol: Sn # 98
    coordinates: [  0.463170478880871,  0.737292880987799,  0.484054110886524 ]
    mass: 118.710000
    reduced_to: 91
  - symbol: Sn # 99
    coordinates: [  0.796503812214205,  0.737292880987799,  0.484054110886524 ]
    mass: 118.710000
    reduced_to: 91
  - symbol: Sn # 100
    coordinates: [  0.130068241093860,  0.070653233340924,  0.865470580400404 ]
    mass: 118.710000
    reduced_to: 100
  - symbol: Sn # 101
    coordinates: [  0.463401574427194,  0.070653233340924,  0.865470580400404 ]
    mass: 118.710000
    reduced_to: 100
  - symbol: Sn # 102
    coordinates: [  0.796734907760527,  0.070653233340924,  0.865470580400404 ]
    mass: 118.710000
    reduced_to: 100
  - symbol: Sn # 103
    coordinates: [  0.130068241093860,  0.403986566674257,  0.865470580400404 ]
    mass: 118.710000
    reduced_to: 100
  - symbol: Sn # 104
    coordinates: [  0.463401574427194,  0.403986566674257,  0.865470580400404 ]
    mass: 118.710000
    reduced_to: 100
  - symbol: Sn # 105
    coordinates: [  0.796734907760527,  0.403986566674257,  0.865470580400404 ]
    mass: 118.710000
    reduced_to: 100
  - symbol: Sn # 106
    coordinates: [  0.130068241093860,  0.737319900007590,  0.865470580400404 ]
    mass: 118.710000
    reduced_to: 100
  - symbol: Sn # 107
    coordinates: [  0.463401574427194,  0.737319900007590,  0.865470580400404 ]
    mass: 118.710000
    reduced_to: 100
  - symbol: Sn # 108
    coordinates: [  0.796734907760527,  0.737319900007590,  0.865470580400404 ]
    mass: 118.710000
    reduced_to: 100

displacements:
- atom:    1
  displacement:
    [   0.0100000000000000,  0.0000000000000000,  0.0000000000000000 ]
  forces:
  - [  -0.0249055288732052, -0.0007596319192089,  0.0127108907327056 ]
  - [   0.0018653029110283, -0.0007604126003571,  0.0126851079985499 ]
  - [   0.0018756317440420, -0.0007606424624100,  0.0130395647138357 ]
  - [   0.0016899623442441, -0.0007609464228153,  0.0128620956093073 ]
  - [   0.0016412367112935, -0.0008416501805186,  0.0128731336444616 ]
  - [   0.0016431219410151, -0.0006803697906435,  0.0128511255607009 ]
  - [   0.0016909204423428, -0.0007610676111653,  0.0128625864163041 ]
  - [   0.0016417168080807, -0.0006792327039875,  0.0128743108361959 ]
  - [   0.0016435259021819, -0.0008410041918978,  0.0128519227728248 ]
  - [  -0.0008335798047483,  0.0008652862161398,  0.0259990878403187 ]
  - [  -0.0005081081762910,  0.0006576031446457,  0.0261290278285742 ]
  - [  -0.0005098357796669,  0.0010843062773347,  0.0258827004581690 ]
  - [  -0.0003672307357192,  0.0008704783394933,  0.0260064695030451 ]
  - [  -0.0003616334870458,  0.0008696792647243,  0.0260053798556328 ]
  - [  -0.0003631394356489,  0.0008701607584953,  0.0260083395987749 ]
  - [  -0.0008328519761562,  0.0008734529837966,  0.0259998887777328 ]
  - [  -0.0005083531141281,  0.0010786429047585,  0.0261290036141872 ]
  - [  -0.0005102381110191,  0.0006535206921399,  0.0258841179311275 ]
  - [  -0.0002614287659526,  0.0006705723935738,  0.0000157691538334 ]
  - [  -0.0007964968681335,  0.0006709049921483, -0.0006213672459126 ]
  - [  -0.0008069546893239,  0.0006710295565426,  0.0006683617830276 ]
  - [  -0.0001790486276150,  0.0006688720313832,  0.0000202441588044 ]
  - [  -0.0001030676066875,  0.0006653834134340,  0.0000077057629824 ]
  - [  -0.0001017022877932,  0.0006726006977260,  0.0000316426157951 ]
  - [  -0.0001794323325157,  0.0006692399038002,  0.0000201808288693 ]
  - [  -0.0001028887927532,  0.0006740479147993,  0.0000070584937930 ]
  - [  -0.0001020068302751,  0.0006646759575233,  0.0000308416783810 ]
  - [  -0.0007458701729774,  0.0000445535115432, -0.0130247958004475 ]
  - [  -0.0009823073633015,  0.0000442234304501, -0.0131122786551714 ]
  - [  -0.0009867497719824,  0.0000440343064838, -0.0129443183541298 ]
  - [  -0.0011547189205885,  0.0000463296091766, -0.0130276139825583 ]
  - [  -0.0010317279957235,  0.0000542095040146, -0.0130357006564736 ]
  - [  -0.0010307552292943,  0.0000352803181158, -0.0130176097154617 ]
  - [  -0.0011545387096703,  0.0000445814766863, -0.0130280070006847 ]
  - [  -0.0010313019156456,  0.0000366634230886, -0.0130363740026951 ]
  - [  -0.0010309559293091,  0.0000552783567400, -0.0130180735141039 ]
  - [   0.0001049355196301, -0.0005248724482954, -0.0355412513017654 ]
  - [   0.0001049484126270, -0.0007262868457474, -0.0356101281940937 ]
  - [   0.0000411903820350, -0.0006253344472498, -0.0355751924216747 ]
  - [   0.0000550233853573, -0.0006260927766562, -0.0355730429291725 ]
  - [   0.0000545579023310, -0.0006254980107769, -0.0355780869722366 ]
  - [   0.0000526281728526, -0.0006220856448635, -0.0355763770639896 ]
  - [   0.0001042262447299, -0.0007260614074767, -0.0355417132377625 ]
  - [   0.0001044294913299, -0.0005243009654805, -0.0356095544993877 ]
  - [   0.0000418326490035, -0.0006216047913767, -0.0355759523808956 ]
  - [   0.0038397109601647, -0.0001819804601837,  0.0032897626515478 ]
  - [   0.0038718259893358, -0.0001787118089851, -0.0033969096839428 ]
  - [   0.0003814918745775, -0.0001825666986406, -0.0000258012150880 ]
  - [   0.0004789892409462, -0.0003053632099181, -0.0000840292341309 ]
  - [   0.0004810669925064, -0.0000579640909564,  0.0000337929377565 ]
  - [   0.0003576820308808, -0.0001822384074330, -0.0000253187172348 ]
  - [   0.0004801654140465, -0.0000582312786719, -0.0000840528227855 ]
  - [   0.0004777254653163, -0.0003060053859372,  0.0000345647276845 ]
  - [   0.0003583182115108, -0.0001831569534261, -0.0000252702448051 ]
  - [   0.0005356342880987, -0.0003045168705285,  0.0355575755238533 ]
  - [   0.0005461164982989,  0.0017786938697100,  0.0354481115937233 ]
  - [  -0.0006261948728934,  0.0007322067394853,  0.0354986898601055 ]
  - [  -0.0006317915394902,  0.0007326018530875,  0.0354926250874996 ]
  - [  -0.0006314587662928,  0.0007366042118520,  0.0355038307607174 ]
  - [  -0.0006408429471776,  0.0007331534288824,  0.0354990810155869 ]
  - [   0.0005315257003531,  0.0017645172774792,  0.0355582907795906 ]
  - [   0.0005458031664602, -0.0003086428041570,  0.0354475080966949 ]
  - [  -0.0006249104626477,  0.0007330093067139,  0.0354997143149376 ]
  - [   0.0000957129523158, -0.0006209118291736, -0.0262357741594315 ]
  - [   0.0001353616826236, -0.0006545009091496, -0.0262482259422541 ]
  - [   0.0001346101053059, -0.0005864696577191, -0.0262235105037689 ]
  - [   0.0001279572024941, -0.0006198119372129, -0.0262378510087729 ]
  - [   0.0001205517910421, -0.0006197402253747, -0.0262362975627184 ]
  - [   0.0001190328039229, -0.0006195437163115, -0.0262392442673445 ]
  - [   0.0000959276221693, -0.0006190403364599, -0.0262373555451632 ]
  - [   0.0001353998668492, -0.0005843308754265, -0.0262498743832111 ]
  - [   0.0001339754089713, -0.0006535253487527, -0.0262247081845999 ]
  - [  -0.0000029012408049,  0.0001006089150906,  0.0001804181956686 ]
  - [  -0.0000025646368158,  0.0002147717750631,  0.0002153599634767 ]
  - [  -0.0000089494715212,  0.0001591692707734,  0.0002000667154789 ]
  - [  -0.0000339700090990,  0.0001731887459755,  0.0002493202337064 ]
  - [  -0.0000333039715770,  0.0001722241286188,  0.0001573446206748 ]
  - [  -0.0000398835836677,  0.0001723233726807,  0.0002037538215518 ]
  - [  -0.0000166505033121,  0.0002209292724729,  0.0001766086206771 ]
  - [  -0.0000180064016604,  0.0001082326343749,  0.0002105170860887 ]
  - [  -0.0000228578937822,  0.0001641508424655,  0.0001954711042345 ]
  - [   0.0002709697000682, -0.0003349627368152, -0.0000955425202847 ]
  - [  -0.0003099967725575, -0.0002705059014261, -0.0000625802204013 ]
  - [  -0.0003143115900457, -0.0003566821105778, -0.0001554163172841 ]
  - [  -0.0002762270160019, -0.0003184136003256, -0.0001084553077817 ]
  - [  -0.0002916916273534, -0.0003226096741855, -0.0001150388270617 ]
  - [  -0.0002868706360459, -0.0003119781613350, -0.0001022387295961 ]
  - [   0.0002732966095209, -0.0002908101305366, -0.0000940235331655 ]
  - [  -0.0003168396651745, -0.0003674887120724, -0.0000613043084741 ]
  - [  -0.0003139711916447, -0.0002649277448654, -0.0001554405316710 ]
  - [   0.0091603118926287, -0.0003670895530377, -0.0476815961301327 ]
  - [   0.0093246363103390, -0.0003685765550472, -0.0374346040189266 ]
  - [   0.0013842384796590, -0.0003682176466100, -0.0426457449793816 ]
  - [   0.0013279453851283, -0.0003377879038453, -0.0426780320703983 ]
  - [   0.0013282500440255, -0.0004013007273898, -0.0426094755530357 ]
  - [   0.0012692706659436, -0.0003702167305164, -0.0426433272659779 ]
  - [   0.0013344421749935, -0.0004047816037200, -0.0426808632910252 ]
  - [   0.0013351344969124, -0.0003416289691813, -0.0426128916442394 ]
  - [   0.0012761345133185, -0.0003728616284207, -0.0426466539502144 ]
  - [  -0.0010875090956688,  0.0003903972392436,  0.0429969429969788 ]
  - [  -0.0010892115533352,  0.0003914405242540,  0.0430741310119629 ]
  - [  -0.0010570604354143,  0.0003911983803846,  0.0430359467864037 ]
  - [  -0.0010748095810413,  0.0003009587526321,  0.0429491922259331 ]
  - [  -0.0010752007365227,  0.0004804688505828,  0.0431083440780640 ]
  - [  -0.0010824773926288,  0.0003899848088622,  0.0430272594094276 ]
  - [  -0.0010743169113994,  0.0004785191267729,  0.0429551042616367 ]
  - [  -0.0010751551017165,  0.0002995021641254,  0.0431147180497646 ]
  - [  -0.0010820003226399,  0.0003906805068254,  0.0430342741310596 ]
- atom:    1
  displacement:
    [  -0.0100000000000000,  0.0000000000000000,  0.0000000000000000 ]
  forces:
  - [   0.0284073650836945, -0.0007625378202647,  0.0126698873937130 ]
  - [   0.0016005781944841, -0.0007608644664288,  0.0130381444469094 ]
  - [   0.0016109333373606, -0.0007603081176057,  0.0126844020560384 ]
  - [   0.0017982316203415, -0.0007614806527272,  0.0128625072538853 ]
  - [   0.0018448736518621, -0.0006802020361647,  0.0128507893532515 ]
  - [   0.0018470408394933, -0.0008417582721449,  0.0128732938319445 ]
  - [   0.0017991787753999, -0.0007602709811181,  0.0128631321713328 ]
  - [   0.0018457903061062, -0.0008409371948801,  0.0128519898280501 ]
  - [   0.0018471651710570, -0.0006798057584092,  0.0128743667155504 ]
  - [   0.0001042024232447,  0.0008634841069579,  0.0259960219264030 ]
  - [  -0.0002184542827308,  0.0010836757719517,  0.0258831158280373 ]
  - [  -0.0002200054004788,  0.0006571514531970,  0.0261273533105850 ]
  - [  -0.0003610872663558,  0.0008704653009772,  0.0260064825415611 ]
  - [  -0.0003648689016700,  0.0008697500452399,  0.0260094478726387 ]
  - [  -0.0003661629743874,  0.0008701868355274,  0.0260046198964119 ]
  - [   0.0001034536398947,  0.0008730459958315,  0.0259978901594877 ]
  - [  -0.0002194866538048,  0.0006538489833474,  0.0258839763700962 ]
  - [  -0.0002207406796515,  0.0010791695676744,  0.0261278077960014 ]
  - [   0.0000235987827182,  0.0006708346772939,  0.0000128224492073 ]
  - [   0.0005740597844124,  0.0006708315922879,  0.0006691869348288 ]
  - [   0.0005572680383921,  0.0006711938767694, -0.0006191898137331 ]
  - [  -0.0000589359551668,  0.0006692586466670,  0.0000203205272555 ]
  - [  -0.0001373253762722,  0.0006735819042660,  0.0000310717150569 ]
  - [  -0.0001360168680549,  0.0006640052306466,  0.0000081984326243 ]
  - [  -0.0000594789162278,  0.0006688126595691,  0.0000201556831598 ]
  - [  -0.0001375144347548,  0.0006660792278126,  0.0000305473804474 ]
  - [  -0.0001363568007946,  0.0006731152534485,  0.0000075241550803 ]
  - [  -0.0013031070120633,  0.0000444338293164, -0.0130253909155726 ]
  - [  -0.0010570376180112,  0.0000440312942374, -0.0129467602819204 ]
  - [  -0.0010662907734513,  0.0000439746545453, -0.0131128076463938 ]
  - [  -0.0009062266908586,  0.0000473987711302, -0.0130282416939735 ]
  - [  -0.0010421881452203,  0.0000352568749804, -0.0130177587270737 ]
  - [  -0.0010413853451610,  0.0000541237459402, -0.0130355171859264 ]
  - [  -0.0009060082957149,  0.0000437429262092, -0.0130285983905196 ]