phonopy:
  version: "2.37.1"
  frequency_unit_conversion_factor: 15.633302
  symmetry_tolerance: 1.00000e-05

space_group:
  type: "P-3m1"
  number: 164
  Hall_symbol: "-P 3 2\""

primitive_matrix:
- [  1.000000000000000,  0.000000000000000, -0.000000000000000 ]
- [  0.000000000000000,  1.000000000000000, -0.000000000000000 ]
- [  0.000000000000000,  0.000000000000000,  1.000000000000000 ]

supercell_matrix:
- [   4,   0,   0 ]
- [   0,   4,   0 ]
- [   0,   0,   2 ]

primitive_cell:
  lattice:
  - [     3.292559512893024,     0.000000000000000,     0.000000000000000 ] # a
  - [    -1.646280190568913,     2.851441142484212,     0.000000000000000 ] # b
  - [    -0.000000063615469,    -0.000000356905227,     7.025743274318089 ] # c
  points:
  - symbol: Li # 1
    coordinates: [  0.666666669090312,  0.333333336318735,  0.680421030730479 ]
    mass: 6.940000
  - symbol: Li # 2
    coordinates: [  0.333333333023870,  0.666666662641055,  0.319578981556990 ]
    mass: 6.940000
  - symbol: Sn # 3
    coordinates: [  0.999999997873982,  0.000000000919459,  0.999999987724885 ]
    mass: 118.710000
  reciprocal_lattice: # without 2pi
  - [     0.303715087330751,     0.175349974579492,     0.000000011657742 ] # a*
  - [     0.000000000000000,     0.350699856679766,     0.000000017815426 ] # b*
  - [     0.000000000000000,     0.000000000000000,     0.142333694949458 ] # c*

unit_cell:
  lattice:
  - [     3.292559512893024,     0.000000000000000,     0.000000000000000 ] # a
  - [    -1.646280190568913,     2.851441142484211,     0.000000000000000 ] # b
  - [    -0.000000063615469,    -0.000000356905227,     7.025743274318087 ] # c
  points:
  - symbol: Li # 1
    coordinates: [  0.666666669090312,  0.333333336318735,  0.680421030730479 ]
    mass: 6.940000
    reduced_to: 1
  - symbol: Li # 2
    coordinates: [  0.333333333023870,  0.666666662641055,  0.319578981556990 ]
    mass: 6.940000
    reduced_to: 2
  - symbol: Sn # 3
    coordinates: [  0.999999997873982,  0.000000000919459,  0.999999987724886 ]
    mass: 118.710000
    reduced_to: 3

supercell:
  lattice:
  - [    13.170238051572097,     0.000000000000000,     0.000000000000000 ] # a
  - [    -6.585120762275650,    11.405764569936846,     0.000000000000000 ] # b
  - [    -0.000000127230938,    -0.000000713810454,    14.051486548636174 ] # c
  points:
  - symbol: Li # 1
    coordinates: [  0.166666667272578,  0.083333334079684,  0.340210515365240 ]
    mass: 6.940000
    reduced_to: 1
  - symbol: Li # 2
    coordinates: [  0.416666667272578,  0.083333334079684,  0.340210515365240 ]
    mass: 6.940000
    reduced_to: 1
  - symbol: Li # 3
    coordinates: [  0.666666667272578,  0.083333334079684,  0.340210515365240 ]
    mass: 6.940000
    reduced_to: 1
  - symbol: Li # 4
    coordinates: [  0.916666667272578,  0.083333334079684,  0.340210515365240 ]
    mass: 6.940000
    reduced_to: 1
  - symbol: Li # 5
    coordinates: [  0.166666667272578,  0.333333334079684,  0.340210515365240 ]
    mass: 6.940000
    reduced_to: 1
  - symbol: Li # 6
    coordinates: [  0.416666667272578,  0.333333334079684,  0.340210515365240 ]
    mass: 6.940000
    reduced_to: 1
  - symbol: Li # 7
    coordinates: [  0.666666667272578,  0.333333334079684,  0.340210515365240 ]
    mass: 6.940000
    reduced_to: 1
  - symbol: Li # 8
    coordinates: [  0.916666667272578,  0.333333334079684,  0.340210515365240 ]
    mass: 6.940000
    reduced_to: 1
  - symbol: Li # 9
    coordinates: [  0.166666667272578,  0.583333334079684,  0.340210515365240 ]
    mass: 6.940000
    reduced_to: 1
  - symbol: Li # 10
    coordinates: [  0.416666667272578,  0.583333334079684,  0.340210515365240 ]
    mass: 6.940000
    reduced_to: 1
  - symbol: Li # 11
    coordinates: [  0.666666667272578,  0.583333334079684,  0.340210515365240 ]
    mass: 6.940000
    reduced_to: 1
  - symbol: Li # 12
    coordinates: [  0.916666667272578,  0.583333334079684,  0.340210515365240 ]
    mass: 6.940000
    reduced_to: 1
  - symbol: Li # 13
    coordinates: [  0.166666667272578,  0.833333334079684,  0.340210515365240 ]
    mass: 6.940000
    reduced_to: 1
  - symbol: Li # 14
    coordinates: [  0.416666667272578,  0.833333334079684,  0.340210515365240 ]
    mass: 6.940000
    reduced_to: 1
  - symbol: Li # 15
    coordinates: [  0.666666667272578,  0.833333334079684,  0.340210515365240 ]
    mass: 6.940000
    reduced_to: 1
  - symbol: Li # 16
    coordinates: [  0.916666667272578,  0.833333334079684,  0.340210515365240 ]
    mass: 6.940000
    reduced_to: 1
  - symbol: Li # 17
    coordinates: [  0.166666667272578,  0.083333334079684,  0.840210515365240 ]
    mass: 6.940000
    reduced_to: 1
  - symbol: Li # 18
    coordinates: [  0.416666667272578,  0.083333334079684,  0.840210515365240 ]
    mass: 6.940000
    reduced_to: 1
  - symbol: Li # 19
    coordinates: [  0.666666667272578,  0.083333334079684,  0.840210515365240 ]
    mass: 6.940000
    reduced_to: 1
  - symbol: Li # 20
    coordinates: [  0.916666667272578,  0.083333334079684,  0.840210515365240 ]
    mass: 6.940000
    reduced_to: 1
  - symbol: Li # 21
    coordinates: [  0.166666667272578,  0.333333334079684,  0.840210515365240 ]
    mass: 6.940000
    reduced_to: 1
  - symbol: Li # 22
    coordinates: [  0.416666667272578,  0.333333334079684,  0.840210515365240 ]
    mass: 6.940000
    reduced_to: 1
  - symbol: Li # 23
    coordinates: [  0.666666667272578,  0.333333334079684,  0.840210515365240 ]
    mass: 6.940000
    reduced_to: 1
  - symbol: Li # 24
    coordinates: [  0.916666667272578,  0.333333334079684,  0.840210515365240 ]
    mass: 6.940000
    reduced_to: 1
  - symbol: Li # 25
    coordinates: [  0.166666667272578,  0.583333334079684,  0.840210515365240 ]
    mass: 6.940000
    reduced_to: 1
  - symbol: Li # 26
    coordinates: [  0.416666667272578,  0.583333334079684,  0.840210515365240 ]
    mass: 6.940000
    reduced_to: 1
  - symbol: Li # 27
    coordinates: [  0.666666667272578,  0.583333334079684,  0.840210515365240 ]
    mass: 6.940000
    reduced_to: 1
  - symbol: Li # 28
    coordinates: [  0.916666667272578,  0.583333334079684,  0.840210515365240 ]
    mass: 6.940000
    reduced_to: 1
  - symbol: Li # 29
    coordinates: [  0.166666667272578,  0.833333334079684,  0.840210515365240 ]
    mass: 6.940000
    reduced_to: 1
  - symbol: Li # 30
    coordinates: [  0.416666667272578,  0.833333334079684,  0.840210515365240 ]
    mass: 6.940000
    reduced_to: 1
  - symbol: Li # 31
    coordinates: [  0.666666667272578,  0.833333334079684,  0.840210515365240 ]
    mass: 6.940000
    reduced_to: 1
  - symbol: Li # 32
    coordinates: [  0.916666667272578,  0.833333334079684,  0.840210515365240 ]
    mass: 6.940000
    reduced_to: 1
  - symbol: Li # 33
    coordinates: [  0.083333333255968,  0.166666665660264,  0.159789490778495 ]
    mass: 6.940000
    reduced_to: 33
  - symbol: Li # 34
    coordinates: [  0.333333333255968,  0.166666665660264,  0.159789490778495 ]
    mass: 6.940000
    reduced_to: 33
  - symbol: Li # 35
    coordinates: [  0.583333333255968,  0.166666665660264,  0.159789490778495 ]
    mass: 6.940000
    reduced_to: 33
  - symbol: Li # 36
    coordinates: [  0.833333333255968,  0.166666665660264,  0.159789490778495 ]
    mass: 6.940000
    reduced_to: 33
  - symbol: Li # 37
    coordinates: [  0.083333333255968,  0.416666665660264,  0.159789490778495 ]
    mass: 6.940000
    reduced_to: 33
  - symbol: Li # 38
    coordinates: [  0.333333333255968,  0.416666665660264,  0.159789490778495 ]
    mass: 6.940000
    reduced_to: 33
  - symbol: Li # 39
    coordinates: [  0.583333333255968,  0.416666665660264,  0.159789490778495 ]
    mass: 6.940000
    reduced_to: 33
  - symbol: Li # 40
    coordinates: [  0.833333333255968,  0.416666665660264,  0.159789490778495 ]
    mass: 6.940000
    reduced_to: 33
  - symbol: Li # 41
    coordinates: [  0.083333333255968,  0.666666665660264,  0.159789490778495 ]
    mass: 6.940000
    reduced_to: 33
  - symbol: Li # 42
    coordinates: [  0.333333333255968,  0.666666665660264,  0.159789490778495 ]
    mass: 6.940000
    reduced_to: 33
  - symbol: Li # 43
    coordinates: [  0.583333333255968,  0.666666665660264,  0.159789490778495 ]
    mass: 6.940000
    reduced_to: 33
  - symbol: Li # 44
    coordinates: [  0.833333333255968,  0.666666665660264,  0.159789490778495 ]
    mass: 6.940000
    reduced_to: 33
  - symbol: Li # 45
    coordinates: [  0.083333333255968,  0.916666665660264,  0.159789490778495 ]
    mass: 6.940000
    reduced_to: 33
  - symbol: Li # 46
    coordinates: [  0.333333333255968,  0.916666665660264,  0.159789490778495 ]
    mass: 6.940000
    reduced_to: 33
  - symbol: Li # 47
    coordinates: [  0.583333333255968,  0.916666665660264,  0.159789490778495 ]
    mass: 6.940000
    reduced_to: 33
  - symbol: Li # 48
    coordinates: [  0.833333333255968,  0.916666665660264,  0.159789490778495 ]
    mass: 6.940000
    reduced_to: 33
  - symbol: Li # 49
    coordinates: [  0.083333333255968,  0.166666665660264,  0.659789490778495 ]
    mass: 6.940000
    reduced_to: 33
  - symbol: Li # 50
    coordinates: [  0.333333333255968,  0.166666665660264,  0.659789490778495 ]
    mass: 6.940000
    reduced_to: 33
  - symbol: Li # 51
    coordinates: [  0.583333333255968,  0.166666665660264,  0.659789490778495 ]
    mass: 6.940000
    reduced_to: 33
  - symbol: Li # 52
    coordinates: [  0.833333333255968,  0.166666665660264,  0.659789490778495 ]
    mass: 6.940000
    reduced_to: 33
  - symbol: Li # 53
    coordinates: [  0.083333333255968,  0.416666665660264,  0.659789490778495 ]
    mass: 6.940000
    reduced_to: 33
  - symbol: Li # 54
    coordinates: [  0.333333333255968,  0.416666665660264,  0.659789490778495 ]
    mass: 6.940000
    reduced_to: 33
  - symbol: Li # 55
    coordinates: [  0.583333333255968,  0.416666665660264,  0.659789490778495 ]
    mass: 6.940000
    reduced_to: 33
  - symbol: Li # 56
    coordinates: [  0.833333333255968,  0.416666665660264,  0.659789490778495 ]
    mass: 6.940000
    reduced_to: 33
  - symbol: Li # 57
    coordinates: [  0.083333333255968,  0.666666665660264,  0.659789490778495 ]
    mass: 6.940000
    reduced_to: 33
  - symbol: Li # 58
    coordinates: [  0.333333333255968,  0.666666665660264,  0.659789490778495 ]
    mass: 6.940000
    reduced_to: 33
  - symbol: Li # 59
    coordinates: [  0.583333333255968,  0.666666665660264,  0.659789490778495 ]
    mass: 6.940000
    reduced_to: 33
  - symbol: Li # 60
    coordinates: [  0.833333333255968,  0.666666665660264,  0.659789490778495 ]
    mass: 6.940000
    reduced_to: 33
  - symbol: Li # 61
    coordinates: [  0.083333333255968,  0.916666665660264,  0.659789490778495 ]
    mass: 6.940000
    reduced_to: 33
  - symbol: Li # 62
    coordinates: [  0.333333333255968,  0.916666665660264,  0.659789490778495 ]
    mass: 6.940000
    reduced_to: 33
  - symbol: Li # 63
    coordinates: [  0.583333333255968,  0.916666665660264,  0.659789490778495 ]
    mass: 6.940000
    reduced_to: 33
  - symbol: Li # 64
    coordinates: [  0.833333333255968,  0.916666665660264,  0.659789490778495 ]
    mass: 6.940000
    reduced_to: 33
  - symbol: Sn # 65
    coordinates: [  0.249999999468496,  0.000000000229865,  0.499999993862443 ]
    mass: 118.710000
    reduced_to: 65
  - symbol: Sn # 66
    coordinates: [  0.499999999468496,  0.000000000229865,  0.499999993862443 ]
    mass: 118.710000
    reduced_to: 65
  - symbol: Sn # 67
    coordinates: [  0.749999999468496,  0.000000000229865,  0.499999993862443 ]
    mass: 118.710000
    reduced_to: 65
  - symbol: Sn # 68
    coordinates: [  0.999999999468496,  0.000000000229865,  0.499999993862443 ]
    mass: 118.710000
    reduced_to: 65
  - symbol: Sn # 69
    coordinates: [  0.249999999468496,  0.250000000229865,  0.499999993862443 ]
    mass: 118.710000
    reduced_to: 65
  - symbol: Sn # 70
    coordinates: [  0.499999999468496,  0.250000000229865,  0.499999993862443 ]
    mass: 118.710000
    reduced_to: 65
  - symbol: Sn # 71
    coordinates: [  0.749999999468496,  0.250000000229865,  0.499999993862443 ]
    mass: 118.710000
    reduced_to: 65
  - symbol: Sn # 72
    coordinates: [  0.999999999468496,  0.250000000229865,  0.499999993862443 ]
    mass: 118.710000
    reduced_to: 65
  - symbol: Sn # 73
    coordinates: [  0.249999999468496,  0.500000000229865,  0.499999993862443 ]
    mass: 118.710000
    reduced_to: 65
  - symbol: Sn # 74
    coordinates: [  0.499999999468496,  0.500000000229865,  0.499999993862443 ]
    mass: 118.710000
    reduced_to: 65
  - symbol: Sn # 75
    coordinates: [  0.749999999468496,  0.500000000229865,  0.499999993862443 ]
    mass: 118.710000
    reduced_to: 65
  - symbol: Sn # 76
    coordinates: [  0.999999999468496,  0.500000000229865,  0.499999993862443 ]
    mass: 118.710000
    reduced_to: 65
  - symbol: Sn # 77
    coordinates: [  0.249999999468496,  0.750000000229865,  0.499999993862443 ]
    mass: 118.710000
    reduced_to: 65
  - symbol: Sn # 78
    coordinates: [  0.499999999468496,  0.750000000229865,  0.499999993862443 ]
    mass: 118.710000
    reduced_to: 65
  - symbol: Sn # 79
    coordinates: [  0.749999999468496,  0.750000000229865,  0.499999993862443 ]
    mass: 118.710000
    reduced_to: 65
  - symbol: Sn # 80
    coordinates: [  0.999999999468496,  0.750000000229865,  0.499999993862443 ]
    mass: 118.710000
    reduced_to: 65
  - symbol: Sn # 81
    coordinates: [  0.249999999468496,  0.000000000229865,  0.999999993862443 ]
    mass: 118.710000
    reduced_to: 65
  - symbol: Sn # 82
    coordinates: [  0.499999999468496,  0.000000000229865,  0.999999993862443 ]
    mass: 118.710000
    reduced_to: 65
  - symbol: Sn # 83
    coordinates: [  0.749999999468496,  0.000000000229865,  0.999999993862443 ]
    mass: 118.710000
    reduced_to: 65
  - symbol: Sn # 84
    coordinates: [  0.999999999468496,  0.000000000229865,  0.999999993862443 ]
    mass: 118.710000
    reduced_to: 65
  - symbol: Sn # 85
    coordinates: [  0.249999999468496,  0.250000000229865,  0.999999993862443 ]
    mass: 118.710000
    reduced_to: 65
  - symbol: Sn # 86
    coordinates: [  0.499999999468496,  0.250000000229865,  0.999999993862443 ]
    mass: 118.710000
    reduced_to: 65
  - symbol: Sn # 87
    coordinates: [  0.749999999468496,  0.250000000229865,  0.999999993862443 ]
    mass: 118.710000
    reduced_to: 65
  - symbol: Sn # 88
    coordinates: [  0.999999999468496,  0.250000000229865,  0.999999993862443 ]
    mass: 118.710000
    reduced_to: 65
  - symbol: Sn # 89
    coordinates: [  0.249999999468496,  0.500000000229865,  0.999999993862443 ]
    mass: 118.710000
    reduced_to: 65
  - symbol: Sn # 90
    coordinates: [  0.499999999468496,  0.500000000229865,  0.999999993862443 ]
    mass: 118.710000
    reduced_to: 65
  - symbol: Sn # 91
    coordinates: [  0.749999999468496,  0.500000000229865,  0.999999993862443 ]
    mass: 118.710000
    reduced_to: 65
  - symbol: Sn # 92
    coordinates: [  0.999999999468496,  0.500000000229865,  0.999999993862443 ]
    mass: 118.710000
    reduced_to: 65
  - symbol: Sn # 93
    coordinates: [  0.249999999468496,  0.750000000229865,  0.999999993862443 ]
    mass: 118.710000
    reduced_to: 65
  - symbol: Sn # 94
    coordinates: [  0.499999999468496,  0.750000000229865,  0.999999993862443 ]
    mass: 118.710000
    reduced_to: 65
  - symbol: Sn # 95
    coordinates: [  0.749999999468496,  0.750000000229865,  0.999999993862443 ]
    mass: 118.710000
    reduced_to: 65
  - symbol: Sn # 96
    coordinates: [  0.999999999468496,  0.750000000229865,  0.999999993862443 ]
    mass: 118.710000
    reduced_to: 65

displacements:
- atom:    1
  displacement:
    [   0.0068385736915115, -0.0000000003706422,  0.0072961571985373 ]
  forces:
  - [  -0.0081863254308701,  0.0000181688810699, -0.0651543810963631 ]
  - [   0.0013507851399481,  0.0002308359835297, -0.0488530769944191 ]
  - [  -0.0001900634670164, -0.0000191142898984, -0.0489093959331512 ]
  - [   0.0014050896279514,  0.0001280445139855, -0.0489226952195168 ]
  - [   0.0001888312399387, -0.0006787126185372, -0.0490532331168652 ]
  - [   0.0004593841731548,  0.0004326864145696, -0.0487232357263565 ]
  - [  -0.0000358289107680, -0.0000311990734190, -0.0488484762609005 ]
  - [   0.0000633564777672, -0.0000262525863945, -0.0488399676978588 ]
  - [  -0.0000472879037261,  0.0000832371297292, -0.0488938912749290 ]
  - [   0.0000174312262970,  0.0000064355554059, -0.0488439202308655 ]
  - [  -0.0000792952487245, -0.0000631097354926, -0.0489239729940891 ]
  - [   0.0000180340139195,  0.0000579617335461, -0.0488445758819580 ]
  - [   0.0001487086992711, -0.0007174979546107, -0.0490196309983730 ]
  - [   0.0000191563740373, -0.0000006635091268, -0.0487983003258705 ]
  - [   0.0000082394108176, -0.0000055087730289, -0.0488903447985649 ]
  - [   0.0005016359500587,  0.0006034206016921, -0.0487587191164494 ]
  - [  -0.0000039620790631, -0.0000002426095307, -0.0487796291708946 ]
  - [   0.0000247805455729, -0.0000025564804673, -0.0488185733556747 ]
  - [  -0.0000115209322757,  0.0000013317912817, -0.0488774962723255 ]
  - [  -0.0000096575731732,  0.0000095251016319, -0.0487883649766445 ]
  - [  -0.0000141148921102,  0.0000019924482331, -0.0487979464232922 ]
  - [   0.0000085653737187,  0.0000255121849477, -0.0488077700138092 ]
  - [  -0.0000003894862743, -0.0000005107140169, -0.0488588586449623 ]
  - [   0.0000058514415286, -0.0000025569461286, -0.0488467849791050 ]
  - [  -0.0000014619436115,  0.0000053448602557, -0.0488784089684486 ]
  - [   0.0000006014569749,  0.0000074388226494, -0.0488522797822952 ]
  - [   0.0000003920868039, -0.0000072331167758, -0.0488758534193039 ]
  - [   0.0000008197966963,  0.0000035888515413, -0.0488529205322266 ]
  - [   0.0000030884984881, -0.0000173519947566, -0.0488136112689972 ]
  - [   0.0000095843570307, -0.0000052750692703, -0.0488500632345676 ]
  - [  -0.0000047860667109, -0.0000036391429603, -0.0488568842411041 ]
  - [  -0.0000078657785707, -0.0000170017592609, -0.0487924925982952 ]
  - [   0.0012645472306758, -0.0007065242389217,  0.0509303808212280 ]
  - [  -0.0002929341571871, -0.0001912687439471,  0.0494808144867420 ]
  - [   0.0000288494502456,  0.0000104464124888,  0.0488503240048885 ]
  - [   0.0000962957856245, -0.0000214071478695,  0.0489130318164825 ]
  - [   0.0000483947114844, -0.0000625757966191,  0.0489016100764275 ]
  - [  -0.0000042029114411,  0.0003754903445952,  0.0486526414752007 ]
  - [   0.0000056925618992,  0.0000096249859780,  0.0488623939454556 ]
  - [   0.0000047832727432, -0.0000000216532499,  0.0488670915365219 ]
  - [  -0.0000127251259983,  0.0000111795961857,  0.0488708019256592 ]
  - [  -0.0000009080395103, -0.0000024903565645,  0.0488585159182549 ]
  - [   0.0000030919909477, -0.0000001373700798,  0.0488620288670063 ]
  - [   0.0000122545752674,  0.0000516604632139,  0.0488926917314529 ]
  - [   0.0000393125228584,  0.0008990483474918,  0.0502073727548122 ]
  - [  -0.0000065090134740,  0.0000014823162928,  0.0489577241241932 ]
  - [   0.0000026109628379,  0.0000019435537979,  0.0488596111536026 ]
  - [  -0.0006489182123914, -0.0003724617417902,  0.0483548156917095 ]
  - [   0.0002828800061252, -0.0000074890558608,  0.0478451922535896 ]
  - [  -0.0003753427008633, -0.0003747814334929,  0.0472241267561913 ]
  - [   0.0000058454697864,  0.0000225480180234,  0.0488069765269756 ]
  - [   0.0000205032411031,  0.0000292925396934,  0.0488203503191471 ]
  - [  -0.0000240943154495, -0.0000255953054875,  0.0487974621355534 ]
  - [   0.0000083044214989, -0.0000937725999393,  0.0489184334874153 ]
  - [   0.0000139706226037, -0.0000121770426631,  0.0488321520388126 ]
  - [   0.0000317059457302,  0.0000003515742719,  0.0488975122570992 ]
  - [  -0.0000250430312008, -0.0000177705660462,  0.0487893447279930 ]
  - [   0.0000044335611165,  0.0000087004154921,  0.0488645173609257 ]
  - [  -0.0000064610503614, -0.0000023604370654,  0.0488541200757027 ]
  - [   0.0000270246528089,  0.0000031460076571,  0.0488377064466476 ]
  - [   0.0002713287831284,  0.0003815616946667,  0.0475314781069756 ]
  - [  -0.0001309816725552,  0.0000804519513622,  0.0488417670130730 ]
  - [  -0.0000107341911644, -0.0000067003420554,  0.0488591156899929 ]
  - [   0.0000307627487928,  0.0000125206424855,  0.0489933080971241 ]
  - [   0.0045387404970825, -0.0027395496144891,  0.0089099351316690 ]
  - [  -0.0000072666443884,  0.0000813119113445, -0.0001270018983632 ]
  - [  -0.0000202436931431,  0.0000210975995287,  0.0000136240560096 ]
  - [  -0.0008102536667138, -0.0003597168251872,  0.0022171104792506 ]
  - [  -0.0001964360999409,  0.0030760804656893,  0.0055354526266456 ]
  - [  -0.0001124143600464, -0.0001135803759098,  0.0001061616349034 ]
  - [   0.0000999390613288,  0.0000288683222607,  0.0000064412888605 ]
  - [   0.0002521555870771, -0.0000973956193775,  0.0001399609027430 ]
  - [  -0.0000662868842483, -0.0000171238789335, -0.0000381250574719 ]
  - [   0.0000264360569417, -0.0000264442060143, -0.0000782032730058 ]
  - [   0.0000401855213568,  0.0000359155237675,  0.0000085761712398 ]
  - [  -0.0000115670263767, -0.0000630485592410,  0.0000051289971452 ]
  - [  -0.0000817056279629, -0.0000530669349246, -0.0001069575082511 ]
  - [   0.0000197291956283,  0.0000001497101039,  0.0000206748663913 ]
  - [   0.0000025674235076, -0.0000071339309216, -0.0000070573005360 ]
  - [   0.0000851214863360,  0.0002094322699122,  0.0001258164120372 ]
  - [   0.0000098943710327,  0.0000117236049846,  0.0000055311247706 ]
  - [  -0.0000057574361563,  0.0000079249730334, -0.0000104044738691 ]
  - [   0.0000206716358662,  0.0000269446754828,  0.0000335507793352 ]
  - [  -0.0000005476176739, -0.0000194616150111,  0.0000896178535186 ]
  - [   0.0000312309712172,  0.0000057891011238,  0.0000478057772852 ]
  - [   0.0000468455255032,  0.0000328496098518, -0.0000639769714326 ]
  - [   0.0000181347131729, -0.0000030398368835, -0.0000012067030184 ]
  - [  -0.0001817420125008,  0.0000988133251667, -0.0001705731265247 ]
  - [  -0.0000168308615685, -0.0000326319132000,  0.0000160836789291 ]
  - [   0.0000009834766388, -0.0000091646797955,  0.0000034351251088 ]
  - [   0.0000076778233051,  0.0000090183457360, -0.0000016983249225 ]
  - [   0.0000082738697529, -0.0000053988769650, -0.0000025178596843 ]
  - [  -0.0000238830689341,  0.0000035127741285, -0.0000044803600758 ]
  - [   0.0000109354159576,  0.0000017087440938,  0.0000087388616521 ]
  - [   0.0000212192535400,  0.0000081420876086,  0.0000271250610240 ]
  - [  -0.0000112892594188, -0.0001315674744546, -0.0001182442065328 ]
- atom:    1
  displacement:
    [  -0.0068385736915115,  0.0000000003706422, -0.0072961571985373 ]
  forces:
  - [   0.0080175586044788,  0.0000187586992979, -0.0328237861394882 ]
  - [  -0.0013267053291202, -0.0002351186121814, -0.0488615781068802 ]
  - [   0.0001874486042652,  0.0000184940872714, -0.0488034859299660 ]
  - [  -0.0014315212611109, -0.0001299103023484, -0.0487822592258453 ]
  - [  -0.0001871744170785,  0.0006836120737717, -0.0486561916768551 ]
  - [  -0.0004640592960641, -0.0004302430897951, -0.0489884428679943 ]
  - [   0.0000351932831109,  0.0000297682126984, -0.0488633252680302 ]
  - [  -0.0000623560044914,  0.0000264043919742, -0.0488735139369965 ]
  - [   0.0000466452911496, -0.0000806944444776, -0.0488186702132225 ]
  - [  -0.0000170852181327, -0.0000052565010265, -0.0488681122660637 ]
  - [   0.0000797538086772,  0.0000631241127849, -0.0487876459956169 ]
  - [  -0.0000165259116329, -0.0000556339509785, -0.0488688647747040 ]
  - [  -0.0001478503691033,  0.0007152214529924, -0.0486971102654934 ]
  - [  -0.0000183271476999,  0.0000009986688383, -0.0489148236811161 ]
  - [  -0.0000091618858278,  0.0000044195912778, -0.0488224253058434 ]
  - [  -0.0005011997418478, -0.0006051023374312, -0.0489494279026985 ]
  - [   0.0000031467061490, -0.0000002008164302, -0.0489306338131428 ]
  - [  -0.0000239944474743,  0.0000026859343052, -0.0488921180367470 ]
  - [   0.0000110268529170, -0.0000007147900760, -0.0488358847796917 ]
  - [   0.0000096025523817, -0.0000084174098447, -0.0489254742860794 ]
  - [   0.0000132278073579, -0.0000012401724234, -0.0489140413701534 ]
  - [  -0.0000090037938207, -0.0000236363848671, -0.0489023178815842 ]
  - [   0.0000013765339872,  0.0000012395903468, -0.0488536134362221 ]
  - [  -0.0000057183206081,  0.0000033136457205, -0.0488667376339436 ]
  - [   0.0000017061829567, -0.0000058276345953, -0.0488350465893745 ]
  - [  -0.0000006735235729, -0.0000081853941083, -0.0488597378134727 ]
  - [  -0.0000001175794750,  0.0000060735037550, -0.0488357432186604 ]
  - [  -0.0000005030306056, -0.0000039669685066, -0.0488601699471474 ]
  - [  -0.0000034205149859,  0.0000151530839503, -0.0488977842032909 ]
  - [  -0.0000088285887614,  0.0000046000350267, -0.0488636493682861 ]
  - [   0.0000038580037653,  0.0000020833685994, -0.0488580130040646 ]
  - [   0.0000084760204118,  0.0000156662426889, -0.0489187203347683 ]
  - [  -0.0012784881982952,  0.0007194081554189,  0.0467536598443985 ]
  - [   0.0002928547037300,  0.0001893148291856,  0.0482362620532513 ]
  - [  -0.0000301152595057, -0.0000108003150672,  0.0488580167293549 ]
  - [  -0.0000943421619013,  0.0000211172155105,  0.0487972237169743 ]
  - [  -0.0000486030003231,  0.0000614412128925,  0.0488080121576786 ]
  - [   0.0000026751122277, -0.0003816151292995,  0.0490595996379852 ]
  - [  -0.0000070754049375, -0.0000108997337520,  0.0488478504121304 ]
  - [  -0.0000033318065107, -0.0000000912696123,  0.0488418489694595 ]
  - [   0.0000113083515316, -0.0000108722597361,  0.0488391742110252 ]
  - [   0.0000007096678019,  0.0000018943101168,  0.0488503500819206 ]
  - [  -0.0000031497329473,  0.0000001378357410,  0.0488460958003998 ]
  - [  -0.0000112317502499, -0.0000510085374117,  0.0488162860274315 ]
  - [  -0.0000339819816872, -0.0009075012058020,  0.0474965497851372 ]
  - [   0.0000077849254012, -0.0000028062495403,  0.0487500801682472 ]
  - [  -0.0000031348317862, -0.0000027497881092,  0.0488474294543266 ]
  - [   0.0006750444881618,  0.0003879764117301,  0.0493749119341373 ]
  - [  -0.0002824036928359,  0.0000097118609119,  0.0498680137097836 ]
  - [   0.0003730778989848,  0.0003667424898595,  0.0504758022725582 ]
  - [  -0.0000034124004742, -0.0000218204222620,  0.0489054322242737 ]
  - [  -0.0000190663267858, -0.0000286865688395,  0.0488901510834694 ]
  - [   0.0000223558654397,  0.0000259568914771,  0.0489159040153027 ]
  - [  -0.0000078406028479,  0.0000951857655309,  0.0487966574728489 ]
  - [  -0.0000130093267217,  0.0000135574955493,  0.0488819181919098 ]
  - [  -0.0000291927717626,  0.0000003222376108,  0.0488149374723434 ]
  - [   0.0000248728320003,  0.0000143982470036,  0.0489219799637794 ]
  - [  -0.0000047031790018, -0.0000084703788161,  0.0488467440009117 ]
  - [   0.0000067176297307,  0.0000018174760044,  0.0488573163747787 ]
  - [  -0.0000268830917776, -0.0000040568411350,  0.0488732531666756 ]
  - [  -0.0002644287887961, -0.0003773408243433,  0.0501694604754448 ]
  - [   0.0001364313066006, -0.0000833559315652,  0.0488733425736427 ]
  - [   0.0000098962336779,  0.0000063125044107,  0.0488518327474594 ]
  - [  -0.0000292551703751, -0.0000128020183183,  0.0487181581556797 ]
  - [  -0.0043674260377884,  0.0026086056604981, -0.0086598508059978 ]
  - [   0.0000160681083798, -0.0000843182206154,  0.0001288065395784 ]
  - [   0.0000168916303664, -0.0000198609195650, -0.0000121213088278 ]
  - [   0.0008037250954658,  0.0003660772927105, -0.0022550127469003 ]
  - [   0.0001602287811693, -0.0029972223564982, -0.0054847719147801 ]
  - [   0.0001227315515280,  0.0001229308545589, -0.0001095182378776 ]
  - [  -0.0000989863183349, -0.0000302168773487, -0.0000046217464842 ]
  - [  -0.0002581514418125,  0.0000959949102253, -0.0001382289628964 ]
  - [   0.0000662005040795,  0.0000191443832591,  0.0000366343883798 ]
  - [  -0.0000272248871624,  0.0000293670454994,  0.0000770157203078 ]
  - [  -0.0000396802752221, -0.0000325627624989, -0.0000074608251452 ]
  - [   0.0000105299986899,  0.0000646039843559, -0.0000008845818229 ]
  - [   0.0000850320793688,  0.0000487150391564,  0.0001088182034437 ]
  - [  -0.0000188982212421,  0.0000002047745511, -0.0000207502453122 ]
  - [  -0.0000030589289963,  0.0000064462074079,  0.0000072512193583 ]
  - [  -0.0000896032433957, -0.0002209526719525, -0.0001211855269503 ]
  - [  -0.0000107437372208, -0.0000124456128106, -0.0000012370292097 ]
  - [   0.0000086463987827, -0.0000074794515967,  0.0000156913883984 ]
  - [  -0.0000255256891251, -0.0000271039316431, -0.0000286879658233 ]
  - [   0.0000035781413317,  0.0000190956052393, -0.0000850358046591 ]
  - [  -0.0000307615846395, -0.0000084415078163, -0.0000429541687481 ]
  - [  -0.0000466629862785, -0.0000345818698406,  0.0000689703447279 ]
  - [  -0.0000228974968195,  0.0000018023420125,  0.0000062471954152 ]
  - [   0.0001861769706011, -0.0001002438366413,  0.0001720127183944 ]
  - [   0.0000131912529469,  0.0000347162131220, -0.0000140146876220 ]
  - [   0.0000004470348358,  0.0000105515355244, -0.0000026246125344 ]
  - [  -0.0000029634684324, -0.0000087983207777,  0.0000029817456380 ]
  - [  -0.0000104624778032,  0.0000072948168963,  0.0000076726428233 ]
  - [   0.0000240686349571, -0.0000001993030310,  0.0000094701827038 ]
  - [  -0.0000103511256384,  0.0000018408754840, -0.0000038405705709 ]
  - [  -0.0000210478901863, -0.0000056427088566, -0.0000231003796216 ]
  - [   0.0000120613258332,  0.0001348015503027,  0.0001194740179926 ]
- atom:   65
  displacement:
    [   0.0068385736915115, -0.0000000003706422,  0.0072961571985373 ]
  forces:
  - [   0.0052292705513537, -0.0031080413609743, -0.0409928895533085 ]
  - [  -0.0016643537674099, -0.0008627299102955, -0.0457912310957909 ]
  - [   0.0000574797450099,  0.0000254024635069, -0.0489166304469109 ]
  - [  -0.0000886502093635,  0.0000102279591374, -0.0489089041948318 ]
  - [  -0.0000930358655751,  0.0000722409458831, -0.0489532686769962 ]