phonopy:
  version: "2.37.1"
  frequency_unit_conversion_factor: 15.633302
  symmetry_tolerance: 1.00000e-05

space_group:
  type: "P1"
  number: 1
  Hall_symbol: "P 1"

primitive_matrix:
- [  1.000000000000000,  1.000000000000000,  1.000000000000000 ]
- [  0.000000000000000,  1.000000000000000,  0.000000000000000 ]
- [  0.000000000000000,  0.000000000000000,  1.000000000000000 ]

supercell_matrix:
- [   3,   0,   0 ]
- [   0,   2,   0 ]
- [   0,   0,   2 ]

primitive_cell:
  lattice:
  - [     4.395116637528281,     0.000000000000000,     0.000000000000000 ] # a
  - [     2.190128695533189,     5.232464676360141,     0.000000000000000 ] # b
  - [     2.193491790179573,    -0.797543153882173,     5.245395333691891 ] # c
  points:
  - symbol: Li # 1
    coordinates: [  0.361013243246920,  0.184513648143393,  0.477486062577574 ]
    mass: 6.940000
  - symbol: Li # 2
    coordinates: [  0.838052209086957,  0.579186554781371,  0.127435780407290 ]
    mass: 6.940000
  - symbol: Ga # 3
    coordinates: [  0.037730336815574,  0.796947860696242,  0.509514426368133 ]
    mass: 69.723000
  - symbol: Ga # 4
    coordinates: [  0.659499897009829,  0.143171322592244,  0.924452370506496 ]
    mass: 69.723000
  - symbol: Ga # 5
    coordinates: [  0.134287057253749,  0.006616399481134,  0.110682005275644 ]
    mass: 69.723000
  - symbol: Sn # 6
    coordinates: [  0.548238888040107,  0.584717287964715,  0.699660627618924 ]
    mass: 118.710000
  reciprocal_lattice: # without 2pi
  - [     0.227525247330496,    -0.095234197258536,    -0.109625320406938 ] # a*
  - [     0.000000000000000,     0.191114524770310,     0.029058263703972 ] # b*
  - [     0.000000000000000,     0.000000000000000,     0.190643399855272 ] # c*

unit_cell:
  lattice:
  - [     4.395116637528280,     0.000000000000000,     0.000000000000000 ] # a
  - [    -2.204987941995092,     5.232464676360141,     0.000000000000000 ] # b
  - [    -2.201624847348707,    -0.797543153882173,     5.245395333691890 ] # c
  points:
  - symbol: Li # 1
    coordinates: [  0.023012953967887,  0.184513648143393,  0.477486062577574 ]
    mass: 6.940000
    reduced_to: 1
  - symbol: Li # 2
    coordinates: [  0.544674544275617,  0.579186554781371,  0.127435780407290 ]
    mass: 6.940000
    reduced_to: 2
  - symbol: Ga # 3
    coordinates: [  0.344192623879950,  0.796947860696242,  0.509514426368133 ]
    mass: 69.723000
    reduced_to: 3
  - symbol: Ga # 4
    coordinates: [  0.727123590108569,  0.143171322592244,  0.924452370506497 ]
    mass: 69.723000
    reduced_to: 4
  - symbol: Ga # 5
    coordinates: [  0.251585462010528,  0.006616399481134,  0.110682005275644 ]
    mass: 69.723000
    reduced_to: 5
  - symbol: Sn # 6
    coordinates: [  0.832616803623745,  0.584717287964715,  0.699660627618924 ]
    mass: 118.710000
    reduced_to: 6

supercell:
  lattice:
  - [    13.185349912584840,     0.000000000000000,     0.000000000000000 ] # a
  - [    -4.409975883990183,    10.464929352720283,     0.000000000000000 ] # b
  - [    -4.403249694697415,    -1.595086307764346,    10.490790667383781 ] # c
  points:
  - symbol: Li # 1
    coordinates: [  0.007670984655962,  0.092256824071697,  0.238743031288787 ]
    mass: 6.940000
    reduced_to: 1
  - symbol: Li # 2
    coordinates: [  0.341004317989295,  0.092256824071697,  0.238743031288787 ]
    mass: 6.940000
    reduced_to: 1
  - symbol: Li # 3
    coordinates: [  0.674337651322629,  0.092256824071697,  0.238743031288787 ]
    mass: 6.940000
    reduced_to: 1
  - symbol: Li # 4
    coordinates: [  0.007670984655962,  0.592256824071697,  0.238743031288787 ]
    mass: 6.940000
    reduced_to: 1
  - symbol: Li # 5
    coordinates: [  0.341004317989295,  0.592256824071697,  0.238743031288787 ]
    mass: 6.940000
    reduced_to: 1
  - symbol: Li # 6
    coordinates: [  0.674337651322629,  0.592256824071697,  0.238743031288787 ]
    mass: 6.940000
    reduced_to: 1
  - symbol: Li # 7
    coordinates: [  0.007670984655962,  0.092256824071697,  0.738743031288787 ]
    mass: 6.940000
    reduced_to: 1
  - symbol: Li # 8
    coordinates: [  0.341004317989295,  0.092256824071697,  0.738743031288787 ]
    mass: 6.940000
    reduced_to: 1
  - symbol: Li # 9
    coordinates: [  0.674337651322629,  0.092256824071697,  0.738743031288787 ]
    mass: 6.940000
    reduced_to: 1
  - symbol: Li # 10
    coordinates: [  0.007670984655962,  0.592256824071697,  0.738743031288787 ]
    mass: 6.940000
    reduced_to: 1
  - symbol: Li # 11
    coordinates: [  0.341004317989295,  0.592256824071697,  0.738743031288787 ]
    mass: 6.940000
    reduced_to: 1
  - symbol: Li # 12
    coordinates: [  0.674337651322629,  0.592256824071697,  0.738743031288787 ]
    mass: 6.940000
    reduced_to: 1
  - symbol: Li # 13
    coordinates: [  0.181558181425206,  0.289593277390685,  0.063717890203645 ]
    mass: 6.940000
    reduced_to: 13
  - symbol: Li # 14
    coordinates: [  0.514891514758539,  0.289593277390685,  0.063717890203645 ]
    mass: 6.940000
    reduced_to: 13
  - symbol: Li # 15
    coordinates: [  0.848224848091872,  0.289593277390685,  0.063717890203645 ]
    mass: 6.940000
    reduced_to: 13
  - symbol: Li # 16
    coordinates: [  0.181558181425206,  0.789593277390685,  0.063717890203645 ]
    mass: 6.940000
    reduced_to: 13
  - symbol: Li # 17
    coordinates: [  0.514891514758539,  0.789593277390685,  0.063717890203645 ]
    mass: 6.940000
    reduced_to: 13
  - symbol: Li # 18
    coordinates: [  0.848224848091872,  0.789593277390685,  0.063717890203645 ]
    mass: 6.940000
    reduced_to: 13
  - symbol: Li # 19
    coordinates: [  0.181558181425206,  0.289593277390685,  0.563717890203645 ]
    mass: 6.940000
    reduced_to: 13
  - symbol: Li # 20
    coordinates: [  0.514891514758539,  0.289593277390685,  0.563717890203645 ]
    mass: 6.940000
    reduced_to: 13
  - symbol: Li # 21
    coordinates: [  0.848224848091872,  0.289593277390685,  0.563717890203645 ]
    mass: 6.940000
    reduced_to: 13
  - symbol: Li # 22
    coordinates: [  0.181558181425206,  0.789593277390685,  0.563717890203645 ]
    mass: 6.940000
    reduced_to: 13
  - symbol: Li # 23
    coordinates: [  0.514891514758539,  0.789593277390685,  0.563717890203645 ]
    mass: 6.940000
    reduced_to: 13
  - symbol: Li # 24
    coordinates: [  0.848224848091872,  0.789593277390685,  0.563717890203645 ]
    mass: 6.940000
    reduced_to: 13
  - symbol: Ga # 25
    coordinates: [  0.114730874626650,  0.398473930348121,  0.254757213184067 ]
    mass: 69.723000
    reduced_to: 25
  - symbol: Ga # 26
    coordinates: [  0.448064207959983,  0.398473930348121,  0.254757213184067 ]
    mass: 69.723000
    reduced_to: 25
  - symbol: Ga # 27
    coordinates: [  0.781397541293317,  0.398473930348121,  0.254757213184067 ]
    mass: 69.723000
    reduced_to: 25
  - symbol: Ga # 28
    coordinates: [  0.114730874626650,  0.898473930348121,  0.254757213184067 ]
    mass: 69.723000
    reduced_to: 25
  - symbol: Ga # 29
    coordinates: [  0.448064207959983,  0.898473930348121,  0.254757213184067 ]
    mass: 69.723000
    reduced_to: 25
  - symbol: Ga # 30
    coordinates: [  0.781397541293317,  0.898473930348121,  0.254757213184067 ]
    mass: 69.723000
    reduced_to: 25
  - symbol: Ga # 31
    coordinates: [  0.114730874626650,  0.398473930348121,  0.754757213184067 ]
    mass: 69.723000
    reduced_to: 25
  - symbol: Ga # 32
    coordinates: [  0.448064207959983,  0.398473930348121,  0.754757213184067 ]
    mass: 69.723000
    reduced_to: 25
  - symbol: Ga # 33
    coordinates: [  0.781397541293317,  0.398473930348121,  0.754757213184067 ]
    mass: 69.723000
    reduced_to: 25
  - symbol: Ga # 34
    coordinates: [  0.114730874626650,  0.898473930348121,  0.754757213184067 ]
    mass: 69.723000
    reduced_to: 25
  - symbol: Ga # 35
    coordinates: [  0.448064207959983,  0.898473930348121,  0.754757213184067 ]
    mass: 69.723000
    reduced_to: 25
  - symbol: Ga # 36
    coordinates: [  0.781397541293317,  0.898473930348121,  0.754757213184067 ]
    mass: 69.723000
    reduced_to: 25
  - symbol: Ga # 37
    coordinates: [  0.242374530036190,  0.071585661296122,  0.462226185253248 ]
    mass: 69.723000
    reduced_to: 37
  - symbol: Ga # 38
    coordinates: [  0.575707863369523,  0.071585661296122,  0.462226185253248 ]
    mass: 69.723000
    reduced_to: 37
  - symbol: Ga # 39
    coordinates: [  0.909041196702856,  0.071585661296122,  0.462226185253248 ]
    mass: 69.723000
    reduced_to: 37
  - symbol: Ga # 40
    coordinates: [  0.242374530036190,  0.571585661296122,  0.462226185253248 ]
    mass: 69.723000
    reduced_to: 37
  - symbol: Ga # 41
    coordinates: [  0.575707863369523,  0.571585661296122,  0.462226185253248 ]
    mass: 69.723000
    reduced_to: 37
  - symbol: Ga # 42
    coordinates: [  0.909041196702856,  0.571585661296122,  0.462226185253248 ]
    mass: 69.723000
    reduced_to: 37
  - symbol: Ga # 43
    coordinates: [  0.242374530036190,  0.071585661296122,  0.962226185253248 ]
    mass: 69.723000
    reduced_to: 37
  - symbol: Ga # 44
    coordinates: [  0.575707863369523,  0.071585661296122,  0.962226185253248 ]
    mass: 69.723000
    reduced_to: 37
  - symbol: Ga # 45
    coordinates: [  0.909041196702856,  0.071585661296122,  0.962226185253248 ]
    mass: 69.723000
    reduced_to: 37
  - symbol: Ga # 46
    coordinates: [  0.242374530036190,  0.571585661296122,  0.962226185253248 ]
    mass: 69.723000
    reduced_to: 37
  - symbol: Ga # 47
    coordinates: [  0.575707863369523,  0.571585661296122,  0.962226185253248 ]
    mass: 69.723000
    reduced_to: 37
  - symbol: Ga # 48
    coordinates: [  0.909041196702856,  0.571585661296122,  0.962226185253248 ]
    mass: 69.723000
    reduced_to: 37
  - symbol: Ga # 49
    coordinates: [  0.083861820670176,  0.003308199740567,  0.055341002637822 ]
    mass: 69.723000
    reduced_to: 49
  - symbol: Ga # 50
    coordinates: [  0.417195154003509,  0.003308199740567,  0.055341002637822 ]
    mass: 69.723000
    reduced_to: 49
  - symbol: Ga # 51
    coordinates: [  0.750528487336843,  0.003308199740567,  0.055341002637822 ]
    mass: 69.723000
    reduced_to: 49
  - symbol: Ga # 52
    coordinates: [  0.083861820670176,  0.503308199740567,  0.055341002637822 ]
    mass: 69.723000
    reduced_to: 49
  - symbol: Ga # 53
    coordinates: [  0.417195154003509,  0.503308199740567,  0.055341002637822 ]
    mass: 69.723000
    reduced_to: 49
  - symbol: Ga # 54
    coordinates: [  0.750528487336843,  0.503308199740567,  0.055341002637822 ]
    mass: 69.723000
    reduced_to: 49
  - symbol: Ga # 55
    coordinates: [  0.083861820670176,  0.003308199740567,  0.555341002637822 ]
    mass: 69.723000
    reduced_to: 49
  - symbol: Ga # 56
    coordinates: [  0.417195154003509,  0.003308199740567,  0.555341002637822 ]
    mass: 69.723000
    reduced_to: 49
  - symbol: Ga # 57
    coordinates: [  0.750528487336843,  0.003308199740567,  0.555341002637822 ]
    mass: 69.723000
    reduced_to: 49
  - symbol: Ga # 58
    coordinates: [  0.083861820670176,  0.503308199740567,  0.555341002637822 ]
    mass: 69.723000
    reduced_to: 49
  - symbol: Ga # 59
    coordinates: [  0.417195154003509,  0.503308199740567,  0.555341002637822 ]
    mass: 69.723000
    reduced_to: 49
  - symbol: Ga # 60
    coordinates: [  0.750528487336843,  0.503308199740567,  0.555341002637822 ]
    mass: 69.723000
    reduced_to: 49
  - symbol: Sn # 61
    coordinates: [  0.277538934541248,  0.292358643982358,  0.349830313809462 ]
    mass: 118.710000
    reduced_to: 61
  - symbol: Sn # 62
    coordinates: [  0.610872267874582,  0.292358643982358,  0.349830313809462 ]
    mass: 118.710000
    reduced_to: 61
  - symbol: Sn # 63
    coordinates: [  0.944205601207915,  0.292358643982358,  0.349830313809462 ]
    mass: 118.710000
    reduced_to: 61
  - symbol: Sn # 64
    coordinates: [  0.277538934541248,  0.792358643982358,  0.349830313809462 ]
    mass: 118.710000
    reduced_to: 61
  - symbol: Sn # 65
    coordinates: [  0.610872267874582,  0.792358643982358,  0.349830313809462 ]
    mass: 118.710000
    reduced_to: 61
  - symbol: Sn # 66
    coordinates: [  0.944205601207915,  0.792358643982358,  0.349830313809462 ]
    mass: 118.710000
    reduced_to: 61
  - symbol: Sn # 67
    coordinates: [  0.277538934541248,  0.292358643982358,  0.849830313809462 ]
    mass: 118.710000
    reduced_to: 61
  - symbol: Sn # 68
    coordinates: [  0.610872267874582,  0.292358643982358,  0.849830313809462 ]
    mass: 118.710000
    reduced_to: 61
  - symbol: Sn # 69
    coordinates: [  0.944205601207915,  0.292358643982358,  0.849830313809462 ]
    mass: 118.710000
    reduced_to: 61
  - symbol: Sn # 70
    coordinates: [  0.277538934541248,  0.792358643982358,  0.849830313809462 ]
    mass: 118.710000
    reduced_to: 61
  - symbol: Sn # 71
    coordinates: [  0.610872267874582,  0.792358643982358,  0.849830313809462 ]
    mass: 118.710000
    reduced_to: 61
  - symbol: Sn # 72
    coordinates: [  0.944205601207915,  0.792358643982358,  0.849830313809462 ]
    mass: 118.710000
    reduced_to: 61

displacements:
- atom:    1
  displacement:
    [   0.0100000000000000,  0.0000000000000000,  0.0000000000000000 ]
  forces:
  - [  -0.0092671429738402, -0.0355673059821129, -0.0210821107029915 ]
  - [  -0.0011036301730201, -0.0357013456523418, -0.0210649631917477 ]
  - [  -0.0010991066228598, -0.0352185517549515, -0.0208266451954842 ]
  - [  -0.0013593988260254, -0.0354648530483246, -0.0209830962121487 ]
  - [  -0.0013313972158358, -0.0353594608604908, -0.0209666378796101 ]
  - [  -0.0013317709090188, -0.0355467647314072, -0.0208869762718678 ]
  - [  -0.0013382725883275, -0.0354746878147125, -0.0208496488630772 ]
  - [  -0.0013363183243200, -0.0354187451303005, -0.0211046002805233 ]
  - [  -0.0013359540607780, -0.0354845672845840, -0.0208918489515781 ]
  - [  -0.0013372251996771, -0.0354216694831848, -0.0208930633962154 ]
  - [  -0.0013042212231085, -0.0354794859886169, -0.0209670700132847 ]
  - [  -0.0013039236655459, -0.0354793630540371, -0.0209780372679234 ]
  - [  -0.0021605142392218,  0.0109725520014763,  0.0318519324064255 ]
  - [  -0.0014746021479368,  0.0120834894478321,  0.0311603341251612 ]
  - [  -0.0021761734969914,  0.0132098086178303,  0.0305007733404636 ]
  - [  -0.0016126958653331,  0.0121801197528839,  0.0311794467270374 ]
  - [  -0.0016217618249357,  0.0119963251054287,  0.0311429053544998 ]
  - [  -0.0008344310335815,  0.0120963901281357,  0.0311721432954073 ]
  - [  -0.0017832975136116,  0.0121034160256386,  0.0311740450561047 ]
  - [  -0.0015797027153894,  0.0121017694473267,  0.0311229471117258 ]
  - [  -0.0015807057498023,  0.0120750255882740,  0.0311965011060238 ]
  - [  -0.0014818962663412,  0.0120765306055546,  0.0312524400651455 ]
  - [  -0.0014359308406711,  0.0120583362877369,  0.0311308261007071 ]
  - [  -0.0014886251883581,  0.0121318958699703,  0.0311019215732813 ]
  - [  -0.0045182076282799,  0.0097371786832809, -0.0377883724868298 ]
  - [  -0.0043810568749905,  0.0096850171685219, -0.0375425405800343 ]
  - [  -0.0044000679627061,  0.0098163560032845, -0.0380396656692028 ]
  - [  -0.0024107829667628,  0.0077829621732235, -0.0376488305628300 ]
  - [  -0.0042707719840109,  0.0097505152225494, -0.0377960726618767 ]
  - [  -0.0025091250427067,  0.0116091929376125, -0.0379453152418137 ]
  - [  -0.0042275888845325,  0.0097130648791790, -0.0377234145998955 ]
  - [  -0.0042455429211259,  0.0097697414457798, -0.0378833599388599 ]
  - [  -0.0041863387450576,  0.0097465068101883, -0.0377808287739754 ]
  - [  -0.0041831452399492,  0.0097450539469719, -0.0377814620733261 ]
  - [  -0.0041868370026350,  0.0097331218421459, -0.0378047376871109 ]
  - [  -0.0042093321681023,  0.0097524113953114, -0.0377923622727394 ]
  - [  -0.0100185126066208,  0.0717568993568420,  0.0182066597044468 ]
  - [  -0.0104337241500616,  0.0721334666013718,  0.0174286663532257 ]
  - [  -0.0100323352962732,  0.0725186690688133,  0.0165969654917717 ]
  - [  -0.0105539914220572,  0.0722091645002365,  0.0173943899571896 ]
  - [  -0.0105545688420534,  0.0719651654362679,  0.0173539593815804 ]
  - [  -0.0105005092918873,  0.0722633376717567,  0.0175026245415211 ]
  - [  -0.0109091363847256,  0.0717242658138275,  0.0174377262592316 ]
  - [  -0.0108983330428600,  0.0725594162940979,  0.0173988975584507 ]
  - [  -0.0106741935014725,  0.0721384137868881,  0.0173991620540619 ]
  - [  -0.0104005914181471,  0.0721724480390549,  0.0173933804035187 ]
  - [  -0.0104752145707607,  0.0720857903361320,  0.0174445770680904 ]
  - [  -0.0104582048952579,  0.0721673816442490,  0.0174001455307007 ]
  - [   0.0051315762102604,  0.0331050939857960, -0.0566069632768631 ]
  - [   0.0027203019708395,  0.0332360714673996, -0.0547806397080421 ]
  - [   0.0051676598377526,  0.0333742126822472, -0.0529084056615829 ]
  - [   0.0028696188237518,  0.0332202725112438, -0.0547924861311913 ]
  - [   0.0028075966984034,  0.0332176126539707, -0.0546972490847111 ]
  - [   0.0028520612977445,  0.0332789197564125, -0.0548580624163151 ]
  - [   0.0028023424092680,  0.0332237519323826, -0.0547897331416607 ]
  - [   0.0024445587769151,  0.0334751084446907, -0.0550843253731728 ]
  - [   0.0024350937455893,  0.0330259278416634, -0.0544768907129765 ]
  - [   0.0027913069352508,  0.0333711244165897, -0.0545946359634399 ]
  - [   0.0027770921587944,  0.0330836363136768, -0.0549899563193321 ]
  - [   0.0028496906161308,  0.0332571417093277, -0.0547779984772205 ]
  - [   0.0172209907323122, -0.0895200073719025,  0.0660581886768341 ]
  - [   0.0143036292865872, -0.0917479693889618,  0.0649418681859970 ]
  - [   0.0170745477080345, -0.0938361510634422,  0.0639163255691528 ]
  - [   0.0141596179455519, -0.0913809016346931,  0.0645886212587357 ]
  - [   0.0141730997711420, -0.0921172797679901,  0.0653233975172043 ]
  - [   0.0144104231148958, -0.0917454808950424,  0.0649292916059494 ]
  - [   0.0145679004490376, -0.0918374657630920,  0.0649672597646713 ]
  - [   0.0145616354420781, -0.0916636735200882,  0.0649385452270508 ]
  - [   0.0145828649401665, -0.0917598828673363,  0.0649364218115807 ]
  - [   0.0145723056048155, -0.0917570739984512,  0.0649521350860596 ]
  - [   0.0145169161260128, -0.0920923948287964,  0.0645216181874275 ]
  - [   0.0145240267738700, -0.0914150252938271,  0.0653620436787605 ]
- atom:    1
  displacement:
    [  -0.0100000000000000,  0.0000000000000000,  0.0000000000000000 ]
  forces:
  - [   0.0066375583410263, -0.0353153422474861, -0.0208164490759373 ]
  - [  -0.0015304980333894, -0.0352213680744171, -0.0208284184336662 ]
  - [  -0.0015259131323546, -0.0357024520635605, -0.0210665166378021 ]
  - [  -0.0012732252944261, -0.0354501977562904, -0.0209083184599876 ]
  - [  -0.0012949932133779, -0.0355588719248772, -0.0209249034523964 ]
  - [  -0.0012954719131812, -0.0353712588548660, -0.0210054405033588 ]
  - [  -0.0012886228505522, -0.0354446880519390, -0.0210495628416538 ]
  - [  -0.0012959822779521, -0.0355004817247391, -0.0207913890480995 ]
  - [  -0.0012957729632035, -0.0354337692260742, -0.0210034474730492 ]
  - [  -0.0012919579166919, -0.0354981832206249, -0.0209981873631477 ]
  - [  -0.0013268619077280, -0.0354407429695129, -0.0209241695702076 ]
  - [  -0.0013262375723571, -0.0354423522949219, -0.0209140926599503 ]
  - [  -0.0007787891663611,  0.0132034868001938,  0.0304828099906445 ]
  - [  -0.0014732019044459,  0.0120995119214058,  0.0311690885573626 ]
  - [  -0.0007793426630087,  0.0109615810215473,  0.0318375490605831 ]
  - [  -0.0013329298235476,  0.0120032466948032,  0.0311464518308640 ]
  - [  -0.0013292753137648,  0.0121859908103943,  0.0311841610819101 ]
  - [  -0.0021124004852027,  0.0120902806520462,  0.0311576537787914 ]
  - [  -0.0011668237857521,  0.0120798945426941,  0.0311550721526146 ]
  - [  -0.0013712358195335,  0.0120775029063225,  0.0312000978738070 ]
  - [  -0.0013698900584131,  0.0121033713221550,  0.0311271641403437 ]
  - [  -0.0014671947574243,  0.0121055729687214,  0.0310719702392817 ]
  - [  -0.0015121316537261,  0.0121217817068100,  0.0311934575438499 ]
  - [  -0.0014588420744985,  0.0120488815009594,  0.0312224794179201 ]
  - [  -0.0039204349741340,  0.0097424276173115, -0.0377981476485729 ]
  - [  -0.0040618311613798,  0.0098032839596272, -0.0380440950393677 ]
  - [  -0.0040456028655171,  0.0096715763211250, -0.0375493913888931 ]
  - [  -0.0059677520766854,  0.0116458646953106, -0.0379411689937115 ]
  - [  -0.0041714836843312,  0.0097396597266197, -0.0377998799085617 ]
  - [  -0.0059978598728776,  0.0078189894556999, -0.0376415029168129 ]
  - [  -0.0042097484692931,  0.0097741931676865, -0.0378704071044922 ]
  - [  -0.0041989129967988,  0.0097167342901230, -0.0377078242599964 ]
  - [  -0.0042545096948743,  0.0097409971058369, -0.0378075726330280 ]
  - [  -0.0042544063180685,  0.0097405202686787, -0.0378047041594982 ]
  - [  -0.0042531453073025,  0.0097517743706703, -0.0377813763916492 ]
  - [  -0.0042304843664169,  0.0097313560545444, -0.0377956330776215 ]
  - [  -0.0108595723286271,  0.0725206807255745,  0.0166451260447502 ]
  - [  -0.0104549527168274,  0.0721451863646507,  0.0174012631177902 ]
  - [  -0.0108816828578711,  0.0717596411705017,  0.0182549916207790 ]
  - [  -0.0103372745215893,  0.0720753669738770,  0.0174398347735405 ]
  - [  -0.0103438245132565,  0.0723133832216263,  0.0174745544791222 ]
  - [  -0.0103929042816162,  0.0720133110880852,  0.0173264369368553 ]
  - [  -0.0099770389497280,  0.0725472718477249,  0.0173825249075890 ]
  - [  -0.0100045911967754,  0.0717130750417709,  0.0174225680530071 ]
  - [  -0.0102197639644146,  0.0721307098865509,  0.0174476280808449 ]
  - [  -0.0104901725426316,  0.0721125304698944,  0.0174334794282913 ]
  - [  -0.0104161631315947,  0.0721946209669113,  0.0173821188509464 ]
  - [  -0.0104360394179821,  0.0721166282892227,  0.0174248628318310 ]
  - [   0.0006374039221555,  0.0333611704409122, -0.0530061349272728 ]
  - [   0.0030053756199777,  0.0332388356328011, -0.0547857172787189 ]
  - [   0.0005093472427689,  0.0330898053944111, -0.0567097887396812 ]
  - [   0.0028554520104080,  0.0332600884139538, -0.0547729209065437 ]
  - [   0.0029164201114327,  0.0332609266042709, -0.0548683032393456 ]
  - [   0.0028693925123662,  0.0331998877227306, -0.0547101125121117 ]
  - [   0.0029248704668134,  0.0332570485770702, -0.0547770485281944 ]
  - [   0.0032783169299364,  0.0330062024295330, -0.0544852390885353 ]
  - [   0.0032917598728091,  0.0334581062197685, -0.0550956800580025 ]
  - [   0.0029364775400609,  0.0331052020192146, -0.0549744889140129 ]
  - [   0.0029448252171278,  0.0333953276276588, -0.0545807033777237 ]
  - [   0.0028763765003532,  0.0332233756780624, -0.0547884330153465 ]
  - [   0.0120144467800856, -0.0939321741461754,  0.0638579949736595 ]
  - [   0.0148861799389124, -0.0917592942714691,  0.0649546533823013 ]
  - [   0.0120690371841192, -0.0896211415529251,  0.0659997537732124 ]
  - [   0.0150231160223484, -0.0921242982149124,  0.0653046220541000 ]
  - [   0.0150222098454833, -0.0913861617445946,  0.0645687431097031 ]
  - [   0.0147767048329115, -0.0917492657899857,  0.0649605989456177 ]
  - [   0.0146235954016447, -0.0916687250137329,  0.0649281591176987 ]
  - [   0.0146287698298693, -0.0918457955121994,  0.0649572163820267 ]
  - [   0.0146006345748901, -0.0917534977197647,  0.0649579092860222 ]
  - [   0.0146177029237151, -0.0917457938194275,  0.0649438351392746 ]
  - [   0.0146700870245695, -0.0914064720273018,  0.0653751045465469 ]
  - [   0.0146616883575916, -0.0920845717191696,  0.0645352452993393 ]
- atom:    1
  displacement:
    [  -0.0038833297304009,  0.0092151912733803,  0.0000000000000000 ]
  forces:
  - [   0.0016428359085694, -0.0420356653630733, -0.0233104117214680 ]
  - [  -0.0011775207240134, -0.0352551639080048, -0.0210146829485893 ]
  - [  -0.0016183907864615, -0.0354426801204681, -0.0211081579327583 ]
  - [  -0.0013032419374213, -0.0352013632655144, -0.0208639092743397 ]
  - [  -0.0013875826261938, -0.0353625789284706, -0.0209425874054432 ]
  - [  -0.0012172556016594, -0.0352950319647789, -0.0208664946258068 ]
  - [  -0.0013187819859013, -0.0354364737868309, -0.0208811312913895 ]
  - [  -0.0013313373783603, -0.0354591384530067, -0.0208678767085075 ]
  - [  -0.0012700008228421, -0.0354334302246571, -0.0208490379154682 ]
  - [  -0.0012706823181361, -0.0355028286576271, -0.0210491381585598 ]
  - [  -0.0013370793312788, -0.0354954302310944, -0.0210192836821079 ]
  - [  -0.0013367151841521, -0.0354956313967705, -0.0209676399827003 ]
  - [  -0.0020812056027353,  0.0116884931921959,  0.0314220488071442 ]
  - [  -0.0014799959026277,  0.0120669454336166,  0.0311829932034016 ]
  - [  -0.0003183333319612,  0.0107972696423531,  0.0319418162107468 ]
  - [  -0.0013624317944050,  0.0120096094906330,  0.0311671793460846 ]
  - [  -0.0014807046391070,  0.0121276639401913,  0.0311676617711782 ]
  - [  -0.0017141290009022,  0.0130170136690140,  0.0318182855844498 ]
  - [  -0.0013510653516278,  0.0117056705057621,  0.0307943634688854 ]
  - [  -0.0014369862619787,  0.0121125541627407,  0.0311929974704981 ]
  - [  -0.0014378320192918,  0.0121148973703384,  0.0311885513365269 ]
  - [  -0.0015552981058136,  0.0120892375707626,  0.0309529285877943 ]
  - [  -0.0015234649181366,  0.0120274387300014,  0.0310619473457336 ]
  - [  -0.0013521551154554,  0.0121101625263691,  0.0310156494379044 ]
  - [  -0.0041182646527886,  0.0116422288119793, -0.0377610474824905 ]
  - [  -0.0042204214259982,  0.0097718276083469, -0.0377899296581745 ]
  - [  -0.0040802187286317,  0.0096645802259445, -0.0375559404492378 ]
  - [  -0.0066068070009351,  0.0119155347347260, -0.0379393473267555 ]
  - [  -0.0042208041995764,  0.0098269619047642, -0.0378236658871174 ]
  - [  -0.0031591369770467,  0.0104319676756859, -0.0378439649939537 ]
  - [  -0.0042569721117616,  0.0097452104091644, -0.0379153415560722 ]
  - [  -0.0042023621499538,  0.0097535997629166, -0.0378658920526505 ]
  - [  -0.0042020021937788,  0.0097215101122856, -0.0377692542970181 ]
  - [  -0.0042403675615788,  0.0098203159868717, -0.0376535281538963 ]
  - [  -0.0042250342667103,  0.0097672082483768, -0.0377716161310673 ]
  - [  -0.0042245294898748,  0.0098997652530670, -0.0374586656689644 ]
  - [  -0.0108899679034948,  0.0719671472907066,  0.0170934200286865 ]
  - [  -0.0104435626417398,  0.0721442028880119,  0.0173945575952530 ]
  - [  -0.0103190373629332,  0.0716601908206940,  0.0177196264266968 ]
  - [  -0.0103819500654936,  0.0720167383551598,  0.0169667080044746 ]
  - [  -0.0105127096176147,  0.0721032992005348,  0.0174207687377930 ]
  - [  -0.0103590674698353,  0.0723739340901375,  0.0171434581279755 ]
  - [  -0.0100479498505592,  0.0723421126604080,  0.0173524022102356 ]
  - [  -0.0105027221143246,  0.0720277279615402,  0.0173366256058216 ]
  - [  -0.0103580839931965,  0.0722560882568359,  0.0171839371323586 ]
  - [  -0.0104908403009176,  0.0721457451581955,  0.0174598470330238 ]
  - [  -0.0104506127536297,  0.0720853209495544,  0.0173658505082130 ]
  - [  -0.0103969359770417,  0.0720591396093369,  0.0173796191811562 ]
  - [   0.0015610703267157,  0.0334192961454391, -0.0535108819603920 ]
  - [   0.0029220376163721,  0.0332486107945442, -0.0547856502234936 ]
  - [   0.0024202598724514,  0.0333175063133240, -0.0549153089523315 ]
  - [   0.0028607184067369,  0.0332533903419971, -0.0544858276844025 ]
  - [   0.0028633752372116,  0.0332174375653267, -0.0547568574547768 ]
  - [   0.0028801639564335,  0.0332053750753403, -0.0547674931585789 ]
  - [   0.0028853940311819,  0.0334469825029373, -0.0551156662404537 ]
  - [   0.0031131412833929,  0.0332026928663254, -0.0547157078981400 ]
  - [   0.0029425453394651,  0.0333949886262417, -0.0549720115959644 ]
  - [   0.0028534065932035,  0.0331782922148705, -0.0549497604370117 ]
  - [   0.0028974157758057,  0.0333063490688801, -0.0547873750329018 ]
  - [   0.0028981231153011,  0.0332385636866093, -0.0547726191580296 ]
  - [   0.0155046135187149, -0.0913873687386513,  0.0654039680957794 ]
  - [   0.0146883381530643, -0.0917571634054184,  0.0648398697376251 ]
  - [   0.0117995515465736, -0.0897575095295906,  0.0661704763770103 ]
  - [   0.0153975654393435, -0.0922109112143517,  0.0653879195451736 ]
  - [   0.0141372457146645, -0.0919744297862053,  0.0651121586561203 ]
  - [   0.0146486107259989, -0.0917493999004364,  0.0647786930203438 ]
  - [   0.0146402865648270, -0.0917088091373444,  0.0649144947528839 ]
  - [   0.0145826097577810, -0.0917949974536896,  0.0649299323558807 ]
  - [   0.0145846288651228, -0.0913519337773323,  0.0643562078475952 ]
  - [   0.0146139319986105, -0.0917644649744034,  0.0649559423327446 ]
  - [   0.0146190691739321, -0.0916434302926064,  0.0650958940386772 ]
  - [   0.0146157201379538, -0.0919231176376343,  0.0647549256682396 ]
- atom:    1
  displacement:
    [   0.0038833297304009, -0.0092151912733803,  0.0000000000000000 ]
  forces:
  - [  -0.0043040895834565, -0.0290138572454453, -0.0185664743185043 ]
  - [  -0.0014575116802007, -0.0356614813208580, -0.0208746232092381 ]
  - [  -0.0010101428488269, -0.0354744270443916, -0.0207828953862190 ]
  - [  -0.0013237491948530, -0.0357188358902931, -0.0210301950573921 ]
  - [  -0.0012397792888805, -0.0355548188090324, -0.0209495984017849 ]
  - [  -0.0014149184571579, -0.0356331393122673, -0.0210290029644966 ]
  - [  -0.0013100465293974, -0.0354838185012341, -0.0210141018033028 ]
  - [  -0.0013000721810386, -0.0354612618684769, -0.0210260301828384 ]
  - [  -0.0013607223518193, -0.0354867577552795, -0.0210458487272263 ]
  - [  -0.0013590389862657, -0.0354162417352200, -0.0208426080644131 ]
  - [  -0.0012939696898684, -0.0354251563549042, -0.0208704583346844 ]
  - [  -0.0012925469782203, -0.0354248322546482, -0.0209235846996307 ]
  - [  -0.0008700708858669,  0.0125077776610851,  0.0309071969240904 ]
  - [  -0.0014680149033666,  0.0121172368526459,  0.0311457291245461 ]
  - [  -0.0026198197156191,  0.0133828893303871,  0.0304061640053988 ]