phonopy:
  version: "2.37.1"
  frequency_unit_conversion_factor: 15.633302
  symmetry_tolerance: 1.00000e-05

space_group:
  type: "P1"
  number: 1
  Hall_symbol: "P 1"

primitive_matrix:
- [  1.000000000000000, -1.000000000000000, -0.000000000000000 ]
- [  0.000000000000000,  1.000000000000000,  0.000000000000000 ]
- [  0.000000000000000,  0.000000000000000,  1.000000000000000 ]

supercell_matrix:
- [   3,   0,   0 ]
- [   0,   3,   0 ]
- [   0,   0,   1 ]

primitive_cell:
  lattice:
  - [     4.679261939680961,     0.000000000000000,     0.000000000000000 ] # a
  - [    -2.339551565054716,     4.083329508875279,     0.000000000000000 ] # b
  - [    -0.000657622144423,    -2.551297801978393,     9.719974301366404 ] # c
  points:
  - symbol: Li # 1
    coordinates: [  0.695356850479015,  0.409349306535649,  0.317597839315760 ]
    mass: 6.940000
  - symbol: Li # 2
    coordinates: [  0.279180644895104,  0.576900116957471,  0.084781736397869 ]
    mass: 6.940000
  - symbol: Li # 3
    coordinates: [  0.487232926640152,  0.993058282376550,  0.701192845974354 ]
    mass: 6.940000
  - symbol: Li # 4
    coordinates: [  0.792609235744516,  0.603875594354586,  0.603224482838051 ]
    mass: 6.940000
  - symbol: Li # 5
    coordinates: [  0.580950791273480,  0.180402085050073,  0.006062257770454 ]
    mass: 6.940000
  - symbol: Li # 6
    coordinates: [  0.181912536492376,  0.382354772632615,  0.799090654756762 ]
    mass: 6.940000
  - symbol: Li # 7
    coordinates: [  0.393548711127817,  0.805822017762147,  0.396266043863484 ]
    mass: 6.940000
  - symbol: Sn # 8
    coordinates: [  0.096417554889800,  0.211539235297055,  0.507827358835141 ]
    mass: 118.710000
  - symbol: Sn # 9
    coordinates: [  0.987280904005170,  0.993141568033970,  0.201185299454678 ]
    mass: 118.710000
  - symbol: Sn # 10
    coordinates: [  0.878086275186780,  0.774679085686873,  0.894521229897533 ]
    mass: 118.710000
  reciprocal_lattice: # without 2pi
  - [     0.213708916681886,     0.122444938475458,     0.032153793047370 ] # a*
  - [     0.000000000000000,     0.244898188555800,     0.064280850010382 ] # b*
  - [     0.000000000000000,     0.000000000000000,     0.102880930442318 ] # c*

unit_cell:
  lattice:
  - [     4.679261939680961,     0.000000000000000,     0.000000000000000 ] # a
  - [     2.339710374626245,     4.083329508875278,     0.000000000000000 ] # b
  - [    -0.000657622144422,    -2.551297801978393,     9.719974301366404 ] # c
  points:
  - symbol: Li # 1
    coordinates: [  0.286007543943366,  0.409349306535649,  0.317597839315760 ]
    mass: 6.940000
    reduced_to: 1
  - symbol: Li # 2
    coordinates: [  0.702280527937633,  0.576900116957471,  0.084781736397869 ]
    mass: 6.940000
    reduced_to: 2
  - symbol: Li # 3
    coordinates: [  0.494174644263602,  0.993058282376550,  0.701192845974354 ]
    mass: 6.940000
    reduced_to: 3
  - symbol: Li # 4
    coordinates: [  0.188733641389930,  0.603875594354586,  0.603224482838051 ]
    mass: 6.940000
    reduced_to: 4
  - symbol: Li # 5
    coordinates: [  0.400548706223407,  0.180402085050073,  0.006062257770454 ]
    mass: 6.940000
    reduced_to: 5
  - symbol: Li # 6
    coordinates: [  0.799557763859761,  0.382354772632615,  0.799090654756762 ]
    mass: 6.940000
    reduced_to: 6
  - symbol: Li # 7
    coordinates: [  0.587726693365670,  0.805822017762147,  0.396266043863484 ]
    mass: 6.940000
    reduced_to: 7
  - symbol: Sn # 8
    coordinates: [  0.884878319592744,  0.211539235297055,  0.507827358835141 ]
    mass: 118.710000
    reduced_to: 8
  - symbol: Sn # 9
    coordinates: [  0.994139335971199,  0.993141568033970,  0.201185299454678 ]
    mass: 118.710000
    reduced_to: 9
  - symbol: Sn # 10
    coordinates: [  0.103407189499907,  0.774679085686873,  0.894521229897533 ]
    mass: 118.710000
    reduced_to: 10

supercell:
  lattice:
  - [    14.037785819042883,     0.000000000000000,     0.000000000000000 ] # a
  - [     7.019131123878736,    12.249988526625835,     0.000000000000000 ] # b
  - [    -0.000657622144422,    -2.551297801978393,     9.719974301366404 ] # c
  points:
  - symbol: Li # 1
    coordinates: [  0.095335847981122,  0.136449768845216,  0.317597839315760 ]
    mass: 6.940000
    reduced_to: 1
  - symbol: Li # 2
    coordinates: [  0.428669181314455,  0.136449768845216,  0.317597839315760 ]
    mass: 6.940000
    reduced_to: 1
  - symbol: Li # 3
    coordinates: [  0.762002514647789,  0.136449768845216,  0.317597839315760 ]
    mass: 6.940000
    reduced_to: 1
  - symbol: Li # 4
    coordinates: [  0.095335847981122,  0.469783102178550,  0.317597839315760 ]
    mass: 6.940000
    reduced_to: 1
  - symbol: Li # 5
    coordinates: [  0.428669181314455,  0.469783102178550,  0.317597839315760 ]
    mass: 6.940000
    reduced_to: 1
  - symbol: Li # 6
    coordinates: [  0.762002514647789,  0.469783102178550,  0.317597839315760 ]
    mass: 6.940000
    reduced_to: 1
  - symbol: Li # 7
    coordinates: [  0.095335847981122,  0.803116435511883,  0.317597839315760 ]
    mass: 6.940000
    reduced_to: 1
  - symbol: Li # 8
    coordinates: [  0.428669181314455,  0.803116435511883,  0.317597839315760 ]
    mass: 6.940000
    reduced_to: 1
  - symbol: Li # 9
    coordinates: [  0.762002514647789,  0.803116435511883,  0.317597839315760 ]
    mass: 6.940000
    reduced_to: 1
  - symbol: Li # 10
    coordinates: [  0.234093509312544,  0.192300038985824,  0.084781736397869 ]
    mass: 6.940000
    reduced_to: 10
  - symbol: Li # 11
    coordinates: [  0.567426842645878,  0.192300038985824,  0.084781736397869 ]
    mass: 6.940000
    reduced_to: 10
  - symbol: Li # 12
    coordinates: [  0.900760175979211,  0.192300038985824,  0.084781736397869 ]
    mass: 6.940000
    reduced_to: 10
  - symbol: Li # 13
    coordinates: [  0.234093509312544,  0.525633372319157,  0.084781736397869 ]
    mass: 6.940000
    reduced_to: 10
  - symbol: Li # 14
    coordinates: [  0.567426842645878,  0.525633372319157,  0.084781736397869 ]
    mass: 6.940000
    reduced_to: 10
  - symbol: Li # 15
    coordinates: [  0.900760175979211,  0.525633372319157,  0.084781736397869 ]
    mass: 6.940000
    reduced_to: 10
  - symbol: Li # 16
    coordinates: [  0.234093509312544,  0.858966705652490,  0.084781736397869 ]
    mass: 6.940000
    reduced_to: 10
  - symbol: Li # 17
    coordinates: [  0.567426842645878,  0.858966705652490,  0.084781736397869 ]
    mass: 6.940000
    reduced_to: 10
  - symbol: Li # 18
    coordinates: [  0.900760175979211,  0.858966705652490,  0.084781736397869 ]
    mass: 6.940000
    reduced_to: 10
  - symbol: Li # 19
    coordinates: [  0.164724881421201,  0.331019427458850,  0.701192845974354 ]
    mass: 6.940000
    reduced_to: 19
  - symbol: Li # 20
    coordinates: [  0.498058214754534,  0.331019427458850,  0.701192845974354 ]
    mass: 6.940000
    reduced_to: 19
  - symbol: Li # 21
    coordinates: [  0.831391548087867,  0.331019427458850,  0.701192845974354 ]
    mass: 6.940000
    reduced_to: 19
  - symbol: Li # 22
    coordinates: [  0.164724881421201,  0.664352760792183,  0.701192845974354 ]
    mass: 6.940000
    reduced_to: 19
  - symbol: Li # 23
    coordinates: [  0.498058214754534,  0.664352760792183,  0.701192845974354 ]
    mass: 6.940000
    reduced_to: 19
  - symbol: Li # 24
    coordinates: [  0.831391548087867,  0.664352760792183,  0.701192845974354 ]
    mass: 6.940000
    reduced_to: 19
  - symbol: Li # 25
    coordinates: [  0.164724881421201,  0.997686094125517,  0.701192845974354 ]
    mass: 6.940000
    reduced_to: 19
  - symbol: Li # 26
    coordinates: [  0.498058214754534,  0.997686094125517,  0.701192845974354 ]
    mass: 6.940000
    reduced_to: 19
  - symbol: Li # 27
    coordinates: [  0.831391548087867,  0.997686094125517,  0.701192845974354 ]
    mass: 6.940000
    reduced_to: 19
  - symbol: Li # 28
    coordinates: [  0.062911213796643,  0.201291864784862,  0.603224482838051 ]
    mass: 6.940000
    reduced_to: 28
  - symbol: Li # 29
    coordinates: [  0.396244547129977,  0.201291864784862,  0.603224482838051 ]
    mass: 6.940000
    reduced_to: 28
  - symbol: Li # 30
    coordinates: [  0.729577880463310,  0.201291864784862,  0.603224482838051 ]
    mass: 6.940000
    reduced_to: 28
  - symbol: Li # 31
    coordinates: [  0.062911213796643,  0.534625198118195,  0.603224482838051 ]
    mass: 6.940000
    reduced_to: 28
  - symbol: Li # 32
    coordinates: [  0.396244547129977,  0.534625198118195,  0.603224482838051 ]
    mass: 6.940000
    reduced_to: 28
  - symbol: Li # 33
    coordinates: [  0.729577880463310,  0.534625198118195,  0.603224482838051 ]
    mass: 6.940000
    reduced_to: 28
  - symbol: Li # 34
    coordinates: [  0.062911213796643,  0.867958531451529,  0.603224482838051 ]
    mass: 6.940000
    reduced_to: 28
  - symbol: Li # 35
    coordinates: [  0.396244547129977,  0.867958531451529,  0.603224482838051 ]
    mass: 6.940000
    reduced_to: 28
  - symbol: Li # 36
    coordinates: [  0.729577880463310,  0.867958531451529,  0.603224482838051 ]
    mass: 6.940000
    reduced_to: 28
  - symbol: Li # 37
    coordinates: [  0.133516235407802,  0.060134028350024,  0.006062257770454 ]
    mass: 6.940000
    reduced_to: 37
  - symbol: Li # 38
    coordinates: [  0.466849568741136,  0.060134028350024,  0.006062257770454 ]
    mass: 6.940000
    reduced_to: 37
  - symbol: Li # 39
    coordinates: [  0.800182902074469,  0.060134028350024,  0.006062257770454 ]
    mass: 6.940000
    reduced_to: 37
  - symbol: Li # 40
    coordinates: [  0.133516235407802,  0.393467361683358,  0.006062257770454 ]
    mass: 6.940000
    reduced_to: 37
  - symbol: Li # 41
    coordinates: [  0.466849568741136,  0.393467361683358,  0.006062257770454 ]
    mass: 6.940000
    reduced_to: 37
  - symbol: Li # 42
    coordinates: [  0.800182902074469,  0.393467361683358,  0.006062257770454 ]
    mass: 6.940000
    reduced_to: 37
  - symbol: Li # 43
    coordinates: [  0.133516235407802,  0.726800695016691,  0.006062257770454 ]
    mass: 6.940000
    reduced_to: 37
  - symbol: Li # 44
    coordinates: [  0.466849568741136,  0.726800695016691,  0.006062257770454 ]
    mass: 6.940000
    reduced_to: 37
  - symbol: Li # 45
    coordinates: [  0.800182902074469,  0.726800695016691,  0.006062257770454 ]
    mass: 6.940000
    reduced_to: 37
  - symbol: Li # 46
    coordinates: [  0.266519254619920,  0.127451590877538,  0.799090654756762 ]
    mass: 6.940000
    reduced_to: 46
  - symbol: Li # 47
    coordinates: [  0.599852587953254,  0.127451590877538,  0.799090654756762 ]
    mass: 6.940000
    reduced_to: 46
  - symbol: Li # 48
    coordinates: [  0.933185921286587,  0.127451590877538,  0.799090654756762 ]
    mass: 6.940000
    reduced_to: 46
  - symbol: Li # 49
    coordinates: [  0.266519254619920,  0.460784924210872,  0.799090654756762 ]
    mass: 6.940000
    reduced_to: 46
  - symbol: Li # 50
    coordinates: [  0.599852587953254,  0.460784924210872,  0.799090654756762 ]
    mass: 6.940000
    reduced_to: 46
  - symbol: Li # 51
    coordinates: [  0.933185921286587,  0.460784924210872,  0.799090654756762 ]
    mass: 6.940000
    reduced_to: 46
  - symbol: Li # 52
    coordinates: [  0.266519254619920,  0.794118257544205,  0.799090654756762 ]
    mass: 6.940000
    reduced_to: 46
  - symbol: Li # 53
    coordinates: [  0.599852587953254,  0.794118257544205,  0.799090654756762 ]
    mass: 6.940000
    reduced_to: 46
  - symbol: Li # 54
    coordinates: [  0.933185921286587,  0.794118257544205,  0.799090654756762 ]
    mass: 6.940000
    reduced_to: 46
  - symbol: Li # 55
    coordinates: [  0.195908897788556,  0.268607339254049,  0.396266043863484 ]
    mass: 6.940000
    reduced_to: 55
  - symbol: Li # 56
    coordinates: [  0.529242231121890,  0.268607339254049,  0.396266043863484 ]
    mass: 6.940000
    reduced_to: 55
  - symbol: Li # 57
    coordinates: [  0.862575564455223,  0.268607339254049,  0.396266043863484 ]
    mass: 6.940000
    reduced_to: 55
  - symbol: Li # 58
    coordinates: [  0.195908897788556,  0.601940672587382,  0.396266043863484 ]
    mass: 6.940000
    reduced_to: 55
  - symbol: Li # 59
    coordinates: [  0.529242231121890,  0.601940672587382,  0.396266043863484 ]
    mass: 6.940000
    reduced_to: 55
  - symbol: Li # 60
    coordinates: [  0.862575564455223,  0.601940672587382,  0.396266043863484 ]
    mass: 6.940000
    reduced_to: 55
  - symbol: Li # 61
    coordinates: [  0.195908897788556,  0.935274005920716,  0.396266043863484 ]
    mass: 6.940000
    reduced_to: 55
  - symbol: Li # 62
    coordinates: [  0.529242231121890,  0.935274005920716,  0.396266043863484 ]
    mass: 6.940000
    reduced_to: 55
  - symbol: Li # 63
    coordinates: [  0.862575564455223,  0.935274005920716,  0.396266043863484 ]
    mass: 6.940000
    reduced_to: 55
  - symbol: Sn # 64
    coordinates: [  0.294959439864248,  0.070513078432352,  0.507827358835141 ]
    mass: 118.710000
    reduced_to: 64
  - symbol: Sn # 65
    coordinates: [  0.628292773197581,  0.070513078432352,  0.507827358835141 ]
    mass: 118.710000
    reduced_to: 64
  - symbol: Sn # 66
    coordinates: [  0.961626106530915,  0.070513078432352,  0.507827358835141 ]
    mass: 118.710000
    reduced_to: 64
  - symbol: Sn # 67
    coordinates: [  0.294959439864248,  0.403846411765685,  0.507827358835141 ]
    mass: 118.710000
    reduced_to: 64
  - symbol: Sn # 68
    coordinates: [  0.628292773197581,  0.403846411765685,  0.507827358835141 ]
    mass: 118.710000
    reduced_to: 64
  - symbol: Sn # 69
    coordinates: [  0.961626106530915,  0.403846411765685,  0.507827358835141 ]
    mass: 118.710000
    reduced_to: 64
  - symbol: Sn # 70
    coordinates: [  0.294959439864248,  0.737179745099018,  0.507827358835141 ]
    mass: 118.710000
    reduced_to: 64
  - symbol: Sn # 71
    coordinates: [  0.628292773197581,  0.737179745099018,  0.507827358835141 ]
    mass: 118.710000
    reduced_to: 64
  - symbol: Sn # 72
    coordinates: [  0.961626106530915,  0.737179745099018,  0.507827358835141 ]
    mass: 118.710000
    reduced_to: 64
  - symbol: Sn # 73
    coordinates: [  0.331379778657066,  0.331047189344657,  0.201185299454678 ]
    mass: 118.710000
    reduced_to: 73
  - symbol: Sn # 74
    coordinates: [  0.664713111990400,  0.331047189344657,  0.201185299454678 ]
    mass: 118.710000
    reduced_to: 73
  - symbol: Sn # 75
    coordinates: [  0.998046445323733,  0.331047189344657,  0.201185299454678 ]
    mass: 118.710000
    reduced_to: 73
  - symbol: Sn # 76
    coordinates: [  0.331379778657066,  0.664380522677990,  0.201185299454678 ]
    mass: 118.710000
    reduced_to: 73
  - symbol: Sn # 77
    coordinates: [  0.664713111990400,  0.664380522677990,  0.201185299454678 ]
    mass: 118.710000
    reduced_to: 73
  - symbol: Sn # 78
    coordinates: [  0.998046445323733,  0.664380522677990,  0.201185299454678 ]
    mass: 118.710000
    reduced_to: 73
  - symbol: Sn # 79
    coordinates: [  0.331379778657066,  0.997713856011323,  0.201185299454678 ]
    mass: 118.710000
    reduced_to: 73
  - symbol: Sn # 80
    coordinates: [  0.664713111990400,  0.997713856011323,  0.201185299454678 ]
    mass: 118.710000
    reduced_to: 73
  - symbol: Sn # 81
    coordinates: [  0.998046445323733,  0.997713856011323,  0.201185299454678 ]
    mass: 118.710000
    reduced_to: 73
  - symbol: Sn # 82
    coordinates: [  0.034469063166636,  0.258226361895624,  0.894521229897533 ]
    mass: 118.710000
    reduced_to: 82
  - symbol: Sn # 83
    coordinates: [  0.367802396499969,  0.258226361895624,  0.894521229897533 ]
    mass: 118.710000
    reduced_to: 82
  - symbol: Sn # 84
    coordinates: [  0.701135729833302,  0.258226361895624,  0.894521229897533 ]
    mass: 118.710000
    reduced_to: 82
  - symbol: Sn # 85
    coordinates: [  0.034469063166636,  0.591559695228958,  0.894521229897533 ]
    mass: 118.710000
    reduced_to: 82
  - symbol: Sn # 86
    coordinates: [  0.367802396499969,  0.591559695228958,  0.894521229897533 ]
    mass: 118.710000
    reduced_to: 82
  - symbol: Sn # 87
    coordinates: [  0.701135729833302,  0.591559695228958,  0.894521229897533 ]
    mass: 118.710000
    reduced_to: 82
  - symbol: Sn # 88
    coordinates: [  0.034469063166636,  0.924893028562291,  0.894521229897533 ]
    mass: 118.710000
    reduced_to: 82
  - symbol: Sn # 89
    coordinates: [  0.367802396499969,  0.924893028562291,  0.894521229897533 ]
    mass: 118.710000
    reduced_to: 82
  - symbol: Sn # 90
    coordinates: [  0.701135729833302,  0.924893028562291,  0.894521229897533 ]
    mass: 118.710000
    reduced_to: 82

displacements:
- atom:    1
  displacement:
    [   0.0100000000000000,  0.0000000000000000,  0.0000000000000000 ]
  forces:
  - [  -0.0218274518847466, -0.0020995335653424, -0.0275051333010197 ]
  - [  -0.0003827129257843, -0.0024299437645823, -0.0275321006774902 ]
  - [  -0.0003772777563427, -0.0020866864360869, -0.0275321975350380 ]
  - [   0.0001458934275433, -0.0023523485288024, -0.0274288728833199 ]
  - [  -0.0000053078019846, -0.0022573736496270, -0.0275327712297440 ]
  - [   0.0001415984152118, -0.0021632632706314, -0.0276370346546173 ]
  - [   0.0001418533938704, -0.0027406474109739, -0.0273739360272884 ]
  - [   0.0001425372902304, -0.0017622580053285, -0.0276943296194077 ]
  - [  -0.0000056881744968, -0.0022574944887310, -0.0275338515639305 ]
  - [   0.0000333664866048,  0.0028297863900661,  0.0268054492771626 ]
  - [  -0.0000603351654718,  0.0025903256610036,  0.0268076881766319 ]
  - [   0.0000320668514178,  0.0023496225476265,  0.0268062986433506 ]
  - [  -0.0000517615699209,  0.0025870795361698,  0.0268098935484886 ]
  - [  -0.0000501032918692,  0.0025977278128266,  0.0268050096929073 ]
  - [  -0.0001526359701529,  0.0025916793383658,  0.0268070995807648 ]
  - [  -0.0004382166080177,  0.0025922581553459,  0.0268067978322506 ]
  - [  -0.0006720609962940,  0.0029154825024307,  0.0270771048963070 ]
  - [  -0.0006850019562989,  0.0022623643744737,  0.0265303142368793 ]
  - [  -0.0000418693089159,  0.0004302164306864, -0.0003752131015062 ]
  - [  -0.0000066434722612,  0.0003704543923959, -0.0002859067171812 ]
  - [  -0.0000412179142586,  0.0003135740989819, -0.0002029892057180 ]
  - [  -0.0000065256081143,  0.0003693355829455, -0.0003010425716639 ]
  - [  -0.0000059499811869,  0.0003704299451783, -0.0002713820431381 ]
  - [  -0.0000221855043492,  0.0003755334182642, -0.0002897580852732 ]
  - [  -0.0001768050715327,  0.0003753133059945, -0.0002925965236500 ]
  - [  -0.0002915526274592,  0.0005334598245099, -0.0005078018875793 ]
  - [  -0.0002831164747477,  0.0002124189632013, -0.0000703858677298 ]
  - [  -0.0006459641736001, -0.0104209147393703, -0.0035266680642962 ]
  - [  -0.0000364295992767, -0.0105608720332384, -0.0034843198955059 ]
  - [  -0.0000343753745256, -0.0102825704962015, -0.0035430472344160 ]
  - [   0.0000646134649287, -0.0103664603084326, -0.0034770425409079 ]
  - [  -0.0000814557206468, -0.0104202125221491, -0.0035139219835401 ]
  - [   0.0000627001281828, -0.0104760983958840, -0.0035482319071889 ]
  - [   0.0000712892942829, -0.0106133753433824, -0.0035524312406778 ]
  - [   0.0000732871922082, -0.0102173602208495, -0.0034773582592607 ]
  - [  -0.0000208015844692, -0.0104188127443194, -0.0035130549222231 ]
  - [  -0.0003636802430265,  0.0343242585659027,  0.0343225263059139 ]
  - [  -0.0000053888070397,  0.0341366194188595,  0.0343212708830833 ]
  - [  -0.0000069660600275,  0.0345042422413826,  0.0343250781297684 ]
  - [   0.0001599778479431,  0.0344078838825226,  0.0341617539525032 ]
  - [  -0.0000456414236396,  0.0343202576041222,  0.0343238934874535 ]
  - [   0.0001600716641406,  0.0342317335307598,  0.0344863831996918 ]
  - [   0.0000792571299826,  0.0341877825558186,  0.0342667885124683 ]
  - [   0.0000794148509158,  0.0344541482627392,  0.0343827530741692 ]
  - [  -0.0000794943916844,  0.0343201532959938,  0.0343241877853870 ]
  - [   0.0000665189654683,  0.0097523508593440,  0.0046877274289727 ]
  - [  -0.0000866569753271,  0.0098454896360636,  0.0045437943190336 ]
  - [   0.0000632420997135,  0.0099361296743155,  0.0043981038033962 ]
  - [  -0.0000706397768226,  0.0098514053970575,  0.0045378333888948 ]
  - [  -0.0000707675062586,  0.0098371859639883,  0.0045527955517173 ]
  - [  -0.0001031067658914,  0.0098441736772656,  0.0045432401821017 ]
  - [  -0.0000433090608567,  0.0098435552790761,  0.0045432345941663 ]
  - [  -0.0000942097976804,  0.0098595023155212,  0.0045902486890554 ]
  - [  -0.0000960929319263,  0.0098262270912528,  0.0044986344873905 ]
  - [   0.0042844852432609, -0.0317056216299534, -0.0324629135429859 ]
  - [   0.0002243366761832, -0.0344920344650745, -0.0338489860296249 ]
  - [   0.0042386245913804, -0.0372239723801613, -0.0351998880505562 ]
  - [   0.0002015480422415, -0.0344915129244328, -0.0338460505008698 ]
  - [   0.0002013367484324, -0.0344878286123276, -0.0338508412241936 ]
  - [   0.0001705170143396, -0.0344896614551544, -0.0338480584323406 ]
  - [  -0.0001752208918333, -0.0344824753701687, -0.0338495224714279 ]
  - [  -0.0000471239909530, -0.0343768894672394, -0.0339604951441288 ]
  - [  -0.0000409150961787, -0.0346023254096508, -0.0337368398904800 ]
  - [   0.0013819324085489, -0.0300936531275511,  0.0398143231868744 ]
  - [   0.0002485814038664, -0.0296880211681128,  0.0396429747343063 ]
  - [   0.0012923568719998, -0.0293416529893875,  0.0395325422286987 ]
  - [  -0.0000112447887659, -0.0297644995152950,  0.0394696593284607 ]
  - [  -0.0000176839530468, -0.0296040941029787,  0.0398182794451714 ]
  - [   0.0006600329652429, -0.0296884924173355,  0.0396404936909676 ]
  - [   0.0001463871449232, -0.0296890735626221,  0.0396427065134048 ]
  - [   0.0001762080937624, -0.0297130942344666,  0.0396341644227505 ]
  - [   0.0001804307103157, -0.0296629369258881,  0.0396507121622562 ]
  - [  -0.0000744036369724, -0.0002216739230789, -0.0003954664571211 ]
  - [  -0.0000775024236646, -0.0002775442553684, -0.0002975878305733 ]
  - [   0.0000682990066707, -0.0002853304031305, -0.0003338124370202 ]
  - [  -0.0000931661415962, -0.0002468978054821, -0.0003438759595156 ]
  - [  -0.0000576922466280, -0.0003319485113025, -0.0003052675165236 ]
  - [  -0.0000537414489372, -0.0001647374592721, -0.0003828266635537 ]
  - [   0.0071792472153902, -0.0044197151437402, -0.0022516120225191 ]
  - [   0.0000960285251494, -0.0002488601021469, -0.0003437441773713 ]
  - [   0.0069867111742496,  0.0037713418714702,  0.0014607885386795 ]
  - [  -0.0002991249784827,  0.0299772247672081, -0.0397874787449837 ]
  - [  -0.0001130569726229,  0.0299827940762043, -0.0396969430148602 ]
  - [  -0.0001098159700632,  0.0299717430025339, -0.0398860163986683 ]
  - [  -0.0001275539398193,  0.0300158336758614, -0.0397536344826221 ]
  - [  -0.0001148311421275,  0.0299792345613241, -0.0397926084697247 ]
  - [  -0.0001310920342803,  0.0299413930624723, -0.0398308970034122 ]
  - [  -0.0000961701662163,  0.0300582163035870, -0.0390176996588707 ]
  - [  -0.0001008424951578,  0.0298959463834763, -0.0405531227588654 ]
  - [  -0.0000441950978711,  0.0299766957759857, -0.0397930592298508 ]
- atom:    1
  displacement:
    [  -0.0100000000000000,  0.0000000000000000,  0.0000000000000000 ]
  forces:
  - [   0.0218396894633770, -0.0020872282329947, -0.0274897590279579 ]
  - [   0.0003907363279723, -0.0020865320693702, -0.0275317765772343 ]
  - [   0.0003960338653997, -0.0024301218800247, -0.0275326147675514 ]
  - [  -0.0001311757951044, -0.0021635475568473, -0.0276369079947472 ]
  - [   0.0000134290330607, -0.0022573159076273, -0.0275327041745186 ]
  - [  -0.0001354140113108, -0.0023524579592049, -0.0274287052452564 ]
  - [  -0.0001352851249976, -0.0017620258731768, -0.0276946984231472 ]
  - [  -0.0001345725759165, -0.0027393754571676, -0.0273744203150272 ]
  - [   0.0000131401220642, -0.0022576157934964, -0.0275336205959320 ]
  - [  -0.0001555224589538,  0.0023498455993831,  0.0268064215779305 ]
  - [  -0.0000613360971329,  0.0025904132053256,  0.0268075428903103 ]
  - [  -0.0001574570196681,  0.0028293840587139,  0.0268048904836178 ]
  - [  -0.0000722602708265,  0.0025980586651713,  0.0268049314618111 ]
  - [  -0.0000706355203874,  0.0025870357640088,  0.0268098749220371 ]
  - [   0.0000286818249151,  0.0025917030870914,  0.0268070772290230 ]
  - [   0.0003164133522660,  0.0025917929597199,  0.0268067978322506 ]
  - [   0.0005663470365107,  0.0022609604056925,  0.0265304408967495 ]
  - [   0.0005515720695257,  0.0029154922813177,  0.0270761512219906 ]
  - [   0.0000212963786907,  0.0003090612590313, -0.0001981351524591 ]
  - [  -0.0000122718765851,  0.0003703417023644, -0.0002858601510525 ]
  - [   0.0000219737739826,  0.0004348756046966, -0.0003794971853495 ]
  - [  -0.0000147323125930,  0.0003700967645273, -0.0002710883272812 ]
  - [  -0.0000138731029438,  0.0003697203355841, -0.0003010812215507 ]
  - [   0.0000018958871806,  0.0003757089725696, -0.0002900530816987 ]
  - [   0.0001578019000590,  0.0003753413038794, -0.0002928954781964 ]
  - [   0.0002639158628881,  0.0002122969599441, -0.0000700155505911 ]
  - [   0.0002719331532717,  0.0005334281595424, -0.0005078959511593 ]
  - [   0.0006172207067721, -0.0104209268465638, -0.0035253074020147 ]
  - [   0.0000013825228962, -0.0102823982015252, -0.0035431636497378 ]
  - [   0.0000031195086194, -0.0105608105659485, -0.0034844353795052 ]
  - [  -0.0000922246981645, -0.0104786138981581, -0.0035462547093630 ]
  - [   0.0000523451890331, -0.0104200243949890, -0.0035140067338943 ]
  - [  -0.0000942022961681, -0.0103636980056763, -0.0034791165962815 ]
  - [  -0.0001044428427122, -0.0102152582257986, -0.0034797880798578 ]
  - [  -0.0001026586905937, -0.0106166172772646, -0.0035498272627592 ]
  - [  -0.0000116449336929, -0.0104189012199640, -0.0035130735486746 ]
  - [   0.0003272982430644,  0.0343240834772587,  0.0343232676386833 ]
  - [  -0.0000306269503199,  0.0345048569142818,  0.0343254432082176 ]
  - [  -0.0000323618878610,  0.0341351702809334,  0.0343214273452759 ]
  - [  -0.0001953715254785,  0.0342317298054695,  0.0344855114817619 ]
  - [   0.0000069576781243,  0.0343203470110893,  0.0343239605426788 ]
  - [  -0.0001959844521480,  0.0344081930816174,  0.0341618955135345 ]
  - [  -0.0001141410102719,  0.0344545841217041,  0.0343832075595856 ]
  - [  -0.0001138697407441,  0.0341874510049820,  0.0342665165662766 ]
  - [   0.0000466792989755,  0.0343201570212841,  0.0343241952359676 ]
  - [  -0.0002184511977248,  0.0099384766072035,  0.0043961834162474 ]
  - [  -0.0000684561964590,  0.0098454263061285,  0.0045438446104527 ]
  - [  -0.0002216795692220,  0.0097499620169401,  0.0046905493363738 ]
  - [  -0.0000811369391158,  0.0098394239321351,  0.0045506944879889 ]
  - [  -0.0000813500737422,  0.0098492875695229,  0.0045400019735098 ]
  - [  -0.0000510638237756,  0.0098442509770393,  0.0045431125909090 ]
  - [  -0.0001078300410882,  0.0098435832187533,  0.0045433677732944 ]
  - [  -0.0000589259434491,  0.0098236389458179,  0.0045003928244114 ]
  - [  -0.0000608796253800,  0.0098620522767305,  0.0045885229483247 ]
  - [  -0.0038475878536701, -0.0372259318828583, -0.0352014005184174 ]
  - [   0.0001677746622590, -0.0344920307397842, -0.0338489674031734 ]
  - [  -0.0038898556958884, -0.0317074507474899, -0.0324641913175583 ]
  - [   0.0001906029647216, -0.0344882793724537, -0.0338508635759354 ]
  - [   0.0001904101809487, -0.0344912558794022, -0.0338458381593227 ]
  - [   0.0002233909908682, -0.0344895347952843, -0.0338478833436966 ]
  - [   0.0005676841828972, -0.0344835594296455, -0.0338490754365921 ]
  - [   0.0004348177462816, -0.0346031859517097, -0.0337370410561562 ]
  - [   0.0004397241864353, -0.0343766957521439, -0.0339594632387161 ]
  - [  -0.0009525122586638, -0.0293387398123741,  0.0395296066999435 ]
  - [   0.0001025425590342, -0.0296875946223736,  0.0396423339843750 ]
  - [  -0.0010330858640373, -0.0300918240100145,  0.0398116894066334 ]
  - [   0.0003613289445639, -0.0296035446226597,  0.0398168563842773 ]
  - [   0.0003554802387953, -0.0297655202448368,  0.0394702255725861 ]
  - [  -0.0003127967938781, -0.0296889916062355,  0.0396406613290310 ]
  - [   0.0001997835934162, -0.0296890437602997,  0.0396426357328892 ]
  - [   0.0001650564372540, -0.0296630933880806,  0.0396518521010876 ]
  - [   0.0001695565879345, -0.0297127012163401,  0.0396332629024982 ]
  - [  -0.0000624858948868, -0.0002755761961453, -0.0002953441580757 ]
  - [  -0.0000652183662169, -0.0002238689921796, -0.0003968171076849 ]
  - [  -0.0002056055236608, -0.0002858946099877, -0.0003342435229570 ]
  - [  -0.0000444122597401, -0.0002467769663781, -0.0003441660664976 ]
  - [  -0.0000818912667455, -0.0001641840208322, -0.0003844532184303 ]
  - [  -0.0000778485409683, -0.0003320174291730, -0.0003043864853680 ]
  - [  -0.0071248263120651,  0.0037687751464546,  0.0014561037532985 ]
  - [  -0.0002395034243818, -0.0002484971191734, -0.0003434242680669 ]
  - [  -0.0073295244947076, -0.0044267224147916, -0.0022575084585696 ]
  - [   0.0000540930777788,  0.0299772340804338, -0.0397874563932419 ]
  - [  -0.0001340778544545,  0.0299709569662809, -0.0398860424757004 ]
  - [  -0.0001310324296355,  0.0299828834831715, -0.0396966971457005 ]
  - [  -0.0001181941479445,  0.0299436766654253, -0.0398307144641876 ]
  - [  -0.0001332163810730,  0.0299796313047409, -0.0397922024130821 ]
  - [  -0.0001224465668201,  0.0300134588032961, -0.0397532060742378 ]
  - [  -0.0001466747780796,  0.0298969391733408, -0.0405519269406796 ]
  - [  -0.0001528631401015,  0.0300573967397213, -0.0390186347067356 ]
  - [  -0.0001945328840520,  0.0299768280237913, -0.0397928059101105 ]
- atom:    1
  displacement:
    [   0.0049716044021668,  0.0086765862911836,  0.0000000000000000 ]
  forces:
  - [  -0.0107120890170336, -0.0234916321933270, -0.0259959958493710 ]
  - [  -0.0000370666166418, -0.0021023103035986, -0.0274333581328392 ]
  - [  -0.0003294952039141, -0.0019370681839064, -0.0274347402155399 ]
  - [  -0.0003531855763867, -0.0025197535287589, -0.0275994427502155 ]