phonopy:
  version: "2.37.1"
  frequency_unit_conversion_factor: 15.633302
  symmetry_tolerance: 1.00000e-05

space_group:
  type: "P1"
  number: 1
  Hall_symbol: "P 1"

primitive_matrix:
- [ -0.000000000000000,  1.000000000000000,  0.000000000000000 ]
- [ -1.000000000000000,  0.000000000000000,  0.000000000000000 ]
- [  0.000000000000000,  0.000000000000000,  1.000000000000000 ]

supercell_matrix:
- [   4,   0,   0 ]
- [   0,   4,   0 ]
- [   0,   0,   3 ]

primitive_cell:
  lattice:
  - [     0.000055513387677,    -3.142075415062709,     0.000000000000000 ] # a
  - [     3.142534139718228,     0.000000000000000,     0.000000000000000 ] # b
  - [     0.000132182576920,    -0.000686423430258,     4.312718885753204 ] # c
  points:
  - symbol: Li # 1
    coordinates: [  0.572250601643454,  0.868304157799014,  0.529802673971079 ]
    mass: 6.940000
  - symbol: Sn # 2
    coordinates: [  0.072211059781324,  0.368391399880111,  0.029721618201651 ]
    mass: 118.710000
  reciprocal_lattice: # without 2pi
  - [     0.000000000000000,    -0.318260979735282,    -0.000050655236108 ] # a*
  - [     0.318214522273945,     0.000005622133083,    -0.000009752213747 ] # b*
  - [     0.000000000000000,    -0.000000000000000,     0.231872289034056 ] # c*

unit_cell:
  lattice:
  - [     3.142534139718228,     0.000000000000000,     0.000000000000000 ] # a
  - [    -0.000055513387677,     3.142075415062709,     0.000000000000000 ] # b
  - [     0.000132182576920,    -0.000686423430258,     4.312718885753204 ] # c
  points:
  - symbol: Li # 1
    coordinates: [  0.868304157799013,  0.427749398356546,  0.529802673971079 ]
    mass: 6.940000
    reduced_to: 1
  - symbol: Sn # 2
    coordinates: [  0.368391399880111,  0.927788940218676,  0.029721618201651 ]
    mass: 118.710000
    reduced_to: 2

supercell:
  lattice:
  - [    12.570136558872914,     0.000000000000000,     0.000000000000000 ] # a
  - [    -0.000222053550710,    12.568301660250837,     0.000000000000000 ] # b
  - [     0.000396547730760,    -0.002059270290773,    12.938156657259611 ] # c
  points:
  - symbol: Li # 1
    coordinates: [  0.217076039449753,  0.106937349589136,  0.176600891323693 ]
    mass: 6.940000
    reduced_to: 1
  - symbol: Li # 2
    coordinates: [  0.467076039449753,  0.106937349589136,  0.176600891323693 ]
    mass: 6.940000
    reduced_to: 1
  - symbol: Li # 3
    coordinates: [  0.717076039449753,  0.106937349589136,  0.176600891323693 ]
    mass: 6.940000
    reduced_to: 1
  - symbol: Li # 4
    coordinates: [  0.967076039449753,  0.106937349589136,  0.176600891323693 ]
    mass: 6.940000
    reduced_to: 1
  - symbol: Li # 5
    coordinates: [  0.217076039449753,  0.356937349589136,  0.176600891323693 ]
    mass: 6.940000
    reduced_to: 1
  - symbol: Li # 6
    coordinates: [  0.467076039449753,  0.356937349589136,  0.176600891323693 ]
    mass: 6.940000
    reduced_to: 1
  - symbol: Li # 7
    coordinates: [  0.717076039449753,  0.356937349589136,  0.176600891323693 ]
    mass: 6.940000
    reduced_to: 1
  - symbol: Li # 8
    coordinates: [  0.967076039449753,  0.356937349589136,  0.176600891323693 ]
    mass: 6.940000
    reduced_to: 1
  - symbol: Li # 9
    coordinates: [  0.217076039449753,  0.606937349589136,  0.176600891323693 ]
    mass: 6.940000
    reduced_to: 1
  - symbol: Li # 10
    coordinates: [  0.467076039449753,  0.606937349589136,  0.176600891323693 ]
    mass: 6.940000
    reduced_to: 1
  - symbol: Li # 11
    coordinates: [  0.717076039449753,  0.606937349589136,  0.176600891323693 ]
    mass: 6.940000
    reduced_to: 1
  - symbol: Li # 12
    coordinates: [  0.967076039449753,  0.606937349589136,  0.176600891323693 ]
    mass: 6.940000
    reduced_to: 1
  - symbol: Li # 13
    coordinates: [  0.217076039449753,  0.856937349589136,  0.176600891323693 ]
    mass: 6.940000
    reduced_to: 1
  - symbol: Li # 14
    coordinates: [  0.467076039449753,  0.856937349589136,  0.176600891323693 ]
    mass: 6.940000
    reduced_to: 1
  - symbol: Li # 15
    coordinates: [  0.717076039449753,  0.856937349589136,  0.176600891323693 ]
    mass: 6.940000
    reduced_to: 1
  - symbol: Li # 16
    coordinates: [  0.967076039449753,  0.856937349589136,  0.176600891323693 ]
    mass: 6.940000
    reduced_to: 1
  - symbol: Li # 17
    coordinates: [  0.217076039449753,  0.106937349589136,  0.509934224657026 ]
    mass: 6.940000
    reduced_to: 1
  - symbol: Li # 18
    coordinates: [  0.467076039449753,  0.106937349589136,  0.509934224657026 ]
    mass: 6.940000
    reduced_to: 1
  - symbol: Li # 19
    coordinates: [  0.717076039449753,  0.106937349589136,  0.509934224657026 ]
    mass: 6.940000
    reduced_to: 1
  - symbol: Li # 20
    coordinates: [  0.967076039449753,  0.106937349589136,  0.509934224657026 ]
    mass: 6.940000
    reduced_to: 1
  - symbol: Li # 21
    coordinates: [  0.217076039449753,  0.356937349589136,  0.509934224657026 ]
    mass: 6.940000
    reduced_to: 1
  - symbol: Li # 22
    coordinates: [  0.467076039449753,  0.356937349589136,  0.509934224657026 ]
    mass: 6.940000
    reduced_to: 1
  - symbol: Li # 23
    coordinates: [  0.717076039449753,  0.356937349589136,  0.509934224657026 ]
    mass: 6.940000
    reduced_to: 1
  - symbol: Li # 24
    coordinates: [  0.967076039449753,  0.356937349589136,  0.509934224657026 ]
    mass: 6.940000
    reduced_to: 1
  - symbol: Li # 25
    coordinates: [  0.217076039449753,  0.606937349589136,  0.509934224657026 ]
    mass: 6.940000
    reduced_to: 1
  - symbol: Li # 26
    coordinates: [  0.467076039449753,  0.606937349589136,  0.509934224657026 ]
    mass: 6.940000
    reduced_to: 1
  - symbol: Li # 27
    coordinates: [  0.717076039449753,  0.606937349589136,  0.509934224657026 ]
    mass: 6.940000
    reduced_to: 1
  - symbol: Li # 28
    coordinates: [  0.967076039449753,  0.606937349589136,  0.509934224657026 ]
    mass: 6.940000
    reduced_to: 1
  - symbol: Li # 29
    coordinates: [  0.217076039449753,  0.856937349589136,  0.509934224657026 ]
    mass: 6.940000
    reduced_to: 1
  - symbol: Li # 30
    coordinates: [  0.467076039449753,  0.856937349589136,  0.509934224657026 ]
    mass: 6.940000
    reduced_to: 1
  - symbol: Li # 31
    coordinates: [  0.717076039449753,  0.856937349589136,  0.509934224657026 ]
    mass: 6.940000
    reduced_to: 1
  - symbol: Li # 32
    coordinates: [  0.967076039449753,  0.856937349589136,  0.509934224657026 ]
    mass: 6.940000
    reduced_to: 1
  - symbol: Li # 33
    coordinates: [  0.217076039449753,  0.106937349589136,  0.843267557990360 ]
    mass: 6.940000
    reduced_to: 1
  - symbol: Li # 34
    coordinates: [  0.467076039449753,  0.106937349589136,  0.843267557990360 ]
    mass: 6.940000
    reduced_to: 1
  - symbol: Li # 35
    coordinates: [  0.717076039449753,  0.106937349589136,  0.843267557990360 ]
    mass: 6.940000
    reduced_to: 1
  - symbol: Li # 36
    coordinates: [  0.967076039449753,  0.106937349589136,  0.843267557990360 ]
    mass: 6.940000
    reduced_to: 1
  - symbol: Li # 37
    coordinates: [  0.217076039449753,  0.356937349589136,  0.843267557990360 ]
    mass: 6.940000
    reduced_to: 1
  - symbol: Li # 38
    coordinates: [  0.467076039449753,  0.356937349589136,  0.843267557990360 ]
    mass: 6.940000
    reduced_to: 1
  - symbol: Li # 39
    coordinates: [  0.717076039449753,  0.356937349589136,  0.843267557990360 ]
    mass: 6.940000
    reduced_to: 1
  - symbol: Li # 40
    coordinates: [  0.967076039449753,  0.356937349589136,  0.843267557990360 ]
    mass: 6.940000
    reduced_to: 1
  - symbol: Li # 41
    coordinates: [  0.217076039449753,  0.606937349589136,  0.843267557990360 ]
    mass: 6.940000
    reduced_to: 1
  - symbol: Li # 42
    coordinates: [  0.467076039449753,  0.606937349589136,  0.843267557990360 ]
    mass: 6.940000
    reduced_to: 1
  - symbol: Li # 43
    coordinates: [  0.717076039449753,  0.606937349589136,  0.843267557990360 ]
    mass: 6.940000
    reduced_to: 1
  - symbol: Li # 44
    coordinates: [  0.967076039449753,  0.606937349589136,  0.843267557990360 ]
    mass: 6.940000
    reduced_to: 1
  - symbol: Li # 45
    coordinates: [  0.217076039449753,  0.856937349589136,  0.843267557990360 ]
    mass: 6.940000
    reduced_to: 1
  - symbol: Li # 46
    coordinates: [  0.467076039449753,  0.856937349589136,  0.843267557990360 ]
    mass: 6.940000
    reduced_to: 1
  - symbol: Li # 47
    coordinates: [  0.717076039449753,  0.856937349589136,  0.843267557990360 ]
    mass: 6.940000
    reduced_to: 1
  - symbol: Li # 48
    coordinates: [  0.967076039449753,  0.856937349589136,  0.843267557990360 ]
    mass: 6.940000
    reduced_to: 1
  - symbol: Sn # 49
    coordinates: [  0.092097849970028,  0.231947235054669,  0.009907206067217 ]
    mass: 118.710000
    reduced_to: 49
  - symbol: Sn # 50
    coordinates: [  0.342097849970028,  0.231947235054669,  0.009907206067217 ]
    mass: 118.710000
    reduced_to: 49
  - symbol: Sn # 51
    coordinates: [  0.592097849970028,  0.231947235054669,  0.009907206067217 ]
    mass: 118.710000
    reduced_to: 49
  - symbol: Sn # 52
    coordinates: [  0.842097849970028,  0.231947235054669,  0.009907206067217 ]
    mass: 118.710000
    reduced_to: 49
  - symbol: Sn # 53
    coordinates: [  0.092097849970028,  0.481947235054669,  0.009907206067217 ]
    mass: 118.710000
    reduced_to: 49
  - symbol: Sn # 54
    coordinates: [  0.342097849970028,  0.481947235054669,  0.009907206067217 ]
    mass: 118.710000
    reduced_to: 49
  - symbol: Sn # 55
    coordinates: [  0.592097849970028,  0.481947235054669,  0.009907206067217 ]
    mass: 118.710000
    reduced_to: 49
  - symbol: Sn # 56
    coordinates: [  0.842097849970028,  0.481947235054669,  0.009907206067217 ]
    mass: 118.710000
    reduced_to: 49
  - symbol: Sn # 57
    coordinates: [  0.092097849970028,  0.731947235054669,  0.009907206067217 ]
    mass: 118.710000
    reduced_to: 49
  - symbol: Sn # 58
    coordinates: [  0.342097849970028,  0.731947235054669,  0.009907206067217 ]
    mass: 118.710000
    reduced_to: 49
  - symbol: Sn # 59
    coordinates: [  0.592097849970028,  0.731947235054669,  0.009907206067217 ]
    mass: 118.710000
    reduced_to: 49
  - symbol: Sn # 60
    coordinates: [  0.842097849970028,  0.731947235054669,  0.009907206067217 ]
    mass: 118.710000
    reduced_to: 49
  - symbol: Sn # 61
    coordinates: [  0.092097849970028,  0.981947235054669,  0.009907206067217 ]
    mass: 118.710000
    reduced_to: 49
  - symbol: Sn # 62
    coordinates: [  0.342097849970028,  0.981947235054669,  0.009907206067217 ]
    mass: 118.710000
    reduced_to: 49
  - symbol: Sn # 63
    coordinates: [  0.592097849970028,  0.981947235054669,  0.009907206067217 ]
    mass: 118.710000
    reduced_to: 49
  - symbol: Sn # 64
    coordinates: [  0.842097849970028,  0.981947235054669,  0.009907206067217 ]
    mass: 118.710000
    reduced_to: 49
  - symbol: Sn # 65
    coordinates: [  0.092097849970028,  0.231947235054669,  0.343240539400550 ]
    mass: 118.710000
    reduced_to: 49
  - symbol: Sn # 66
    coordinates: [  0.342097849970028,  0.231947235054669,  0.343240539400550 ]
    mass: 118.710000
    reduced_to: 49
  - symbol: Sn # 67
    coordinates: [  0.592097849970028,  0.231947235054669,  0.343240539400550 ]
    mass: 118.710000
    reduced_to: 49
  - symbol: Sn # 68
    coordinates: [  0.842097849970028,  0.231947235054669,  0.343240539400550 ]
    mass: 118.710000
    reduced_to: 49
  - symbol: Sn # 69
    coordinates: [  0.092097849970028,  0.481947235054669,  0.343240539400550 ]
    mass: 118.710000
    reduced_to: 49
  - symbol: Sn # 70
    coordinates: [  0.342097849970028,  0.481947235054669,  0.343240539400550 ]
    mass: 118.710000
    reduced_to: 49
  - symbol: Sn # 71
    coordinates: [  0.592097849970028,  0.481947235054669,  0.343240539400550 ]
    mass: 118.710000
    reduced_to: 49
  - symbol: Sn # 72
    coordinates: [  0.842097849970028,  0.481947235054669,  0.343240539400550 ]
    mass: 118.710000
    reduced_to: 49
  - symbol: Sn # 73
    coordinates: [  0.092097849970028,  0.731947235054669,  0.343240539400550 ]
    mass: 118.710000
    reduced_to: 49
  - symbol: Sn # 74
    coordinates: [  0.342097849970028,  0.731947235054669,  0.343240539400550 ]
    mass: 118.710000
    reduced_to: 49
  - symbol: Sn # 75
    coordinates: [  0.592097849970028,  0.731947235054669,  0.343240539400550 ]
    mass: 118.710000
    reduced_to: 49
  - symbol: Sn # 76
    coordinates: [  0.842097849970028,  0.731947235054669,  0.343240539400550 ]
    mass: 118.710000
    reduced_to: 49
  - symbol: Sn # 77
    coordinates: [  0.092097849970028,  0.981947235054669,  0.343240539400550 ]
    mass: 118.710000
    reduced_to: 49
  - symbol: Sn # 78
    coordinates: [  0.342097849970028,  0.981947235054669,  0.343240539400550 ]
    mass: 118.710000
    reduced_to: 49
  - symbol: Sn # 79
    coordinates: [  0.592097849970028,  0.981947235054669,  0.343240539400550 ]
    mass: 118.710000
    reduced_to: 49
  - symbol: Sn # 80
    coordinates: [  0.842097849970028,  0.981947235054669,  0.343240539400550 ]
    mass: 118.710000
    reduced_to: 49
  - symbol: Sn # 81
    coordinates: [  0.092097849970028,  0.231947235054669,  0.676573872733884 ]
    mass: 118.710000
    reduced_to: 49
  - symbol: Sn # 82
    coordinates: [  0.342097849970028,  0.231947235054669,  0.676573872733884 ]
    mass: 118.710000
    reduced_to: 49
  - symbol: Sn # 83
    coordinates: [  0.592097849970028,  0.231947235054669,  0.676573872733884 ]
    mass: 118.710000
    reduced_to: 49
  - symbol: Sn # 84
    coordinates: [  0.842097849970028,  0.231947235054669,  0.676573872733884 ]
    mass: 118.710000
    reduced_to: 49
  - symbol: Sn # 85
    coordinates: [  0.092097849970028,  0.481947235054669,  0.676573872733884 ]
    mass: 118.710000
    reduced_to: 49
  - symbol: Sn # 86
    coordinates: [  0.342097849970028,  0.481947235054669,  0.676573872733884 ]
    mass: 118.710000
    reduced_to: 49
  - symbol: Sn # 87
    coordinates: [  0.592097849970028,  0.481947235054669,  0.676573872733884 ]
    mass: 118.710000
    reduced_to: 49
  - symbol: Sn # 88
    coordinates: [  0.842097849970028,  0.481947235054669,  0.676573872733884 ]
    mass: 118.710000
    reduced_to: 49
  - symbol: Sn # 89
    coordinates: [  0.092097849970028,  0.731947235054669,  0.676573872733884 ]
    mass: 118.710000
    reduced_to: 49
  - symbol: Sn # 90
    coordinates: [  0.342097849970028,  0.731947235054669,  0.676573872733884 ]
    mass: 118.710000
    reduced_to: 49
  - symbol: Sn # 91
    coordinates: [  0.592097849970028,  0.731947235054669,  0.676573872733884 ]
    mass: 118.710000
    reduced_to: 49
  - symbol: Sn # 92
    coordinates: [  0.842097849970028,  0.731947235054669,  0.676573872733884 ]
    mass: 118.710000
    reduced_to: 49
  - symbol: Sn # 93
    coordinates: [  0.092097849970028,  0.981947235054669,  0.676573872733884 ]
    mass: 118.710000
    reduced_to: 49
  - symbol: Sn # 94
    coordinates: [  0.342097849970028,  0.981947235054669,  0.676573872733884 ]
    mass: 118.710000
    reduced_to: 49
  - symbol: Sn # 95
    coordinates: [  0.592097849970028,  0.981947235054669,  0.676573872733884 ]
    mass: 118.710000
    reduced_to: 49
  - symbol: Sn # 96
    coordinates: [  0.842097849970028,  0.981947235054669,  0.676573872733884 ]
    mass: 118.710000
    reduced_to: 49

displacements:
- atom:    1
  displacement:
    [   0.0100000000000000,  0.0000000000000000,  0.0000000000000000 ]
  forces:
  - [  -0.0116131715476513,  0.0001380704052281, -0.0006103254854679 ]
  - [   0.0017732356209308,  0.0001471684372518, -0.0006282052490860 ]
  - [   0.0000017061829567,  0.0001459930208512, -0.0006273910403252 ]
  - [   0.0017033581389114,  0.0001458513579564, -0.0006293533369899 ]
  - [   0.0002723415964283,  0.0001387002412230, -0.0006258250214159 ]
  - [   0.0003270704764873,  0.0000192990992218, -0.0006290310993791 ]
  - [   0.0004019209882244,  0.0001455757301301, -0.0006243753596209 ]
  - [   0.0003169749688823,  0.0002767920959741, -0.0006261445814744 ]
  - [   0.0002977286931127,  0.0001472800940974, -0.0006291847676039 ]
  - [   0.0002973368391395,  0.0001471356663387, -0.0006272483151406 ]
  - [   0.0003786060260609,  0.0001445525558665, -0.0006268888828345 ]
  - [   0.0002998878771905,  0.0001466687244829, -0.0006298292428255 ]
  - [   0.0002744251396507,  0.0001502502709627, -0.0006313845515251 ]
  - [   0.0003244178369641,  0.0002727394457906, -0.0006267080316320 ]
  - [   0.0004039490595460,  0.0001479452475905, -0.0006309539894573 ]
  - [   0.0003187464026269,  0.0000160923227668, -0.0006298316293396 ]
  - [  -0.0000130129192257,  0.0001448876282666, -0.0006321435794234 ]
  - [   0.0002360731596127,  0.0001432888384443, -0.0009160345653072 ]
  - [   0.0003133835271001,  0.0001472081348766, -0.0006319577805698 ]
  - [   0.0002429030573694,  0.0001471693976782, -0.0003422684967518 ]
  - [   0.0004003568319604,  0.0001437528990209, -0.0006310153985396 ]
  - [   0.0001716336701065, -0.0000778515823185, -0.0009604520164430 ]
  - [   0.0003456580452621,  0.0001427810639143, -0.0006293640471995 ]
  - [   0.0001703660091152,  0.0003604765515774, -0.0002916836820077 ]
  - [   0.0003625003155321,  0.0001451153657399, -0.0006254697218537 ]
  - [   0.0003076358698308,  0.0001478533376940, -0.0006312977056950 ]
  - [   0.0003112312406301,  0.0001463686057832, -0.0006300778477453 ]
  - [   0.0003056222922169,  0.0001414565485902, -0.0006260517984629 ]
  - [   0.0003975770086981,  0.0001471044961363, -0.0006262179231271 ]
  - [   0.0001702196314000,  0.0003659535432234, -0.0009585733059794 ]
  - [   0.0003429343923926,  0.0001434974838048, -0.0006242884555832 ]
  - [   0.0001737070560921, -0.0000752247869968, -0.0002939563710243 ]
  - [  -0.0000134161673486,  0.0001457005855627, -0.0006223439704627 ]
  - [   0.0002404097467661,  0.0001442228094675, -0.0003378252731636 ]
  - [   0.0003103758208454,  0.0001424410147592, -0.0006274440092966 ]
  - [   0.0002397998614470,  0.0001442469656467, -0.0009183071088046 ]
  - [   0.0003956528380513,  0.0001429333351552, -0.0006255951011553 ]
  - [   0.0001749517396092, -0.0000754743814468, -0.0002939853293356 ]
  - [   0.0003411872312427,  0.0001446646638215, -0.0006240545189939 ]
  - [   0.0001687869225862,  0.0003614006564021, -0.0009554506978020 ]
  - [   0.0003565663937479,  0.0001421148335794, -0.0006194338202477 ]
  - [   0.0003060633316636,  0.0001443874207325, -0.0006257626228034 ]
  - [   0.0003099818713963,  0.0001449344272260, -0.0006261877133511 ]
  - [   0.0003024208708666,  0.0001432649150956, -0.0006235921755433 ]
  - [   0.0004015589947812,  0.0001489034621045, -0.0006295761559159 ]
  - [   0.0001704865135252,  0.0003636016044766, -0.0002893164055422 ]
  - [   0.0003437823615968,  0.0001444923691452, -0.0006255821790546 ]
  - [   0.0001752572134137, -0.0000761770643294, -0.0009601594647393 ]
  - [   0.0006631747237407, -0.0022046118974686,  0.0020229537039995 ]
  - [   0.0006640632054769,  0.0019421169999987, -0.0007927193073556 ]
  - [   0.0000579892948736, -0.0002661115722731,  0.0005588522180915 ]
  - [   0.0000520638277521, -0.0000203077561309,  0.0006998796015978 ]
  - [  -0.0002242081245640, -0.0009083302575164,  0.0006515011191368 ]
  - [  -0.0002245623327326,  0.0006157226162031,  0.0006091020186432 ]
  - [  -0.0003929303202312, -0.0003063420008402,  0.0006359536200762 ]
  - [  -0.0003897441201843,  0.0000109855391202,  0.0006223469972610 ]
  - [  -0.0002221419999842,  0.0006130620022304,  0.0006508835358545 ]
  - [  -0.0002202316973126, -0.0009121019975282,  0.0006031112279743 ]
  - [  -0.0003859751741402,  0.0000060087113525,  0.0006316464859992 ]
  - [  -0.0003910381637979, -0.0003042163734790,  0.0006230836734176 ]
  - [   0.0006655963952653,  0.0019215424545109,  0.0020249295048416 ]
  - [   0.0006636932375841, -0.0022276584059000, -0.0007991120219231 ]
  - [   0.0000587424874539, -0.0000207563243748,  0.0005577414995059 ]
  - [   0.0000548486132175, -0.0002655122079886,  0.0006996644660830 ]
  - [   0.0006626148824580, -0.0022071143612266, -0.0007750475779176 ]
  - [   0.0006699155783281,  0.0019497770117596,  0.0020517697557807 ]
  - [   0.0000591245770920, -0.0002707538951654,  0.0007021119818091 ]
  - [   0.0000544211943634, -0.0000247675707215,  0.0005600359290838 ]
  - [  -0.0002160746080335, -0.0008979194099084,  0.0006015719845891 ]
  - [  -0.0002208200749010,  0.0006207944243215,  0.0006469521904364 ]
  - [  -0.0003951616527047, -0.0003025393816642,  0.0006254715844989 ]
  - [  -0.0003904264885932,  0.0000106340521597,  0.0006350511685014 ]
  - [  -0.0002265195071232,  0.0006131048430689,  0.0006088448571973 ]
  - [  -0.0002245998330181, -0.0009131840197369,  0.0006518639274873 ]
  - [  -0.0003909234073944,  0.0000104978753370,  0.0006246714619920 ]
  - [  -0.0003895602130797, -0.0003011942026205,  0.0006359927356243 ]
  - [   0.0006600227206945,  0.0019171648891643, -0.0007730796933174 ]
  - [   0.0006721984827891, -0.0022386596538126,  0.0020514354109764 ]
  - [   0.0000566298258491, -0.0000242645073740,  0.0007015392184258 ]
  - [   0.0000512444239575, -0.0002705690567382,  0.0005614310503006 ]
  - [  -0.0003251421730965, -0.0001040600473061,  0.0006240238435566 ]
  - [  -0.0003220476210117, -0.0001764112239471,  0.0006191931897774 ]
  - [  -0.0003143032081425, -0.0001547146821395,  0.0006220594514161 ]
  - [  -0.0003156797902193, -0.0001299309078604,  0.0006271026795730 ]
  - [  -0.0003293005283922, -0.0001457047183067,  0.0006182655924931 ]
  - [  -0.0003397581167519, -0.0001451009884477,  0.0006283123511821 ]
  - [  -0.0002995157847181, -0.0001145265996456,  0.0006232971791178 ]
  - [  -0.0002950416528620, -0.0001672944054008,  0.0006169357802719 ]
  - [  -0.0003371760249138, -0.0001474653836340,  0.0006251346785575 ]
  - [  -0.0003314970526844, -0.0001480232458562,  0.0006196219474077 ]
  - [  -0.0003027632483281, -0.0001759179867804,  0.0006248087156564 ]
  - [  -0.0003019892610610, -0.0001173606142402,  0.0006234579486772 ]
  - [  -0.0003288407460786, -0.0001823400816647,  0.0006292827893049 ]
  - [  -0.0003298148512840, -0.0001060879876604,  0.0006282133981586 ]
  - [  -0.0003105939831585, -0.0001260039571207,  0.0006213627057150 ]
  - [  -0.0003191614523530, -0.0001531385642011,  0.0006266126874834 ]
- atom:    1
  displacement:
    [  -0.0100000000000000,  0.0000000000000000,  0.0000000000000000 ]
  forces:
  - [   0.0122266821563244,  0.0001394398859702, -0.0006136372685432 ]
  - [  -0.0010535924229771,  0.0001475310127717, -0.0006304547423497 ]
  - [   0.0006453836103901,  0.0001461349893361, -0.0006272209575400 ]
  - [  -0.0011227438226342,  0.0001454789889976, -0.0006270576268435 ]
  - [   0.0003729289746843,  0.0001374220009893, -0.0006260344525799 ]
  - [   0.0003302518744022,  0.0002776815090328, -0.0006302110850811 ]
  - [   0.0002413348993286,  0.0001454881858081, -0.0006241895025596 ]
  - [   0.0003205174289178,  0.0000183491501957, -0.0006253443425521 ]
  - [   0.0003463702742010,  0.0001471431314712, -0.0006291167810559 ]
  - [   0.0003493651747704,  0.0001472544972785, -0.0006270381854847 ]
  - [   0.0002654484705999,  0.0001446305541322, -0.0006270002922975 ]
  - [   0.0003519522433635,  0.0001465954701416, -0.0006299456581473 ]
  - [   0.0003752544871531,  0.0001515584299341, -0.0006313545163721 ]
  - [   0.0003279135562479,  0.0000139634357765, -0.0006275755586103 ]
  - [   0.0002437052316964,  0.0001479340717196, -0.0006307860603556 ]
  - [   0.0003217599587515,  0.0002743224613369, -0.0006281203241087 ]
  - [   0.0006547914817929,  0.0001451320422348, -0.0006331624463201 ]
  - [   0.0004019796615466,  0.0001437041501049, -0.0003355257504154 ]
  - [   0.0003386288881302,  0.0001472381700296, -0.0006319757085294 ]
  - [   0.0004085456894245,  0.0001468899572501, -0.0009219860658050 ]
  - [   0.0002474525244907,  0.0001431549899280, -0.0006315790815279 ]
  - [   0.0004672000650316,  0.0003648588899523, -0.0002927204186562 ]
  - [   0.0002990453504026,  0.0001428974792361, -0.0006293420447037 ]
  - [   0.0004659549158532, -0.0000823526643217, -0.0009593306458555 ]
  - [   0.0002788647543639,  0.0001452032011002, -0.0006255358457565 ]
  - [   0.0003381897695363,  0.0001478022022638, -0.0006291344761848 ]
  - [   0.0003338041715324,  0.0001461891224608, -0.0006301292451099 ]
  - [   0.0003360277623869,  0.0001413799182046, -0.0006281090900302 ]
  - [   0.0002442048862576,  0.0001475776080042, -0.0006268857978284 ]
  - [   0.0004652132629417, -0.0000760769471526, -0.0002924483269453 ]
  - [   0.0002965428866446,  0.0001434595324099, -0.0006242857780308 ]
  - [   0.0004686911124736,  0.0003670111764222, -0.0009601955534890 ]
  - [   0.0006543258205056,  0.0001455841702409, -0.0006216941401362 ]
  - [   0.0004061353392899,  0.0001444972294848, -0.0009182423818856 ]
  - [   0.0003354037180543,  0.0001425791124348, -0.0006274704355747 ]
  - [   0.0004056167672388,  0.0001442655920982, -0.0003382760623936 ]
  - [   0.0002425393468002,  0.0001425333321095, -0.0006251087179407 ]
  - [   0.0004698918201029,  0.0003667776472867, -0.0009605559753254 ]
  - [   0.0002947291359305,  0.0001445710659027, -0.0006238801870495 ]
  - [   0.0004637623205781, -0.0000805482268333, -0.0002893202181440 ]
  - [   0.0002730668056756,  0.0001422835484846, -0.0006196144968271 ]
  - [   0.0003365743905306,  0.0001441549102310, -0.0006278861546889 ]
  - [   0.0003327978774905,  0.0001448931870982, -0.0006260566879064 ]
  - [   0.0003328258462716,  0.0001431922428310, -0.0006215209141374 ]
  - [   0.0002486463345122,  0.0001492536393926, -0.0006290809251368 ]
  - [   0.0004662969149649, -0.0000793721992522, -0.0009574837749824 ]
  - [   0.0002971827052534,  0.0001445910893381, -0.0006256103515625 ]
  - [   0.0004708383930847,  0.0003664214164019, -0.0002929449547082 ]
  - [  -0.0013048439286649,  0.0019462946802378, -0.0007984871044755 ]
  - [  -0.0013027207460254, -0.0022063096985221,  0.0020264349877834 ]
  - [  -0.0007003976497799, -0.0000210732960113,  0.0006993468850851 ]
  - [  -0.0007074192981236, -0.0002654462878127,  0.0005595479160547 ]
  - [  -0.0004245864402037,  0.0006162057397887,  0.0006090467795730 ]
  - [  -0.0004251042846590, -0.0009085868368857,  0.0006515054847114 ]
  - [  -0.0002575624966994,  0.0000048348156270,  0.0006249118596315 ]
  - [  -0.0002554110833444, -0.0002992227382492,  0.0006330972537398 ]
  - [  -0.0004228425677866, -0.0009139548637904,  0.0006080638268031 ]
  - [  -0.0004206417652313,  0.0006139111355878,  0.0006458676652983 ]
  - [  -0.0002510414633434, -0.0003048163780477,  0.0006204963428900 ]
  - [  -0.0002562153968029,  0.0000064466803451,  0.0006338218227029 ]
  - [  -0.0013045370578766, -0.0022317066323012, -0.0008039492531680 ]
  - [  -0.0013065768871456,  0.0019233386265114,  0.0020277164876461 ]
  - [  -0.0007016111630946, -0.0002658036246430,  0.0006979806930758 ]
  - [  -0.0007067073602229, -0.0000206850618270,  0.0005588885396719 ]
  - [  -0.0013117284979671,  0.0019552800804377,  0.0020569982007146 ]
  - [  -0.0013038252945989, -0.0022088191471994, -0.0007762145251036 ]
  - [  -0.0007012105779722, -0.0000258706186287,  0.0005619963631034 ]
  - [  -0.0007073322194628, -0.0002695663133636,  0.0007004216313362 ]
  - [  -0.0004165327409282,  0.0006299986853264,  0.0006444649770856 ]
  - [  -0.0004218817630317, -0.0009056396083906,  0.0006038715364411 ]
  - [  -0.0002598840510473,  0.0000086077270680,  0.0006363233551383 ]
  - [  -0.0002554291859269, -0.0003006357583217,  0.0006239181384444 ]
  - [  -0.0004269467899576, -0.0009135777363554,  0.0006512546679005 ]
  - [  -0.0004255643289071,  0.0006124633946456,  0.0006093091797084 ]
  - [  -0.0002560192078818, -0.0003007108462043,  0.0006354461656883 ]
  - [  -0.0002541957655922,  0.0000097814627225,  0.0006250459700823 ]
  - [  -0.0013136767083779, -0.0022442501503974,  0.0020555350929499 ]
  - [  -0.0013010874390602,  0.0019176967907697, -0.0007724983152002 ]
  - [  -0.0007023916114122, -0.0002695150324143,  0.0005613826215267 ]
  - [  -0.0007094765896909, -0.0000252825702773,  0.0007016211748123 ]
  - [  -0.0003162666689605, -0.0001830311957747,  0.0006240359507501 ]
  - [  -0.0003132711863145, -0.0000972031557467,  0.0006193883600645 ]
  - [  -0.0003227535635233, -0.0001276659313589,  0.0006221293006092 ]
  - [  -0.0003244983963668, -0.0001573037588969,  0.0006271098973230 ]
  - [  -0.0002960669808090, -0.0001430653501302,  0.0006183351506479 ]
  - [  -0.0003056728746742, -0.0001476891338825,  0.0006285170093179 ]
  - [  -0.0003335644723848, -0.0001688885968179,  0.0006234553875402 ]
  - [  -0.0003285034908913, -0.0001125521957874,  0.0006169199477881 ]
  - [  -0.0003032160166185, -0.0001500041689724,  0.0006251735612750 ]
  - [  -0.0002983832964674, -0.0001455370802432,  0.0006197803886607 ]
  - [  -0.0003368478501216, -0.0001215974334627,  0.0006248101126403 ]
  - [  -0.0003354797954671, -0.0001715973485261,  0.0006237047491595 ]
  - [  -0.0003198919876013, -0.0001033185762935,  0.0006293510086834 ]
  - [  -0.0003211647272110, -0.0001852018176578,  0.0006282253307290 ]
  - [  -0.0003190662246197, -0.0001532117603347,  0.0006216053152457 ]
  - [  -0.0003282958641648, -0.0001261551224161,  0.0006264648400247 ]
- atom:    1
  displacement:
    [  -0.0000001766774515,  0.0099999999984393,  0.0000000000000000 ]
  forces:
  - [   0.0003062658943236, -0.0117852538824081, -0.0006205467507243 ]
  - [   0.0003208552952856,  0.0000955100986175, -0.0006294677150436 ]
  - [   0.0003233727766201,  0.0001222752907779, -0.0006271101301536 ]
  - [   0.0003291369066574,  0.0000938338635024, -0.0006285496056080 ]
  - [   0.0003221252118237,  0.0015937809366733, -0.0006248857243918 ]
  - [   0.0001976147759706,  0.0001495976466686, -0.0006291629979387 ]
  - [   0.0003216661280021,  0.0001197259407490, -0.0006244716932997 ]
  - [   0.0004499180358835,  0.0001486653927714, -0.0006252505118027 ]
  - [   0.0003219929058105, -0.0001741528976709, -0.0006290394812822 ]