# Thermal properties / unit cell (natom)

unit:
  temperature:   K
  free_energy:   kJ/mol
  entropy:       J/K/mol
  heat_capacity: J/K/mol

natom: 2    
cutoff_frequency: 0.00000
num_modes: 141312
num_integrated_modes: 134515

zero_point_energy:       5.2041014

thermal_properties:
- temperature:         0.0000000
  free_energy:         5.2041014
  entropy:             0.0000000
  heat_capacity:       0.0000000
  energy:              5.2041014

- temperature:        10.0000000
  free_energy:         5.2018850
  entropy:             0.6600645
  heat_capacity:       1.3812813
  energy:              5.2084856

- temperature:        20.0000000
  free_energy:         5.1854789
  entropy:             2.8982879
  heat_capacity:       6.0161806
  energy:              5.2434446

- temperature:        30.0000000
  free_energy:         5.1399007
  entropy:             6.3300208
  heat_capacity:      11.0876879
  energy:              5.3298014

- temperature:        40.0000000
  free_energy:         5.0578603
  entropy:            10.0895370
  heat_capacity:      15.0892453
  energy:              5.4614418

- temperature:        50.0000000
  free_energy:         4.9382106
  entropy:            13.8272065
  heat_capacity:      18.4745900
  energy:              5.6295710

- temperature:        60.0000000
  free_energy:         4.7816236
  entropy:            17.4741071
  heat_capacity:      21.5907283
  energy:              5.8300700

- temperature:        70.0000000
  free_energy:         4.5890536
  entropy:            21.0233962
  heat_capacity:      24.4959881
  energy:              6.0606913

- temperature:        80.0000000
  free_energy:         4.3614947
  entropy:            24.4708359
  heat_capacity:      27.1532574
  energy:              6.3191616

- temperature:        90.0000000
  free_energy:         4.1000009
  entropy:            27.8090811
  heat_capacity:      29.5300194
  energy:              6.6028182

- temperature:       100.0000000
  free_energy:         3.8057011
  entropy:            31.0310340
  heat_capacity:      31.6202260
  energy:              6.9088045

- temperature:       110.0000000
  free_energy:         3.4797835
  entropy:            34.1321135
  heat_capacity:      33.4387683
  energy:              7.2343160

- temperature:       120.0000000
  free_energy:         3.1234671
  entropy:            37.1107817
  heat_capacity:      35.0117594
  energy:              7.5767609

- temperature:       130.0000000
  free_energy:         2.7379724
  entropy:            39.9681571
  heat_capacity:      36.3692229
  energy:              7.9338328

- temperature:       140.0000000
  free_energy:         2.3244981
  entropy:            42.7073426
  heat_capacity:      37.5408022
  energy:              8.3035261

- temperature:       150.0000000
  free_energy:         1.8842048
  entropy:            45.3327687
  heat_capacity:      38.5536521
  energy:              8.6841201

- temperature:       160.0000000
  free_energy:         1.4182046
  entropy:            47.8496588
  heat_capacity:      39.4316416
  energy:              9.0741500

- temperature:       170.0000000
  free_energy:         0.9275547
  entropy:            50.2636315
  heat_capacity:      40.1952583
  energy:              9.4723721

- temperature:       180.0000000
  free_energy:         0.4132559
  entropy:            52.5804231
  heat_capacity:      40.8618486
  energy:              9.8777320

- temperature:       190.0000000
  free_energy:        -0.1237487
  entropy:            54.8057010
  heat_capacity:      41.4459895
  energy:             10.2893345

- temperature:       200.0000000
  free_energy:        -0.6825714
  entropy:            56.9449465
  heat_capacity:      41.9598869
  energy:             10.7064179

- temperature:       210.0000000
  free_energy:        -1.2623783
  entropy:            59.0033839
  heat_capacity:      42.4137508
  energy:             11.1283323

- temperature:       220.0000000
  free_energy:        -1.8623862
  entropy:            60.9859438
  heat_capacity:      42.8161278
  energy:             11.5545214

- temperature:       230.0000000
  free_energy:        -2.4818597
  entropy:            62.8972476
  heat_capacity:      43.1741846
  energy:             11.9845073

- temperature:       240.0000000
  free_energy:        -3.1201080
  entropy:            64.7416067
  heat_capacity:      43.4939463
  energy:             12.4178776

- temperature:       250.0000000
  free_energy:        -3.7764821
  entropy:            66.5230305
  heat_capacity:      43.7804939
  energy:             12.8542756

- temperature:       260.0000000
  free_energy:        -4.4503713
  entropy:            68.2452401
  heat_capacity:      44.0381262
  energy:             13.2933911

- temperature:       270.0000000
  free_energy:        -5.1412010
  entropy:            69.9116850
  heat_capacity:      44.2704931
  energy:             13.7349539

- temperature:       280.0000000
  free_energy:        -5.8484298
  entropy:            71.5255607
  heat_capacity:      44.4807049
  energy:             14.1787272

- temperature:       290.0000000
  free_energy:        -6.5715469
  entropy:            73.0898275
  heat_capacity:      44.6714215
  energy:             14.6245031

- temperature:       300.0000000
  free_energy:        -7.3100701
  entropy:            74.6072281
  heat_capacity:      44.8449260
  energy:             15.0720983

- temperature:       310.0000000
  free_energy:        -8.0635437
  entropy:            76.0803050
  heat_capacity:      45.0031849
  energy:             15.5213508

- temperature:       320.0000000
  free_energy:        -8.8315364
  entropy:            77.5114164
  heat_capacity:      45.1478980
  energy:             15.9721169

- temperature:       330.0000000
  free_energy:        -9.6136395
  entropy:            78.9027517
  heat_capacity:      45.2805398
  energy:             16.4242685

- temperature:       340.0000000
  free_energy:       -10.4094656
  entropy:            80.2563451
  heat_capacity:      45.4023931
  energy:             16.8776917

- temperature:       350.0000000
  free_energy:       -11.2186469
  entropy:            81.5740889
  heat_capacity:      45.5145781
  energy:             17.3322842

- temperature:       360.0000000
  free_energy:       -12.0408338
  entropy:            82.8577448
  heat_capacity:      45.6180754
  energy:             17.7879543

- temperature:       370.0000000
  free_energy:       -12.8756937
  entropy:            84.1089549
  heat_capacity:      45.7137466
  energy:             18.2446196

- temperature:       380.0000000
  free_energy:       -13.7229099
  entropy:            85.3292515
  heat_capacity:      45.8023505
  energy:             18.7022057

- temperature:       390.0000000
  free_energy:       -14.5821804
  entropy:            86.5200661
  heat_capacity:      45.8845576
  energy:             19.1606453

- temperature:       400.0000000
  free_energy:       -15.4532174
  entropy:            87.6827373
  heat_capacity:      45.9609616
  energy:             19.6198775

- temperature:       410.0000000
  free_energy:       -16.3357456
  entropy:            88.8185184
  heat_capacity:      46.0320897
  energy:             20.0798470

- temperature:       420.0000000
  free_energy:       -17.2295020
  entropy:            89.9285841
  heat_capacity:      46.0984115
  energy:             20.5405033

- temperature:       430.0000000
  free_energy:       -18.1342352
  entropy:            91.0140367
  heat_capacity:      46.1603459
  energy:             21.0018006

- temperature:       440.0000000
  free_energy:       -19.0497042
  entropy:            92.0759114
  heat_capacity:      46.2182677
  energy:             21.4636969

- temperature:       450.0000000
  free_energy:       -19.9756781
  entropy:            93.1151817
  heat_capacity:      46.2725128
  energy:             21.9261537

- temperature:       460.0000000
  free_energy:       -20.9119355
  entropy:            94.1327639
  heat_capacity:      46.3233831
  energy:             22.3891359

- temperature:       470.0000000
  free_energy:       -21.8582640
  entropy:            95.1295212
  heat_capacity:      46.3711505
  energy:             22.8526110

- temperature:       480.0000000
  free_energy:       -22.8144593
  entropy:            96.1062679
  heat_capacity:      46.4160601
  energy:             23.3165494

- temperature:       490.0000000
  free_energy:       -23.7803252
  entropy:            97.0637727
  heat_capacity:      46.4583337
  energy:             23.7809234

- temperature:       500.0000000
  free_energy:       -24.7556730
  entropy:            98.0027618
  heat_capacity:      46.4981721
  energy:             24.2457079

- temperature:       510.0000000
  free_energy:       -25.7403210
  entropy:            98.9239223
  heat_capacity:      46.5357572
  energy:             24.7108794

- temperature:       520.0000000
  free_energy:       -26.7340942
  entropy:            99.8279044
  heat_capacity:      46.5712548
  energy:             25.1764161

- temperature:       530.0000000
  free_energy:       -27.7368239
  entropy:           100.7153243
  heat_capacity:      46.6048156
  energy:             25.6422980

- temperature:       540.0000000
  free_energy:       -28.7483474
  entropy:           101.5867663
  heat_capacity:      46.6365770
  energy:             26.1085064

- temperature:       550.0000000
  free_energy:       -29.7685078
  entropy:           102.4427850
  heat_capacity:      46.6666646
  energy:             26.5750240

- temperature:       560.0000000
  free_energy:       -30.7971535
  entropy:           103.2839071
  heat_capacity:      46.6951932
  energy:             27.0418345

- temperature:       570.0000000
  free_energy:       -31.8341380
  entropy:           104.1106332
  heat_capacity:      46.7222681
  energy:             27.5089230

- temperature:       580.0000000
  free_energy:       -32.8793197
  entropy:           104.9234398
  heat_capacity:      46.7479859
  energy:             27.9762753

- temperature:       590.0000000
  free_energy:       -33.9325619
  entropy:           105.7227802
  heat_capacity:      46.7724353
  energy:             28.4438785

- temperature:       600.0000000
  free_energy:       -34.9937319
  entropy:           106.5090866
  heat_capacity:      46.7956978
  energy:             28.9117201

- temperature:       610.0000000
  free_energy:       -36.0627015
  entropy:           107.2827709
  heat_capacity:      46.8178487
  energy:             29.3797887

- temperature:       620.0000000
  free_energy:       -37.1393465
  entropy:           108.0442260
  heat_capacity:      46.8389574
  energy:             29.8480736

- temperature:       630.0000000
  free_energy:       -38.2235465
  entropy:           108.7938272
  heat_capacity:      46.8590879
  energy:             30.3165646

- temperature:       640.0000000
  free_energy:       -39.3151848
  entropy:           109.5319329
  heat_capacity:      46.8782995
  energy:             30.7852523

- temperature:       650.0000000
  free_energy:       -40.4141480
  entropy:           110.2588858
  heat_capacity:      46.8966470
  energy:             31.2541277

- temperature:       660.0000000
  free_energy:       -41.5203264
  entropy:           110.9750135
  heat_capacity:      46.9141812
  energy:             31.7231825

- temperature:       670.0000000
  free_energy:       -42.6336133
  entropy:           111.6806299
  heat_capacity:      46.9309493
  energy:             32.1924088

- temperature:       680.0000000
  free_energy:       -43.7539050
  entropy:           112.3760354
  heat_capacity:      46.9469951
  energy:             32.6617991

- temperature:       690.0000000
  free_energy:       -44.8811009
  entropy:           113.0615178
  heat_capacity:      46.9623593
  energy:             33.1313464

- temperature:       700.0000000
  free_energy:       -46.0151032
  entropy:           113.7373533
  heat_capacity:      46.9770799
  energy:             33.6010441

- temperature:       710.0000000
  free_energy:       -47.1558167
  entropy:           114.4038066
  heat_capacity:      46.9911921
  energy:             34.0708860

- temperature:       720.0000000
  free_energy:       -48.3031489
  entropy:           115.0611319
  heat_capacity:      47.0047290
  energy:             34.5408661

- temperature:       730.0000000
  free_energy:       -49.4570097
  entropy:           115.7095732
  heat_capacity:      47.0177212
  energy:             35.0109788

- temperature:       740.0000000
  free_energy:       -50.6173115
  entropy:           116.3493652
  heat_capacity:      47.0301975
  energy:             35.4812188

- temperature:       750.0000000
  free_energy:       -51.7839689
  entropy:           116.9807333
  heat_capacity:      47.0421847
  energy:             35.9515811

- temperature:       760.0000000
  free_energy:       -52.9568988
  entropy:           117.6038944
  heat_capacity:      47.0537081
  energy:             36.4220609

- temperature:       770.0000000
  free_energy:       -54.1360202
  entropy:           118.2190571
  heat_capacity:      47.0647911
  energy:             36.8926538

- temperature:       780.0000000
  free_energy:       -55.3212540
  entropy:           118.8264222
  heat_capacity:      47.0754559
  energy:             37.3633554

- temperature:       790.0000000
  free_energy:       -56.5125233
  entropy:           119.4261833
  heat_capacity:      47.0857231
  energy:             37.8341616

- temperature:       800.0000000
  free_energy:       -57.7097529
  entropy:           120.0185268
  heat_capacity:      47.0956122
  energy:             38.3050686

- temperature:       810.0000000
  free_energy:       -58.9128697
  entropy:           120.6036324
  heat_capacity:      47.1051416
  energy:             38.7760726

- temperature:       820.0000000
  free_energy:       -60.1218020
  entropy:           121.1816735
  heat_capacity:      47.1143283
  energy:             39.2471702

- temperature:       830.0000000
  free_energy:       -61.3364801
  entropy:           121.7528172
  heat_capacity:      47.1231887
  energy:             39.7183581

- temperature:       840.0000000
  free_energy:       -62.5568359
  entropy:           122.3172249
  heat_capacity:      47.1317378
  energy:             40.1896330

- temperature:       850.0000000
  free_energy:       -63.7828027
  entropy:           122.8750524
  heat_capacity:      47.1399902
  energy:             40.6609919

- temperature:       860.0000000
  free_energy:       -65.0143155
  entropy:           123.4264504
  heat_capacity:      47.1479592
  energy:             41.1324318

- temperature:       870.0000000
  free_energy:       -66.2513108
  entropy:           123.9715643
  heat_capacity:      47.1556578
  energy:             41.6039501

- temperature:       880.0000000
  free_energy:       -67.4937263
  entropy:           124.5105346
  heat_capacity:      47.1630980
  energy:             42.0755441

- temperature:       890.0000000
  free_energy:       -68.7415014
  entropy:           125.0434974
  heat_capacity:      47.1702913
  energy:             42.5472113

- temperature:       900.0000000
  free_energy:       -69.9945767
  entropy:           125.5705843
  heat_capacity:      47.1772482
  energy:             43.0189492

- temperature:       910.0000000
  free_energy:       -71.2528940
  entropy:           126.0919225
  heat_capacity:      47.1839792
  energy:             43.4907555

- temperature:       920.0000000
  free_energy:       -72.5163964
  entropy:           126.6076352
  heat_capacity:      47.1904939
  energy:             43.9626280

- temperature:       930.0000000
  free_energy:       -73.7850283
  entropy:           127.1178419
  heat_capacity:      47.1968014
  energy:             44.4345647

- temperature:       940.0000000
  free_energy:       -75.0587353
  entropy:           127.6226582
  heat_capacity:      47.2029103
  energy:             44.9065634

- temperature:       950.0000000
  free_energy:       -76.3374639
  entropy:           128.1221959
  heat_capacity:      47.2088290
  energy:             45.3786223

- temperature:       960.0000000
  free_energy:       -77.6211619
  entropy:           128.6165639
  heat_capacity:      47.2145652
  energy:             45.8507394

- temperature:       970.0000000
  free_energy:       -78.9097783
  entropy:           129.1058673
  heat_capacity:      47.2201263
  energy:             46.3229130

- temperature:       980.0000000
  free_energy:       -80.2032628
  entropy:           129.5902083
  heat_capacity:      47.2255194
  energy:             46.7951413

- temperature:       990.0000000
  free_energy:       -81.5015662
  entropy:           130.0696859
  heat_capacity:      47.2307512
  energy:             47.2674228

- temperature:      1000.0000000
  free_energy:       -82.8046406
  entropy:           130.5443964
  heat_capacity:      47.2358279
  energy:             47.7397558
