phonopy:
  version: "2.37.1"
  frequency_unit_conversion_factor: 15.633302
  symmetry_tolerance: 1.00000e-05

space_group:
  type: "F-43m"
  number: 216
  Hall_symbol: "F -4 2 3"

primitive_matrix:
- [ -1.000000000000000,  0.000000000000000,  0.000000000000000 ]
- [  0.000000000000000, -1.000000000000000,  0.000000000000000 ]
- [  1.000000000000000,  1.000000000000000,  1.000000000000000 ]

supercell_matrix:
- [   1,   0,   0 ]
- [   0,   1,   0 ]
- [   0,   0,   1 ]

primitive_cell:
  lattice:
  - [    -6.953978277634438,     4.014880901783948,    11.355797662005717 ] # a
  - [     0.000000676334469,    -8.029762684376365,    11.355797662005717 ] # b
  - [     6.953976517515943,     4.014880901783948,    11.355797662005717 ] # c
  points:
  - symbol: Li # 1
    coordinates: [  0.075785951123917,  0.075785952179067,  0.772642152017871 ]
    mass: 6.940000
  - symbol: Li # 2
    coordinates: [  0.772642157762205,  0.075785949756840,  0.075785946139348 ]
    mass: 6.940000
  - symbol: Li # 3
    coordinates: [  0.075785945735718,  0.772642153738450,  0.075785944597861 ]
    mass: 6.940000
  - symbol: Li # 4
    coordinates: [  0.075785946423332,  0.075785952430921,  0.075785948924418 ]
    mass: 6.940000
  - symbol: Li # 5
    coordinates: [  0.832039292536267,  0.832039294166930,  0.503882120358089 ]
    mass: 6.940000
  - symbol: Li # 6
    coordinates: [  0.503882130983210,  0.832039287385859,  0.832039296190668 ]
    mass: 6.940000
  - symbol: Li # 7
    coordinates: [  0.832039286296245,  0.503882126753093,  0.832039297327934 ]
    mass: 6.940000
  - symbol: Li # 8
    coordinates: [  0.832039286624503,  0.832039293372911,  0.832039284401684 ]
    mass: 6.940000
  - symbol: Li # 9
    coordinates: [  0.418189750254052,  0.418189754914249,  0.745430745254458 ]
    mass: 6.940000
  - symbol: Li # 10
    coordinates: [  0.745430747340605,  0.418189756769648,  0.418189744951754 ]
    mass: 6.940000
  - symbol: Li # 11
    coordinates: [  0.418189757672987,  0.745430739047030,  0.418189749976127 ]
    mass: 6.940000
  - symbol: Li # 12
    coordinates: [  0.418189745957481,  0.418189755050806,  0.418189757497056 ]
    mass: 6.940000
  - symbol: Li # 13
    coordinates: [  0.322866620793914,  0.322866621987941,  0.031400131382834 ]
    mass: 6.940000
  - symbol: Li # 14
    coordinates: [  0.031400133324449,  0.322866624236344,  0.322866617227896 ]
    mass: 6.940000
  - symbol: Li # 15
    coordinates: [  0.322866624766116,  0.031400133418585,  0.322866618918813 ]
    mass: 6.940000
  - symbol: Li # 16
    coordinates: [  0.322866624161863,  0.322866624805975,  0.322866627945034 ]
    mass: 6.940000
  - symbol: Li # 17
    coordinates: [  0.169467164398959,  0.169467161903081,  0.830532833487229 ]
    mass: 6.940000
  - symbol: Li # 18
    coordinates: [  0.830532841989232,  0.830532837214303,  0.169467158930950 ]
    mass: 6.940000
  - symbol: Li # 19
    coordinates: [  0.169467160376225,  0.830532838680224,  0.830532842610603 ]
    mass: 6.940000
  - symbol: Li # 20
    coordinates: [  0.830532839506422,  0.169467158975269,  0.169467160391848 ]
    mass: 6.940000
  - symbol: Li # 21
    coordinates: [  0.830532838804949,  0.169467160276882,  0.830532840343521 ]
    mass: 6.940000
  - symbol: Li # 22
    coordinates: [  0.169467159950151,  0.830532839100258,  0.169467162887204 ]
    mass: 6.940000
  - symbol: Li # 23
    coordinates: [  0.000000001428866,  0.999999995723918,  0.999999997241274 ]
    mass: 6.940000
  - symbol: Li # 24
    coordinates: [  0.325629691012228,  0.003682811045611,  0.667004694851665 ]
    mass: 6.940000
  - symbol: Li # 25
    coordinates: [  0.667004701250730,  0.003682804122025,  0.325629689590996 ]
    mass: 6.940000
  - symbol: Li # 26
    coordinates: [  0.003682807233330,  0.667004698588475,  0.003682808326507 ]
    mass: 6.940000
  - symbol: Li # 27
    coordinates: [  0.003682802814902,  0.003682813348359,  0.667004703826227 ]
    mass: 6.940000
  - symbol: Li # 28
    coordinates: [  0.003682802273784,  0.325629681903074,  0.003682810607017 ]
    mass: 6.940000
  - symbol: Li # 29
    coordinates: [  0.003682804211880,  0.003682813967898,  0.325629683370637 ]
    mass: 6.940000
  - symbol: Li # 30
    coordinates: [  0.667004698037889,  0.325629680292599,  0.003682812205675 ]
    mass: 6.940000
  - symbol: Li # 31
    coordinates: [  0.325629684577647,  0.667004698584365,  0.003682808277365 ]
    mass: 6.940000
  - symbol: Li # 32
    coordinates: [  0.003682806006898,  0.325629682326576,  0.667004700694878 ]
    mass: 6.940000
  - symbol: Li # 33
    coordinates: [  0.325629686785683,  0.003682807229599,  0.003682810680640 ]
    mass: 6.940000
  - symbol: Li # 34
    coordinates: [  0.667004701126008,  0.003682811483913,  0.003682805954881 ]
    mass: 6.940000
  - symbol: Li # 35
    coordinates: [  0.003682808977131,  0.667004695986661,  0.325629689513910 ]
    mass: 6.940000
  - symbol: Li # 36
    coordinates: [  0.078011382107474,  0.078011375829961,  0.421988615424412 ]
    mass: 6.940000
  - symbol: Li # 37
    coordinates: [  0.421988625837022,  0.421988619824453,  0.078011376320108 ]
    mass: 6.940000
  - symbol: Li # 38
    coordinates: [  0.078011385048956,  0.421988617118521,  0.421988617165194 ]
    mass: 6.940000
  - symbol: Li # 39
    coordinates: [  0.421988620954197,  0.078011377813233,  0.078011385272264 ]
    mass: 6.940000
  - symbol: Li # 40
    coordinates: [  0.421988619846420,  0.078011382604939,  0.421988620862695 ]
    mass: 6.940000
  - symbol: Li # 41
    coordinates: [  0.078011380001429,  0.421988618032561,  0.078011385004118 ]
    mass: 6.940000
  - symbol: Li # 42
    coordinates: [  0.749999999575710,  0.750000001076376,  0.750000000845367 ]
    mass: 6.940000
  - symbol: Li # 43
    coordinates: [  0.422245965688901,  0.756845040185861,  0.064063953339584 ]
    mass: 6.940000
  - symbol: Li # 44
    coordinates: [  0.064063949805244,  0.756845036514513,  0.422245973864854 ]
    mass: 6.940000
  - symbol: Li # 45
    coordinates: [  0.756845041573046,  0.064063945100951,  0.756845047743103 ]
    mass: 6.940000
  - symbol: Li # 46
    coordinates: [  0.756845041041239,  0.756845038223017,  0.064063956422827 ]
    mass: 6.940000
  - symbol: Li # 47
    coordinates: [  0.756845043018201,  0.422245966295819,  0.756845044461425 ]
    mass: 6.940000
  - symbol: Li # 48
    coordinates: [  0.756845038130548,  0.756845039945293,  0.422245973218129 ]
    mass: 6.940000
  - symbol: Li # 49
    coordinates: [  0.064063949293144,  0.422245967877010,  0.756845042937483 ]
    mass: 6.940000
  - symbol: Li # 50
    coordinates: [  0.422245973459563,  0.064063943089510,  0.756845039661444 ]
    mass: 6.940000
  - symbol: Li # 51
    coordinates: [  0.756845043714250,  0.422245965235418,  0.064063953954417 ]
    mass: 6.940000
  - symbol: Li # 52
    coordinates: [  0.422245964661886,  0.756845041298694,  0.756845042547214 ]
    mass: 6.940000
  - symbol: Li # 53
    coordinates: [  0.064063950207015,  0.756845037977739,  0.756845045591117 ]
    mass: 6.940000
  - symbol: Li # 54
    coordinates: [  0.756845040950062,  0.064063948896012,  0.422245971088440 ]
    mass: 6.940000
  - symbol: Li # 55
    coordinates: [  0.671970011826690,  0.671970012118029,  0.984089957113467 ]
    mass: 6.940000
  - symbol: Li # 56
    coordinates: [  0.984089975805968,  0.671970010586922,  0.671970006171824 ]
    mass: 6.940000
  - symbol: Li # 57
    coordinates: [  0.671970007606691,  0.984089973790518,  0.671970008338037 ]
    mass: 6.940000
  - symbol: Li # 58
    coordinates: [  0.671970005034148,  0.671970010414328,  0.671970010573509 ]
    mass: 6.940000
  - symbol: Li # 59
    coordinates: [  0.918303394269956,  0.254946236839209,  0.571804131669430 ]
    mass: 6.940000
  - symbol: Li # 60
    coordinates: [  0.571804113721994,  0.254946240361715,  0.918303411010185 ]
    mass: 6.940000
  - symbol: Li # 61
    coordinates: [  0.254946233977723,  0.571804116378372,  0.254946242882291 ]
    mass: 6.940000
  - symbol: Li # 62
    coordinates: [  0.254946241496296,  0.254946240641668,  0.571804125639863 ]
    mass: 6.940000
  - symbol: Li # 63
    coordinates: [  0.254946234300618,  0.918303398409253,  0.254946244751478 ]
    mass: 6.940000
  - symbol: Li # 64
    coordinates: [  0.254946242401368,  0.254946237918754,  0.918303399495646 ]
    mass: 6.940000
  - symbol: Li # 65
    coordinates: [  0.571804117771043,  0.918303396280618,  0.254946246125983 ]
    mass: 6.940000
  - symbol: Li # 66
    coordinates: [  0.918303400372559,  0.571804119668726,  0.254946243639668 ]
    mass: 6.940000
  - symbol: Li # 67
    coordinates: [  0.254946233696512,  0.918303397078600,  0.571804126145884 ]
    mass: 6.940000
  - symbol: Li # 68
    coordinates: [  0.918303397472746,  0.254946237787614,  0.254946245398671 ]
    mass: 6.940000
  - symbol: Li # 69
    coordinates: [  0.571804117994959,  0.254946237311612,  0.254946241241015 ]
    mass: 6.940000
  - symbol: Li # 70
    coordinates: [  0.254946240829331,  0.571804118014966,  0.918303404841344 ]
    mass: 6.940000
  - symbol: Li # 71
    coordinates: [  0.811700611073243,  0.505852868955688,  0.176593646245178 ]
    mass: 6.940000
  - symbol: Li # 72
    coordinates: [  0.176593652537149,  0.505852872085495,  0.811700604859396 ]
    mass: 6.940000
  - symbol: Li # 73
    coordinates: [  0.505852874512638,  0.176593650415972,  0.505852865127247 ]
    mass: 6.940000
  - symbol: Li # 74
    coordinates: [  0.505852872342591,  0.505852871333479,  0.176593648168976 ]
    mass: 6.940000
  - symbol: Li # 75
    coordinates: [  0.505852875789988,  0.811700603611850,  0.505852863376871 ]
    mass: 6.940000
  - symbol: Li # 76
    coordinates: [  0.505852868383595,  0.505852869081276,  0.811700602256498 ]
    mass: 6.940000
  - symbol: Li # 77
    coordinates: [  0.176593651517652,  0.811700609947520,  0.505852867684907 ]
    mass: 6.940000
  - symbol: Li # 78
    coordinates: [  0.811700605223041,  0.176593656240420,  0.505852865148317 ]
    mass: 6.940000
  - symbol: Li # 79
    coordinates: [  0.505852873452945,  0.811700610967153,  0.176593645497233 ]
    mass: 6.940000
  - symbol: Li # 80
    coordinates: [  0.811700605687873,  0.505852872010707,  0.505852866055143 ]
    mass: 6.940000
  - symbol: Li # 81
    coordinates: [  0.176593651042660,  0.505852871724830,  0.505852869787267 ]
    mass: 6.940000
  - symbol: Li # 82
    coordinates: [  0.505852872979942,  0.176593654450347,  0.811700603689035 ]
    mass: 6.940000
  - symbol: Li # 83
    coordinates: [  0.500000001655814,  0.499999998500194,  0.500000000846039 ]
    mass: 6.940000
  - symbol: Li # 84
    coordinates: [  0.249999997950405,  0.249999995539508,  0.249999999365698 ]
    mass: 6.940000
  - symbol: Li # 85
    coordinates: [  0.577138912857785,  0.577138919447011,  0.268583253103288 ]
    mass: 6.940000
  - symbol: Li # 86
    coordinates: [  0.268583258261928,  0.577138912820298,  0.577138916650517 ]
    mass: 6.940000
  - symbol: Li # 87
    coordinates: [  0.577138911641378,  0.268583250889552,  0.577138924154412 ]
    mass: 6.940000
  - symbol: Li # 88
    coordinates: [  0.577138914681641,  0.577138921086092,  0.577138913452790 ]
    mass: 6.940000
  - symbol: Sn # 89
    coordinates: [  0.162901048482226,  0.162901051538762,  0.511296844755937 ]
    mass: 118.710000
  - symbol: Sn # 90
    coordinates: [  0.511296852078778,  0.162901052915450,  0.162901043942698 ]
    mass: 118.710000
  - symbol: Sn # 91
    coordinates: [  0.162901039918440,  0.511296851456929,  0.162901060418300 ]
    mass: 118.710000
  - symbol: Sn # 92
    coordinates: [  0.162901053201388,  0.162901048983231,  0.162901055362481 ]
    mass: 118.710000
  - symbol: Sn # 93
    coordinates: [  0.575606656929674,  0.575606658805891,  0.924393339969689 ]
    mass: 118.710000
  - symbol: Sn # 94
    coordinates: [  0.924393347623790,  0.924393343749693,  0.575606652877654 ]
    mass: 118.710000
  - symbol: Sn # 95
    coordinates: [  0.575606652226764,  0.924393348572302,  0.924393344788850 ]
    mass: 118.710000
  - symbol: Sn # 96
    coordinates: [  0.924393352578664,  0.575606652522871,  0.575606648479820 ]
    mass: 118.710000
  - symbol: Sn # 97
    coordinates: [  0.924393346839562,  0.575606655316049,  0.924393349156575 ]
    mass: 118.710000
  - symbol: Sn # 98
    coordinates: [  0.575606652977255,  0.924393350549528,  0.575606649242547 ]
    mass: 118.710000
  - symbol: Sn # 99
    coordinates: [  0.325486679623149,  0.325486690924076,  0.674513314158262 ]
    mass: 118.710000
  - symbol: Sn # 100
    coordinates: [  0.674513314888833,  0.674513313286829,  0.325486691960427 ]
    mass: 118.710000
  - symbol: Sn # 101
    coordinates: [  0.325486687280050,  0.674513312018378,  0.674513320121101 ]
    mass: 118.710000
  - symbol: Sn # 102
    coordinates: [  0.674513317347545,  0.325486683125513,  0.325486683699399 ]
    mass: 118.710000
  - symbol: Sn # 103
    coordinates: [  0.674513312542588,  0.325486687370827,  0.674513313291070 ]
    mass: 118.710000
  - symbol: Sn # 104
    coordinates: [  0.325486677323495,  0.674513314458459,  0.325486689164362 ]
    mass: 118.710000
  - symbol: Sn # 105
    coordinates: [  0.916683642876404,  0.916683637454102,  0.249949079571083 ]
    mass: 118.710000
  - symbol: Sn # 106
    coordinates: [  0.249949069129882,  0.916683637476971,  0.916683649798635 ]
    mass: 118.710000
  - symbol: Sn # 107
    coordinates: [  0.916683638851344,  0.249949085764324,  0.916683639025077 ]
    mass: 118.710000
  - symbol: Sn # 108
    coordinates: [  0.916683639729005,  0.916683636167942,  0.916683648025755 ]
    mass: 118.710000
  reciprocal_lattice: # without 2pi
  - [    -0.071901297834869,     0.041512219478855,     0.029353580388417 ] # a*
  - [    -0.000000000000000,    -0.083024457539701,     0.029353579455927 ] # b*
  - [     0.071901297834869,     0.041512238060846,     0.029353584963201 ] # c*

unit_cell:
  lattice:
  - [    13.907954795150381,     0.000000000000000,     0.000000000000000 ] # a
  - [     6.953975841181474,    12.044643586160314,     0.000000000000000 ] # b
  - [     6.953976517515943,     4.014880901783948,    11.355797662005717 ] # c
  points:
  - symbol: Li # 1
    coordinates: [  0.924214048876083,  0.924214047820933,  0.924214055320854 ]
    mass: 6.940000
    reduced_to: 1
  - symbol: Li # 2
    coordinates: [  0.227357842237795,  0.924214050243160,  0.924214053658394 ]
    mass: 6.940000
    reduced_to: 2
  - symbol: Li # 3
    coordinates: [  0.924214054264282,  0.227357846261550,  0.924214044072030 ]
    mass: 6.940000
    reduced_to: 3
  - symbol: Li # 4
    coordinates: [  0.924214053576668,  0.924214047569079,  0.227357847778671 ]
    mass: 6.940000
    reduced_to: 4
  - symbol: Li # 5
    coordinates: [  0.167960707463733,  0.167960705833070,  0.167960707061286 ]
    mass: 6.940000
    reduced_to: 5
  - symbol: Li # 6
    coordinates: [  0.496117869016790,  0.167960712614141,  0.167960714559737 ]
    mass: 6.940000
    reduced_to: 6
  - symbol: Li # 7
    coordinates: [  0.167960713703755,  0.496117873246907,  0.167960710377272 ]
    mass: 6.940000
    reduced_to: 7
  - symbol: Li # 8
    coordinates: [  0.167960713375497,  0.167960706627089,  0.496117864399099 ]
    mass: 6.940000
    reduced_to: 8
  - symbol: Li # 9
    coordinates: [  0.581810249745948,  0.581810245085751,  0.581810250422759 ]
    mass: 6.940000
    reduced_to: 9
  - symbol: Li # 10
    coordinates: [  0.254569252659395,  0.581810243230352,  0.581810249062006 ]
    mass: 6.940000
    reduced_to: 10
  - symbol: Li # 11
    coordinates: [  0.581810242327013,  0.254569260952970,  0.581810246696144 ]
    mass: 6.940000
    reduced_to: 11
  - symbol: Li # 12
    coordinates: [  0.581810254042519,  0.581810244949194,  0.254569258505342 ]
    mass: 6.940000
    reduced_to: 12
  - symbol: Li # 13
    coordinates: [  0.677133379206086,  0.677133378012059,  0.677133374164690 ]
    mass: 6.940000
    reduced_to: 13
  - symbol: Li # 14
    coordinates: [  0.968599866675551,  0.677133375763656,  0.677133374788689 ]
    mass: 6.940000
    reduced_to: 14
  - symbol: Li # 15
    coordinates: [  0.677133375233884,  0.968599866581415,  0.677133377103514 ]
    mass: 6.940000
    reduced_to: 15
  - symbol: Li # 16
    coordinates: [  0.677133375838137,  0.677133375194025,  0.968599876912872 ]
    mass: 6.940000
    reduced_to: 16
  - symbol: Li # 17
    coordinates: [  0.830532835601041,  0.830532838096919,  0.169467159789269 ]
    mass: 6.940000
    reduced_to: 17
  - symbol: Li # 18
    coordinates: [  0.169467158010768,  0.169467162785697,  0.830532838134485 ]
    mass: 6.940000
    reduced_to: 18
  - symbol: Li # 19
    coordinates: [  0.830532839623775,  0.169467161319776,  0.830532841667052 ]
    mass: 6.940000
    reduced_to: 19
  - symbol: Li # 20
    coordinates: [  0.169467160493578,  0.830532841024731,  0.169467158873539 ]
    mass: 6.940000
    reduced_to: 20
  - symbol: Li # 21
    coordinates: [  0.169467161195051,  0.830532839723118,  0.830532839425352 ]
    mass: 6.940000
    reduced_to: 21
  - symbol: Li # 22
    coordinates: [  0.830532840049849,  0.169467160899742,  0.169467161937613 ]
    mass: 6.940000
    reduced_to: 22
  - symbol: Li # 23
    coordinates: [  0.999999998571134,  0.000000004276082,  0.999999994394057 ]
    mass: 6.940000
    reduced_to: 23
  - symbol: Li # 24
    coordinates: [  0.674370308987772,  0.996317188954389,  0.996317196909503 ]
    mass: 6.940000
    reduced_to: 24
  - symbol: Li # 25
    coordinates: [  0.332995298749270,  0.996317195877975,  0.996317194963752 ]
    mass: 6.940000
    reduced_to: 25
  - symbol: Li # 26
    coordinates: [  0.996317192766670,  0.332995301411525,  0.674370314148313 ]
    mass: 6.940000
    reduced_to: 26
  - symbol: Li # 27
    coordinates: [  0.996317197185098,  0.996317186651641,  0.674370319989488 ]
    mass: 6.940000
    reduced_to: 27
  - symbol: Li # 28
    coordinates: [  0.996317197726216,  0.674370318096926,  0.332995294783874 ]
    mass: 6.940000
    reduced_to: 28
  - symbol: Li # 29
    coordinates: [  0.996317195788120,  0.996317186032102,  0.332995301550415 ]
    mass: 6.940000
    reduced_to: 29
  - symbol: Li # 30
    coordinates: [  0.332995301962111,  0.674370319707401,  0.996317190536163 ]
    mass: 6.940000
    reduced_to: 30
  - symbol: Li # 31
    coordinates: [  0.674370315422353,  0.332995301415635,  0.996317191439377 ]
    mass: 6.940000
    reduced_to: 31
  - symbol: Li # 32
    coordinates: [  0.996317193993102,  0.674370317673424,  0.996317189028352 ]
    mass: 6.940000
    reduced_to: 32
  - symbol: Li # 33
    coordinates: [  0.674370313214317,  0.996317192770401,  0.332995304695924 ]
    mass: 6.940000
    reduced_to: 33
  - symbol: Li # 34
    coordinates: [  0.332995298873992,  0.996317188516087,  0.674370318564801 ]
    mass: 6.940000
    reduced_to: 34
  - symbol: Li # 35
    coordinates: [  0.996317191022869,  0.332995304013339,  0.996317194477703 ]
    mass: 6.940000
    reduced_to: 35
  - symbol: Li # 36
    coordinates: [  0.921988617892526,  0.921988624170039,  0.578011373361848 ]
    mass: 6.940000
    reduced_to: 36
  - symbol: Li # 37
    coordinates: [  0.578011374162978,  0.578011380175547,  0.921988621981582 ]
    mass: 6.940000
    reduced_to: 37
  - symbol: Li # 38
    coordinates: [  0.921988614951044,  0.578011382881479,  0.921988619332672 ]
    mass: 6.940000
    reduced_to: 38
  - symbol: Li # 39
    coordinates: [  0.578011379045803,  0.921988622186767,  0.578011384039694 ]
    mass: 6.940000
    reduced_to: 39
  - symbol: Li # 40
    coordinates: [  0.578011380153580,  0.921988617395061,  0.921988623314054 ]
    mass: 6.940000
    reduced_to: 40
  - symbol: Li # 41
    coordinates: [  0.921988619998571,  0.578011381967439,  0.578011383038108 ]
    mass: 6.940000
    reduced_to: 41
  - symbol: Li # 42
    coordinates: [  0.250000000424290,  0.249999998923624,  0.250000001497453 ]
    mass: 6.940000
    reduced_to: 42
  - symbol: Li # 43
    coordinates: [  0.577754034311099,  0.243154959814139,  0.243154959214346 ]
    mass: 6.940000
    reduced_to: 43
  - symbol: Li # 44
    coordinates: [  0.935936050194756,  0.243154963485487,  0.243154960184611 ]
    mass: 6.940000
    reduced_to: 44
  - symbol: Li # 45
    coordinates: [  0.243154958426954,  0.935936054899049,  0.577754034417100 ]
    mass: 6.940000
    reduced_to: 45
  - symbol: Li # 46
    coordinates: [  0.243154958958761,  0.243154961776983,  0.577754035687083 ]
    mass: 6.940000
    reduced_to: 46
  - symbol: Li # 47
    coordinates: [  0.243154956981799,  0.577754033704181,  0.935936053775446 ]
    mass: 6.940000
    reduced_to: 47
  - symbol: Li # 48
    coordinates: [  0.243154961869452,  0.243154960054707,  0.935936051293970 ]
    mass: 6.940000
    reduced_to: 48
  - symbol: Li # 49
    coordinates: [  0.935936050706856,  0.577754032122990,  0.243154960107637 ]
    mass: 6.940000
    reduced_to: 49
  - symbol: Li # 50
    coordinates: [  0.577754026540437,  0.935936056910490,  0.243154956210518 ]
    mass: 6.940000
    reduced_to: 50
  - symbol: Li # 51
    coordinates: [  0.243154956285750,  0.577754034764582,  0.243154962904084 ]
    mass: 6.940000
    reduced_to: 51
  - symbol: Li # 52
    coordinates: [  0.577754035338114,  0.243154958701305,  0.935936048507794 ]
    mass: 6.940000
    reduced_to: 52
  - symbol: Li # 53
    coordinates: [  0.935936049792985,  0.243154962022261,  0.577754033775872 ]
    mass: 6.940000
    reduced_to: 53
  - symbol: Li # 54
    coordinates: [  0.243154959049938,  0.935936051103988,  0.243154960934513 ]
    mass: 6.940000
    reduced_to: 54
  - symbol: Li # 55
    coordinates: [  0.328029988173310,  0.328029987881971,  0.328029981058186 ]
    mass: 6.940000
    reduced_to: 55
  - symbol: Li # 56
    coordinates: [  0.015910024194032,  0.328029989413078,  0.328029992564714 ]
    mass: 6.940000
    reduced_to: 56
  - symbol: Li # 57
    coordinates: [  0.328029992393309,  0.015910026209482,  0.328029989735246 ]
    mass: 6.940000
    reduced_to: 57
  - symbol: Li # 58
    coordinates: [  0.328029994965852,  0.328029989585672,  0.015910026021986 ]
    mass: 6.940000
    reduced_to: 58
  - symbol: Li # 59
    coordinates: [  0.081696605730044,  0.745053763160791,  0.745053762778596 ]
    mass: 6.940000
    reduced_to: 59
  - symbol: Li # 60
    coordinates: [  0.428195886278006,  0.745053759638285,  0.745053765093893 ]
    mass: 6.940000
    reduced_to: 60
  - symbol: Li # 61
    coordinates: [  0.745053766022277,  0.428195883621628,  0.081696593238385 ]
    mass: 6.940000
    reduced_to: 61
  - symbol: Li # 62
    coordinates: [  0.745053758503704,  0.745053759358332,  0.081696607777828 ]
    mass: 6.940000
    reduced_to: 62
  - symbol: Li # 63
    coordinates: [  0.745053765699382,  0.081696601590747,  0.428195877461348 ]
    mass: 6.940000
    reduced_to: 63
  - symbol: Li # 64
    coordinates: [  0.745053757598632,  0.745053762081246,  0.428195879815769 ]
    mass: 6.940000
    reduced_to: 64
  - symbol: Li # 65
    coordinates: [  0.428195882228957,  0.081696603719382,  0.745053760177645 ]
    mass: 6.940000
    reduced_to: 65
  - symbol: Li # 66
    coordinates: [  0.081696599627441,  0.428195880331274,  0.745053763680953 ]
    mass: 6.940000
    reduced_to: 66
  - symbol: Li # 67
    coordinates: [  0.745053766303488,  0.081696602921400,  0.745053756920996 ]
    mass: 6.940000
    reduced_to: 67
  - symbol: Li # 68
    coordinates: [  0.081696602527254,  0.745053762212386,  0.428195880659031 ]
    mass: 6.940000
    reduced_to: 68
  - symbol: Li # 69
    coordinates: [  0.428195882005041,  0.745053762688388,  0.081696596547586 ]
    mass: 6.940000
    reduced_to: 69
  - symbol: Li # 70
    coordinates: [  0.745053759170669,  0.428195881985034,  0.745053763685642 ]
    mass: 6.940000
    reduced_to: 70
  - symbol: Li # 71
    coordinates: [  0.188299388926757,  0.494147131044312,  0.494147126274109 ]
    mass: 6.940000
    reduced_to: 71
  - symbol: Li # 72
    coordinates: [  0.823406347462851,  0.494147127914505,  0.494147129482039 ]
    mass: 6.940000
    reduced_to: 72
  - symbol: Li # 73
    coordinates: [  0.494147125487362,  0.823406349584028,  0.188299390055857 ]
    mass: 6.940000
    reduced_to: 73
  - symbol: Li # 74
    coordinates: [  0.494147127657409,  0.494147128666521,  0.188299391845045 ]
    mass: 6.940000
    reduced_to: 74
  - symbol: Li # 75
    coordinates: [  0.494147124210012,  0.188299396388150,  0.823406342778709 ]
    mass: 6.940000
    reduced_to: 75
  - symbol: Li # 76
    coordinates: [  0.494147131616405,  0.494147130918724,  0.823406339721369 ]
    mass: 6.940000
    reduced_to: 76
  - symbol: Li # 77
    coordinates: [  0.823406348482348,  0.188299390052480,  0.494147129150079 ]
    mass: 6.940000
    reduced_to: 77
  - symbol: Li # 78
    coordinates: [  0.188299394776959,  0.823406343759580,  0.494147126611778 ]
    mass: 6.940000
    reduced_to: 78
  - symbol: Li # 79
    coordinates: [  0.494147126547055,  0.188299389032847,  0.494147129917332 ]
    mass: 6.940000
    reduced_to: 79
  - symbol: Li # 80
    coordinates: [  0.188299394312127,  0.494147127989293,  0.823406343753724 ]
    mass: 6.940000
    reduced_to: 80
  - symbol: Li # 81
    coordinates: [  0.823406348957340,  0.494147128275170,  0.188299392554756 ]
    mass: 6.940000
    reduced_to: 81
  - symbol: Li # 82
    coordinates: [  0.494147127020058,  0.823406345549653,  0.494147131119324 ]
    mass: 6.940000
    reduced_to: 82
  - symbol: Li # 83
    coordinates: [  0.499999998344186,  0.500000001499806,  0.500000001002047 ]
    mass: 6.940000
    reduced_to: 83
  - symbol: Li # 84
    coordinates: [  0.750000002049595,  0.750000004460492,  0.749999992855611 ]
    mass: 6.940000
    reduced_to: 84
  - symbol: Li # 85
    coordinates: [  0.422861087142215,  0.422861080552989,  0.422861085408083 ]
    mass: 6.940000
    reduced_to: 85
  - symbol: Li # 86
    coordinates: [  0.731416741738072,  0.422861087179702,  0.422861087732743 ]
    mass: 6.940000
    reduced_to: 86
  - symbol: Li # 87
    coordinates: [  0.422861088358622,  0.731416749110448,  0.422861086685342 ]
    mass: 6.940000
    reduced_to: 87
  - symbol: Li # 88
    coordinates: [  0.422861085318359,  0.422861078913908,  0.731416749220523 ]
    mass: 6.940000
    reduced_to: 88
  - symbol: Sn # 89
    coordinates: [  0.837098951517774,  0.837098948461238,  0.837098944776925 ]
    mass: 118.710000
    reduced_to: 89
  - symbol: Sn # 90
    coordinates: [  0.488703147921222,  0.837098947084550,  0.837098948936925 ]
    mass: 118.710000
    reduced_to: 90
  - symbol: Sn # 91
    coordinates: [  0.837098960081560,  0.488703148543071,  0.837098951793669 ]
    mass: 118.710000
    reduced_to: 91
  - symbol: Sn # 92
    coordinates: [  0.837098946798612,  0.837098951016769,  0.488703157547100 ]
    mass: 118.710000
    reduced_to: 92
  - symbol: Sn # 93
    coordinates: [  0.424393343070326,  0.424393341194109,  0.075606655705254 ]
    mass: 118.710000
    reduced_to: 93
  - symbol: Sn # 94
    coordinates: [  0.075606652376210,  0.075606656250307,  0.424393344251137 ]
    mass: 118.710000
    reduced_to: 94
  - symbol: Sn # 95
    coordinates: [  0.424393347773236,  0.075606651427698,  0.424393345587916 ]
    mass: 118.710000
    reduced_to: 95
  - symbol: Sn # 96
    coordinates: [  0.075606647421336,  0.424393347477129,  0.075606653581355 ]
    mass: 118.710000
    reduced_to: 96
  - symbol: Sn # 97
    coordinates: [  0.075606653160438,  0.424393344683951,  0.424393351312186 ]
    mass: 118.710000
    reduced_to: 97
  - symbol: Sn # 98
    coordinates: [  0.424393347022745,  0.075606649450472,  0.075606652769331 ]
    mass: 118.710000
    reduced_to: 98
  - symbol: Sn # 99
    coordinates: [  0.674513320376851,  0.674513309075924,  0.325486684705488 ]
    mass: 118.710000
    reduced_to: 99
  - symbol: Sn # 100
    coordinates: [  0.325486685111167,  0.325486686713171,  0.674513320136089 ]
    mass: 118.710000
    reduced_to: 100
  - symbol: Sn # 101
    coordinates: [  0.674513312719950,  0.325486687981622,  0.674513319419529 ]
    mass: 118.710000
    reduced_to: 101
  - symbol: Sn # 102
    coordinates: [  0.325486682652455,  0.674513316874487,  0.325486684172457 ]
    mass: 118.710000
    reduced_to: 102
  - symbol: Sn # 103
    coordinates: [  0.325486687457412,  0.674513312629173,  0.674513313204485 ]
    mass: 118.710000
    reduced_to: 103
  - symbol: Sn # 104
    coordinates: [  0.674513322676505,  0.325486685541541,  0.325486680946316 ]
    mass: 118.710000
    reduced_to: 104
  - symbol: Sn # 105
    coordinates: [  0.083316357123596,  0.083316362545898,  0.083316359901590 ]
    mass: 118.710000
    reduced_to: 105
  - symbol: Sn # 106
    coordinates: [  0.750050930870118,  0.083316362523029,  0.083316356405488 ]
    mass: 118.710000
    reduced_to: 106
  - symbol: Sn # 107
    coordinates: [  0.083316361148656,  0.750050914235676,  0.083316363640746 ]
    mass: 118.710000
    reduced_to: 107
  - symbol: Sn # 108
    coordinates: [  0.083316360270995,  0.083316363832058,  0.750050923922702 ]
    mass: 118.710000
    reduced_to: 108

supercell:
  lattice:
  - [    13.907954795150381,     0.000000000000000,     0.000000000000000 ] # a
  - [     6.953975841181474,    12.044643586160314,     0.000000000000000 ] # b
  - [     6.953976517515943,     4.014880901783948,    11.355797662005717 ] # c
  points:
  - symbol: Li # 1
    coordinates: [  0.924214048876083,  0.924214047820933,  0.924214055320854 ]
    mass: 6.940000
    reduced_to: 1
  - symbol: Li # 2
    coordinates: [  0.227357842237795,  0.924214050243160,  0.924214053658394 ]
    mass: 6.940000
    reduced_to: 2
  - symbol: Li # 3
    coordinates: [  0.924214054264282,  0.227357846261550,  0.924214044072030 ]
    mass: 6.940000
    reduced_to: 3
  - symbol: Li # 4
    coordinates: [  0.924214053576668,  0.924214047569079,  0.227357847778671 ]
    mass: 6.940000
    reduced_to: 4
  - symbol: Li # 5