phonopy:
  version: "2.37.1"
  frequency_unit_conversion_factor: 15.633302
  symmetry_tolerance: 1.00000e-05

space_group:
  type: "P2/m"
  number: 10
  Hall_symbol: "-P 2y"

primitive_matrix:
- [  0.000000000000000,  1.000000000000000,  0.000000000000000 ]
- [ -1.000000000000000,  0.000000000000000,  0.000000000000000 ]
- [  0.000000000000000,  0.000000000000000,  1.000000000000000 ]

supercell_matrix:
- [   4,   0,   0 ]
- [   0,   2,   0 ]
- [   0,   0,   2 ]

primitive_cell:
  lattice:
  - [     0.000000251024012,    -5.162765652671903,     0.000000000000000 ] # a
  - [     3.224456760678688,     0.000000000000000,     0.000000000000000 ] # b
  - [    -0.000000151244525,     1.937210238175943,     7.563181004059008 ] # c
  points:
  - symbol: Li # 1
    coordinates: [  0.734453683045437,  0.499999996184168,  0.670245155541160 ]
    mass: 6.940000
  - symbol: Li # 2
    coordinates: [  0.500000000954167,  0.499999999108111,  0.999999996966015 ]
    mass: 6.940000
  - symbol: Li # 3
    coordinates: [  0.265546315226156,  0.499999997274677,  0.329754843635491 ]
    mass: 6.940000
  - symbol: Sn # 4
    coordinates: [  0.759752267491317,  0.000000001538906,  0.337350390610594 ]
    mass: 118.710000
  - symbol: Sn # 5
    coordinates: [  0.240247735704605,  0.000000006696842,  0.662649612610787 ]
    mass: 118.710000
  - symbol: Sn # 6
    coordinates: [  0.999999997368304,  0.999999999334261,  0.000000000601461 ]
    mass: 118.710000
  reciprocal_lattice: # without 2pi
  - [     0.000000000000000,    -0.193694633317797,     0.049612355772207 ] # a*
  - [     0.310129759590735,     0.000000015079130,     0.000000002339489 ] # b*
  - [     0.000000000000000,    -0.000000000000000,     0.132219498576501 ] # c*

unit_cell:
  lattice:
  - [     3.224456760678688,     0.000000000000000,     0.000000000000000 ] # a
  - [    -0.000000251024012,     5.162765652671903,     0.000000000000000 ] # b
  - [    -0.000000151244525,     1.937210238175943,     7.563181004059010 ] # c
  points:
  - symbol: Li # 1
    coordinates: [  0.499999996184168,  0.265546316954563,  0.670245155541160 ]
    mass: 6.940000
    reduced_to: 1
  - symbol: Li # 2
    coordinates: [  0.499999999108111,  0.499999999045833,  0.999999996966014 ]
    mass: 6.940000
    reduced_to: 2
  - symbol: Li # 3
    coordinates: [  0.499999997274677,  0.734453684773844,  0.329754843635491 ]
    mass: 6.940000
    reduced_to: 3
  - symbol: Sn # 4
    coordinates: [  0.000000001538906,  0.240247732508683,  0.337350390610594 ]
    mass: 118.710000
    reduced_to: 4
  - symbol: Sn # 5
    coordinates: [  0.000000006696842,  0.759752264295395,  0.662649612610786 ]
    mass: 118.710000
    reduced_to: 5
  - symbol: Sn # 6
    coordinates: [  0.999999999334261,  0.000000002631696,  0.000000000601461 ]
    mass: 118.710000
    reduced_to: 6

supercell:
  lattice:
  - [    12.897827042714750,     0.000000000000000,     0.000000000000000 ] # a
  - [    -0.000000502048024,    10.325531305343805,     0.000000000000000 ] # b
  - [    -0.000000302489049,     3.874420476351886,    15.126362008118020 ] # c
  points:
  - symbol: Li # 1
    coordinates: [  0.124999999046042,  0.132773158477281,  0.335122577770580 ]
    mass: 6.940000
    reduced_to: 1
  - symbol: Li # 2
    coordinates: [  0.374999999046042,  0.132773158477281,  0.335122577770580 ]
    mass: 6.940000
    reduced_to: 1
  - symbol: Li # 3
    coordinates: [  0.624999999046042,  0.132773158477281,  0.335122577770580 ]
    mass: 6.940000
    reduced_to: 1
  - symbol: Li # 4
    coordinates: [  0.874999999046042,  0.132773158477281,  0.335122577770580 ]
    mass: 6.940000
    reduced_to: 1
  - symbol: Li # 5
    coordinates: [  0.124999999046042,  0.632773158477281,  0.335122577770580 ]
    mass: 6.940000
    reduced_to: 1
  - symbol: Li # 6
    coordinates: [  0.374999999046042,  0.632773158477281,  0.335122577770580 ]
    mass: 6.940000
    reduced_to: 1
  - symbol: Li # 7
    coordinates: [  0.624999999046042,  0.632773158477281,  0.335122577770580 ]
    mass: 6.940000
    reduced_to: 1
  - symbol: Li # 8
    coordinates: [  0.874999999046042,  0.632773158477281,  0.335122577770580 ]
    mass: 6.940000
    reduced_to: 1
  - symbol: Li # 9
    coordinates: [  0.124999999046042,  0.132773158477281,  0.835122577770580 ]
    mass: 6.940000
    reduced_to: 1
  - symbol: Li # 10
    coordinates: [  0.374999999046042,  0.132773158477281,  0.835122577770580 ]
    mass: 6.940000
    reduced_to: 1
  - symbol: Li # 11
    coordinates: [  0.624999999046042,  0.132773158477281,  0.835122577770580 ]
    mass: 6.940000
    reduced_to: 1
  - symbol: Li # 12
    coordinates: [  0.874999999046042,  0.132773158477281,  0.835122577770580 ]
    mass: 6.940000
    reduced_to: 1
  - symbol: Li # 13
    coordinates: [  0.124999999046042,  0.632773158477281,  0.835122577770580 ]
    mass: 6.940000
    reduced_to: 1
  - symbol: Li # 14
    coordinates: [  0.374999999046042,  0.632773158477281,  0.835122577770580 ]
    mass: 6.940000
    reduced_to: 1
  - symbol: Li # 15
    coordinates: [  0.624999999046042,  0.632773158477281,  0.835122577770580 ]
    mass: 6.940000
    reduced_to: 1
  - symbol: Li # 16
    coordinates: [  0.874999999046042,  0.632773158477281,  0.835122577770580 ]
    mass: 6.940000
    reduced_to: 1
  - symbol: Li # 17
    coordinates: [  0.124999999777028,  0.249999999522916,  0.499999998483007 ]
    mass: 6.940000
    reduced_to: 17
  - symbol: Li # 18
    coordinates: [  0.374999999777028,  0.249999999522916,  0.499999998483007 ]
    mass: 6.940000
    reduced_to: 17
  - symbol: Li # 19
    coordinates: [  0.624999999777028,  0.249999999522916,  0.499999998483007 ]
    mass: 6.940000
    reduced_to: 17
  - symbol: Li # 20
    coordinates: [  0.874999999777028,  0.249999999522916,  0.499999998483007 ]
    mass: 6.940000
    reduced_to: 17
  - symbol: Li # 21
    coordinates: [  0.124999999777028,  0.749999999522916,  0.499999998483007 ]
    mass: 6.940000
    reduced_to: 17
  - symbol: Li # 22
    coordinates: [  0.374999999777028,  0.749999999522916,  0.499999998483007 ]
    mass: 6.940000
    reduced_to: 17
  - symbol: Li # 23
    coordinates: [  0.624999999777028,  0.749999999522916,  0.499999998483007 ]
    mass: 6.940000
    reduced_to: 17
  - symbol: Li # 24
    coordinates: [  0.874999999777028,  0.749999999522916,  0.499999998483007 ]
    mass: 6.940000
    reduced_to: 17
  - symbol: Li # 25
    coordinates: [  0.124999999777028,  0.249999999522916,  0.999999998483007 ]
    mass: 6.940000
    reduced_to: 17
  - symbol: Li # 26
    coordinates: [  0.374999999777028,  0.249999999522916,  0.999999998483007 ]
    mass: 6.940000
    reduced_to: 17
  - symbol: Li # 27
    coordinates: [  0.624999999777028,  0.249999999522916,  0.999999998483007 ]
    mass: 6.940000
    reduced_to: 17
  - symbol: Li # 28
    coordinates: [  0.874999999777028,  0.249999999522916,  0.999999998483007 ]
    mass: 6.940000
    reduced_to: 17
  - symbol: Li # 29
    coordinates: [  0.124999999777028,  0.749999999522916,  0.999999998483007 ]
    mass: 6.940000
    reduced_to: 17
  - symbol: Li # 30
    coordinates: [  0.374999999777028,  0.749999999522916,  0.999999998483007 ]
    mass: 6.940000
    reduced_to: 17
  - symbol: Li # 31
    coordinates: [  0.624999999777028,  0.749999999522916,  0.999999998483007 ]
    mass: 6.940000
    reduced_to: 17
  - symbol: Li # 32
    coordinates: [  0.874999999777028,  0.749999999522916,  0.999999998483007 ]
    mass: 6.940000
    reduced_to: 17
  - symbol: Li # 33
    coordinates: [  0.124999999318669,  0.367226842386922,  0.164877421817745 ]
    mass: 6.940000
    reduced_to: 33
  - symbol: Li # 34
    coordinates: [  0.374999999318669,  0.367226842386922,  0.164877421817745 ]
    mass: 6.940000
    reduced_to: 33
  - symbol: Li # 35
    coordinates: [  0.624999999318669,  0.367226842386922,  0.164877421817745 ]
    mass: 6.940000
    reduced_to: 33
  - symbol: Li # 36
    coordinates: [  0.874999999318669,  0.367226842386922,  0.164877421817745 ]
    mass: 6.940000
    reduced_to: 33
  - symbol: Li # 37
    coordinates: [  0.124999999318669,  0.867226842386922,  0.164877421817745 ]
    mass: 6.940000
    reduced_to: 33
  - symbol: Li # 38
    coordinates: [  0.374999999318669,  0.867226842386922,  0.164877421817745 ]
    mass: 6.940000
    reduced_to: 33
  - symbol: Li # 39
    coordinates: [  0.624999999318669,  0.867226842386922,  0.164877421817745 ]
    mass: 6.940000
    reduced_to: 33
  - symbol: Li # 40
    coordinates: [  0.874999999318669,  0.867226842386922,  0.164877421817745 ]
    mass: 6.940000
    reduced_to: 33
  - symbol: Li # 41
    coordinates: [  0.124999999318669,  0.367226842386922,  0.664877421817745 ]
    mass: 6.940000
    reduced_to: 33
  - symbol: Li # 42
    coordinates: [  0.374999999318669,  0.367226842386922,  0.664877421817745 ]
    mass: 6.940000
    reduced_to: 33
  - symbol: Li # 43
    coordinates: [  0.624999999318669,  0.367226842386922,  0.664877421817745 ]
    mass: 6.940000
    reduced_to: 33
  - symbol: Li # 44
    coordinates: [  0.874999999318669,  0.367226842386922,  0.664877421817745 ]
    mass: 6.940000
    reduced_to: 33
  - symbol: Li # 45
    coordinates: [  0.124999999318669,  0.867226842386922,  0.664877421817745 ]
    mass: 6.940000
    reduced_to: 33
  - symbol: Li # 46
    coordinates: [  0.374999999318669,  0.867226842386922,  0.664877421817745 ]
    mass: 6.940000
    reduced_to: 33
  - symbol: Li # 47
    coordinates: [  0.624999999318669,  0.867226842386922,  0.664877421817745 ]
    mass: 6.940000
    reduced_to: 33
  - symbol: Li # 48
    coordinates: [  0.874999999318669,  0.867226842386922,  0.664877421817745 ]
    mass: 6.940000
    reduced_to: 33
  - symbol: Sn # 49
    coordinates: [  0.000000000384726,  0.120123866254341,  0.168675195305297 ]
    mass: 118.710000
    reduced_to: 49
  - symbol: Sn # 50
    coordinates: [  0.250000000384726,  0.120123866254341,  0.168675195305297 ]
    mass: 118.710000
    reduced_to: 49
  - symbol: Sn # 51
    coordinates: [  0.500000000384726,  0.120123866254341,  0.168675195305297 ]
    mass: 118.710000
    reduced_to: 49
  - symbol: Sn # 52
    coordinates: [  0.750000000384726,  0.120123866254341,  0.168675195305297 ]
    mass: 118.710000
    reduced_to: 49
  - symbol: Sn # 53
    coordinates: [  0.000000000384726,  0.620123866254341,  0.168675195305297 ]
    mass: 118.710000
    reduced_to: 49
  - symbol: Sn # 54
    coordinates: [  0.250000000384726,  0.620123866254341,  0.168675195305297 ]
    mass: 118.710000
    reduced_to: 49
  - symbol: Sn # 55
    coordinates: [  0.500000000384726,  0.620123866254341,  0.168675195305297 ]
    mass: 118.710000
    reduced_to: 49
  - symbol: Sn # 56
    coordinates: [  0.750000000384726,  0.620123866254341,  0.168675195305297 ]
    mass: 118.710000
    reduced_to: 49
  - symbol: Sn # 57
    coordinates: [  0.000000000384726,  0.120123866254341,  0.668675195305297 ]
    mass: 118.710000
    reduced_to: 49
  - symbol: Sn # 58
    coordinates: [  0.250000000384726,  0.120123866254341,  0.668675195305297 ]
    mass: 118.710000
    reduced_to: 49
  - symbol: Sn # 59
    coordinates: [  0.500000000384726,  0.120123866254341,  0.668675195305297 ]
    mass: 118.710000
    reduced_to: 49
  - symbol: Sn # 60
    coordinates: [  0.750000000384726,  0.120123866254341,  0.668675195305297 ]
    mass: 118.710000
    reduced_to: 49
  - symbol: Sn # 61
    coordinates: [  0.000000000384726,  0.620123866254341,  0.668675195305297 ]
    mass: 118.710000
    reduced_to: 49
  - symbol: Sn # 62
    coordinates: [  0.250000000384726,  0.620123866254341,  0.668675195305297 ]
    mass: 118.710000
    reduced_to: 49
  - symbol: Sn # 63
    coordinates: [  0.500000000384726,  0.620123866254341,  0.668675195305297 ]
    mass: 118.710000
    reduced_to: 49
  - symbol: Sn # 64
    coordinates: [  0.750000000384726,  0.620123866254341,  0.668675195305297 ]
    mass: 118.710000
    reduced_to: 49
  - symbol: Sn # 65
    coordinates: [  0.000000001674211,  0.379876132147697,  0.331324806305393 ]
    mass: 118.710000
    reduced_to: 65
  - symbol: Sn # 66
    coordinates: [  0.250000001674211,  0.379876132147697,  0.331324806305393 ]
    mass: 118.710000
    reduced_to: 65
  - symbol: Sn # 67
    coordinates: [  0.500000001674211,  0.379876132147697,  0.331324806305393 ]
    mass: 118.710000
    reduced_to: 65
  - symbol: Sn # 68
    coordinates: [  0.750000001674211,  0.379876132147697,  0.331324806305393 ]
    mass: 118.710000
    reduced_to: 65
  - symbol: Sn # 69
    coordinates: [  0.000000001674211,  0.879876132147697,  0.331324806305393 ]
    mass: 118.710000
    reduced_to: 65
  - symbol: Sn # 70
    coordinates: [  0.250000001674211,  0.879876132147697,  0.331324806305393 ]
    mass: 118.710000
    reduced_to: 65
  - symbol: Sn # 71
    coordinates: [  0.500000001674211,  0.879876132147697,  0.331324806305393 ]
    mass: 118.710000
    reduced_to: 65
  - symbol: Sn # 72
    coordinates: [  0.750000001674211,  0.879876132147697,  0.331324806305393 ]
    mass: 118.710000
    reduced_to: 65
  - symbol: Sn # 73
    coordinates: [  0.000000001674211,  0.379876132147697,  0.831324806305393 ]
    mass: 118.710000
    reduced_to: 65
  - symbol: Sn # 74
    coordinates: [  0.250000001674211,  0.379876132147697,  0.831324806305393 ]
    mass: 118.710000
    reduced_to: 65
  - symbol: Sn # 75
    coordinates: [  0.500000001674211,  0.379876132147697,  0.831324806305393 ]
    mass: 118.710000
    reduced_to: 65
  - symbol: Sn # 76
    coordinates: [  0.750000001674211,  0.379876132147697,  0.831324806305393 ]
    mass: 118.710000
    reduced_to: 65
  - symbol: Sn # 77
    coordinates: [  0.000000001674211,  0.879876132147697,  0.831324806305393 ]
    mass: 118.710000
    reduced_to: 65
  - symbol: Sn # 78
    coordinates: [  0.250000001674211,  0.879876132147697,  0.831324806305393 ]
    mass: 118.710000
    reduced_to: 65
  - symbol: Sn # 79
    coordinates: [  0.500000001674211,  0.879876132147697,  0.831324806305393 ]
    mass: 118.710000
    reduced_to: 65
  - symbol: Sn # 80
    coordinates: [  0.750000001674211,  0.879876132147697,  0.831324806305393 ]
    mass: 118.710000
    reduced_to: 65
  - symbol: Sn # 81
    coordinates: [  0.249999999833565,  0.000000001315848,  0.000000000300730 ]
    mass: 118.710000
    reduced_to: 81
  - symbol: Sn # 82
    coordinates: [  0.499999999833565,  0.000000001315848,  0.000000000300730 ]
    mass: 118.710000
    reduced_to: 81
  - symbol: Sn # 83
    coordinates: [  0.749999999833565,  0.000000001315848,  0.000000000300730 ]
    mass: 118.710000
    reduced_to: 81
  - symbol: Sn # 84
    coordinates: [  0.999999999833565,  0.000000001315848,  0.000000000300730 ]
    mass: 118.710000
    reduced_to: 81
  - symbol: Sn # 85
    coordinates: [  0.249999999833565,  0.500000001315848,  0.000000000300730 ]
    mass: 118.710000
    reduced_to: 81
  - symbol: Sn # 86
    coordinates: [  0.499999999833565,  0.500000001315848,  0.000000000300730 ]
    mass: 118.710000
    reduced_to: 81
  - symbol: Sn # 87
    coordinates: [  0.749999999833565,  0.500000001315848,  0.000000000300730 ]
    mass: 118.710000
    reduced_to: 81
  - symbol: Sn # 88
    coordinates: [  0.999999999833565,  0.500000001315848,  0.000000000300730 ]
    mass: 118.710000
    reduced_to: 81
  - symbol: Sn # 89
    coordinates: [  0.249999999833565,  0.000000001315848,  0.500000000300730 ]
    mass: 118.710000
    reduced_to: 81
  - symbol: Sn # 90
    coordinates: [  0.499999999833565,  0.000000001315848,  0.500000000300730 ]
    mass: 118.710000
    reduced_to: 81
  - symbol: Sn # 91
    coordinates: [  0.749999999833565,  0.000000001315848,  0.500000000300730 ]
    mass: 118.710000
    reduced_to: 81
  - symbol: Sn # 92
    coordinates: [  0.999999999833565,  0.000000001315848,  0.500000000300730 ]
    mass: 118.710000
    reduced_to: 81
  - symbol: Sn # 93
    coordinates: [  0.249999999833565,  0.500000001315848,  0.500000000300730 ]
    mass: 118.710000
    reduced_to: 81
  - symbol: Sn # 94
    coordinates: [  0.499999999833565,  0.500000001315848,  0.500000000300730 ]
    mass: 118.710000
    reduced_to: 81
  - symbol: Sn # 95
    coordinates: [  0.749999999833565,  0.500000001315848,  0.500000000300730 ]
    mass: 118.710000
    reduced_to: 81
  - symbol: Sn # 96
    coordinates: [  0.999999999833565,  0.500000001315848,  0.500000000300730 ]
    mass: 118.710000
    reduced_to: 81

displacements:
- atom:    1
  displacement:
    [   0.0078065411526045,  0.0062496332078525,  0.0000000000000000 ]
  forces:
  - [  -0.0098584946244955, -0.0263131335377693,  0.0446910634636879 ]
  - [   0.0014849870931357, -0.0136885046958923,  0.0442920029163361 ]
  - [  -0.0006106658838689, -0.0132382251322269,  0.0444056317210197 ]
  - [   0.0012079798616469, -0.0133856832981110,  0.0445541962981224 ]
  - [   0.0005197683349252, -0.0133345574140549,  0.0444145873188972 ]
  - [  -0.0005673905834556, -0.0141878277063370,  0.0443754047155380 ]
  - [  -0.0000290749594569, -0.0131611712276936,  0.0444032214581966 ]
  - [  -0.0004599634557962, -0.0143021456897259,  0.0444293282926083 ]
  - [  -0.0000346389897459, -0.0131795182824135,  0.0444032289087772 ]
  - [   0.0000172602012753, -0.0131748020648956,  0.0443987399339676 ]
  - [  -0.0000063437037170, -0.0131790153682232,  0.0444034598767757 ]
  - [   0.0000235089282796, -0.0131824165582657,  0.0444086045026779 ]
  - [   0.0000134248020913, -0.0131851024925709,  0.0444102026522160 ]
  - [  -0.0000085043720901, -0.0131769813597202,  0.0444053113460541 ]
  - [  -0.0000036866404116, -0.0131785571575165,  0.0444051362574100 ]
  - [  -0.0000005675537977, -0.0131866335868835,  0.0444047264754772 ]
  - [  -0.0003021994489245,  0.0005359160713851,  0.0007530217990279 ]
  - [   0.0000267298892140,  0.0001248426269740, -0.0000329106114805 ]
  - [   0.0000072680413723,  0.0000064030755311,  0.0000093495473266 ]
  - [   0.0001539125078125, -0.0000721798278391,  0.0000125230289996 ]
  - [  -0.0002982155419886, -0.0001308824867010, -0.0000447137281299 ]
  - [   0.0000301478430629,  0.0000995392911136,  0.0000905604101717 ]
  - [  -0.0000337385572493, -0.0000087230000645,  0.0000033564865589 ]
  - [   0.0000793253420852, -0.0000187307596207, -0.0000282037071884 ]
  - [  -0.0000397833064198, -0.0000144718214869, -0.0000479420414194 ]
  - [  -0.0000148653052747, -0.0000303299493680,  0.0001093287282856 ]
  - [  -0.0000143465586007, -0.0000026742054615, -0.0000056226563174 ]
  - [  -0.0001112937898142,  0.0000864611938596, -0.0002866638824344 ]
  - [  -0.0000476278364658,  0.0000048814399634, -0.0000174052838702 ]
  - [   0.0000372370705009, -0.0000041042694647, -0.0000295264071610 ]
  - [  -0.0000126645900309, -0.0000026025372790,  0.0000080190075096 ]
  - [   0.0000243279209826, -0.0000013504177332,  0.0000173980370164 ]
  - [  -0.0002052996715065,  0.0135975107550621, -0.0450794845819473 ]
  - [  -0.0000153593719006,  0.0131876692175865, -0.0443473383784294 ]
  - [  -0.0000010430812836,  0.0131803974509239, -0.0444121807813644 ]
  - [   0.0000359123769158,  0.0132535248994827, -0.0444548428058624 ]
  - [  -0.0003799144178629,  0.0131513401865959, -0.0443051941692829 ]
  - [   0.0000964682549238,  0.0132106617093086, -0.0444536022841930 ]
  - [  -0.0000329008325934,  0.0131618008017540, -0.0444080680608749 ]
  - [   0.0001023244112730,  0.0132170356810093, -0.0444994866847992 ]
  - [  -0.0000563690846320,  0.0130527615547180, -0.0445844680070877 ]
  - [   0.0000258991494775,  0.0131785944104195, -0.0444030389189720 ]
  - [  -0.0000024032779038,  0.0131845697760582, -0.0444099232554436 ]
  - [   0.0000208285637200,  0.0131731890141964, -0.0444103889167309 ]
  - [   0.0003022491000593,  0.0131479911506176, -0.0443575941026211 ]
  - [  -0.0001947693526745,  0.0132393613457680, -0.0447149537503719 ]
  - [  -0.0000081532634795,  0.0131736472249031, -0.0444001182913780 ]
  - [  -0.0003395359963179,  0.0130594745278358, -0.0438465327024460 ]
  - [   0.0020167776383460, -0.0102164261043072, -0.0042047724127769 ]
  - [   0.0005771940341219, -0.0104396604001522, -0.0080258734524250 ]
  - [  -0.0000334697360813, -0.0102782920002937, -0.0072667375206947 ]
  - [  -0.0001574053894728, -0.0102423466742039, -0.0073002390563488 ]
  - [  -0.0001354660635116, -0.0102961882948875, -0.0071262568235397 ]
  - [  -0.0000431781518273, -0.0102971456944942, -0.0071407333016396 ]
  - [   0.0001214942894876, -0.0102021917700768, -0.0073861926794052 ]
  - [   0.0000196024775505, -0.0102098025381565, -0.0072814412415028 ]
  - [  -0.0000805245945230, -0.0103763826191425, -0.0072082243859768 ]
  - [  -0.0000375168201572, -0.0102098025381565, -0.0072689838707447 ]
  - [   0.0000166324898601, -0.0102316513657570, -0.0072764605283737 ]
  - [   0.0000633029194432, -0.0102599151432514, -0.0073013715445995 ]
  - [   0.0000196287874132, -0.0102256610989571, -0.0073264837265015 ]
  - [   0.0000015711411834, -0.0102037340402603, -0.0071230456233025 ]
  - [  -0.0000247447751462, -0.0102709457278252, -0.0073171779513359 ]
  - [   0.0000029325019568, -0.0102173388004303, -0.0072791650891304 ]
  - [  -0.0006491743260995,  0.0116375274956226,  0.0072544030845165 ]
  - [   0.0038232265505940,  0.0178416073322296,  0.0072287134826183 ]
  - [  -0.0001833327114582,  0.0101647190749645,  0.0072922930121422 ]
  - [   0.0000307222362608,  0.0101400427520275,  0.0072922036051750 ]
  - [   0.0030106594786048,  0.0155500993132591,  0.0073449127376080 ]
  - [  -0.0008459056261927,  0.0114444568753242,  0.0073881261050701 ]
  - [   0.0000345737207681,  0.0102054774761200,  0.0072794966399670 ]
  - [  -0.0001859839539975,  0.0102021135389805,  0.0072889402508736 ]
  - [  -0.0000135885429700,  0.0102678611874580,  0.0072962194681168 ]
  - [   0.0000010547228158,  0.0102484375238419,  0.0072979852557182 ]
  - [   0.0000079798046499,  0.0102359950542450,  0.0072851218283176 ]
  - [   0.0000054168049246,  0.0102326199412346,  0.0073029398918152 ]
  - [  -0.0000014640339714,  0.0103414990007877,  0.0072792060673237 ]
  - [   0.0000203532417800,  0.0101953409612179,  0.0072601027786732 ]
  - [  -0.0000043846666813,  0.0102498456835747,  0.0073010958731174 ]
  - [  -0.0000146243191921,  0.0102164335548878,  0.0072708614170551 ]
  - [  -0.0000912609975785, -0.0000822662259452, -0.0000265277922153 ]
  - [   0.0000102199846879,  0.0000006054615369,  0.0000010341755114 ]
  - [   0.0000580586493015,  0.0000257145729847,  0.0000161284115165 ]
  - [  -0.0001088019926101, -0.0000052580726333, -0.0001755902776495 ]
  - [  -0.0000399961136281, -0.0000064729829319, -0.0001135416096076 ]
  - [  -0.0000248348806053,  0.0000389658962376,  0.0000118921161629 ]
  - [   0.0000009648501873, -0.0000199911592063, -0.0000000071013346 ]
  - [   0.0001005844678730, -0.0000107499945443,  0.0001301388256252 ]
  - [   0.0003631955478340, -0.0006262775277719,  0.0008864715346135 ]
  - [  -0.0000389863307646, -0.0000122029596241, -0.0000190678983927 ]
  - [  -0.0001496728509665, -0.0000102684716694,  0.0000060732709244 ]
  - [   0.0020689768716693,  0.0011796187609434, -0.0035278876312077 ]
  - [  -0.0000421698205173, -0.0001727436465444, -0.0001594560453668 ]
  - [   0.0000858819112182,  0.0000351371854777,  0.0000911008100957 ]
  - [   0.0000166473910213,  0.0000136512680911, -0.0000124305952340 ]
  - [  -0.0000908242072910, -0.0000312557676807, -0.0001658810069785 ]
- atom:    1
  displacement:
    [  -0.0078065411526045, -0.0062496332078525,  0.0000000000000000 ]
  forces:
  - [   0.0098702106624842, -0.0001244470477104,  0.0441042408347130 ]
  - [  -0.0014448123984039, -0.0126711875200272,  0.0445166453719139 ]
  - [   0.0006119506433606, -0.0131183862686157,  0.0444028601050377 ]
  - [  -0.0012394408695400, -0.0129706934094429,  0.0442548692226410 ]
  - [  -0.0005222009494901, -0.0130219683051109,  0.0443926379084587 ]
  - [   0.0005658292211592, -0.0121760964393616,  0.0444314964115620 ]
  - [   0.0000292421318591, -0.0131958425045013,  0.0444029271602631 ]
  - [   0.0004655369557440, -0.0120308995246887,  0.0443762876093388 ]
  - [   0.0000349266447301, -0.0131785571575165,  0.0444057993590832 ]
  - [  -0.0000175824388862, -0.0131834931671619,  0.0444095917046070 ]
  - [   0.0000059255398810, -0.0131795406341553,  0.0444046072661877 ]
  - [  -0.0000235888983298, -0.0131755992770195,  0.0443997234106064 ]
  - [  -0.0000132834047690, -0.0131725966930389,  0.0443981327116489 ]
  - [   0.0000084289349616, -0.0131813809275627,  0.0444030314683914 ]
  - [   0.0000040936283767, -0.0131796747446060,  0.0444035679101944 ]
  - [   0.0000014282413758, -0.0131722725927830,  0.0444035753607750 ]
  - [   0.0003040913725272, -0.0005259006284177, -0.0007508336566389 ]
  - [  -0.0000263084657490, -0.0001222577411681,  0.0000278325751424 ]
  - [  -0.0000072540715337, -0.0000061530154198, -0.0000087367370725 ]
  - [  -0.0001571488246555,  0.0000722887925804, -0.0000124638900161 ]
  - [   0.0003018793649971,  0.0001359777525067,  0.0000417656265199 ]
  - [  -0.0000293757766485, -0.0000953385606408, -0.0000926144421101 ]
  - [   0.0000344272702932,  0.0000118359457701, -0.0000050826929510 ]
  - [  -0.0000851957593113,  0.0000166501849890,  0.0000239103101194 ]
  - [   0.0000393111258745,  0.0000128974206746,  0.0000515411957167 ]
  - [   0.0000157961621881,  0.0000298703780572, -0.0001090841906262 ]
  - [   0.0000157784670591,  0.0000030804221751,  0.0000051648530643 ]
  - [   0.0001147174480138, -0.0000886851921678,  0.0002906904555857 ]
  - [   0.0000479836016893, -0.0000074963318184,  0.0000184141099453 ]
  - [  -0.0000362182036042,  0.0000019026056179,  0.0000291623364319 ]
  - [   0.0000131726264954,  0.0000002026063157, -0.0000077015138231 ]
  - [  -0.0000235227635130, -0.0000002705492079, -0.0000178259797394 ]
  - [   0.0002059900725726,  0.0127622485160828, -0.0437283255159855 ]
  - [   0.0000171652063727,  0.0131678283214569, -0.0444538593292236 ]
  - [   0.0000020526349545,  0.0131733566522598, -0.0443939901888371 ]
  - [  -0.0000391820249206,  0.0130991786718369, -0.0443511493504047 ]
  - [   0.0003839991986752,  0.0132021754980087, -0.0445014014840126 ]
  - [  -0.0000961953774095,  0.0131434537470341, -0.0443533360958099 ]
  - [   0.0000336910597980,  0.0131901241838932, -0.0443986803293228 ]
  - [  -0.0001057879999280,  0.0131303817033768, -0.0443044118583202 ]
  - [   0.0000549975375179,  0.0133040323853493, -0.0442221388220787 ]
  - [  -0.0000248788855970,  0.0131768807768822, -0.0444042608141899 ]
  - [   0.0000008982606232,  0.0131697505712509, -0.0443980470299721 ]
  - [  -0.0000203079544008,  0.0131833851337433, -0.0443966984748840 ]
  - [  -0.0003022602759302,  0.0132074579596519, -0.0444523543119431 ]
  - [   0.0001958739012480,  0.0131146013736725, -0.0440902374684811 ]
  - [   0.0000085663050413,  0.0131817236542702, -0.0444067865610123 ]
  - [   0.0003402959555387,  0.0132961347699165, -0.0449638143181801 ]
  - [  -0.0020345123484731, -0.0102372206747532, -0.0104432739317417 ]
  - [  -0.0005933524225838, -0.0100309588015079, -0.0065408721566200 ]
  - [   0.0000325371111103, -0.0101939439773560, -0.0073159635066986 ]
  - [   0.0001559020020068, -0.0102288275957108, -0.0072841942310333 ]
  - [   0.0001327371428488, -0.0101704373955727, -0.0074540786445141 ]
  - [   0.0000422844022978, -0.0101678296923637, -0.0074437297880650 ]
  - [  -0.0001209860201925, -0.0102680809795856, -0.0071949139237404 ]
  - [  -0.0000207356642932, -0.0102629140019417, -0.0072972588241100 ]
  - [   0.0000811834979686, -0.0100916139781475, -0.0073745213449001 ]
  - [   0.0000375528470613, -0.0102608054876328, -0.0073133520781994 ]
  - [  -0.0000150965061039, -0.0102392397820950, -0.0073055252432823 ]
  - [  -0.0000654023679090, -0.0102137885987759, -0.0072812177240849 ]
  - [  -0.0000195499742404, -0.0102472268044949, -0.0072545856237411 ]
  - [  -0.0000016761478037, -0.0102676078677177, -0.0074560754001141 ]
  - [   0.0000223615206778, -0.0102028548717499, -0.0072638280689716 ]
  - [  -0.0000016922131181, -0.0102554410696030, -0.0073019042611122 ]
  - [   0.0006613291916437,  0.0087999477982521,  0.0073272101581097 ]
  - [  -0.0036653298884630,  0.0028927028179169,  0.0073480196297169 ]
  - [   0.0001794742420316,  0.0103109814226627,  0.0072868689894676 ]
  - [  -0.0000329518225044,  0.0103342570364475,  0.0072877667844296 ]
  - [  -0.0031184658873826,  0.0047050416469574,  0.0072394050657749 ]
  - [   0.0008375772740692,  0.0090494416654110,  0.0071968473494053 ]
  - [  -0.0000338659156114,  0.0102703161537647,  0.0073019117116928 ]
  - [   0.0001873674336821,  0.0102666616439819,  0.0072921216487885 ]
  - [   0.0000115898210424,  0.0102063603699207,  0.0072837620973587 ]
  - [  -0.0000022675376385,  0.0102247409522533,  0.0072820000350475 ]
  - [  -0.0000056040007621,  0.0102383345365524,  0.0072936825454235 ]
  - [  -0.0000027576461434,  0.0102389678359032,  0.0072777681052685 ]
  - [   0.0000004691607955,  0.0101300552487373,  0.0073027908802032 ]
  - [  -0.0000191911803995,  0.0102772675454617,  0.0073199495673180 ]
  - [   0.0000039944425225,  0.0102228038012981,  0.0072809830307961 ]
  - [   0.0000149332981891,  0.0102569051086903,  0.0073091313242912 ]
  - [   0.0000923590268940,  0.0000857198028825,  0.0000250360462815 ]
  - [  -0.0000107650412247,  0.0000035484554246, -0.0000012925011106 ]
  - [  -0.0000582523643970, -0.0000221542140935, -0.0000148161780089 ]
  - [   0.0001081819646060,  0.0000100793840829,  0.0001772082177922 ]
  - [   0.0000400666613132,  0.0000102382618934,  0.0001084827817976 ]
  - [   0.0000237079802901, -0.0000349872425431, -0.0000115024158731 ]
  - [  -0.0000039972364902,  0.0000241498928517, -0.0000013704411685 ]
  - [  -0.0000996175222099,  0.0000127114471979, -0.0001300493022427 ]
  - [  -0.0003758105449378,  0.0006260712980293, -0.0009020722936839 ]
  - [   0.0000381653626391,  0.0000119562901091,  0.0000188641133718 ]
  - [   0.0001509208232164,  0.0000098718446679, -0.0000035773264244 ]