# Thermal properties / unit cell (natom)

unit:
  temperature:   K
  free_energy:   kJ/mol
  entropy:       J/K/mol
  heat_capacity: J/K/mol

natom: 6    
cutoff_frequency: 0.00000
num_modes: 145080
num_integrated_modes: 145068

zero_point_energy:      17.1927423

thermal_properties:
- temperature:         0.0000000
  free_energy:        17.1927423
  entropy:             0.0000000
  heat_capacity:       0.0000000
  energy:             17.1927423

- temperature:        10.0000000
  free_energy:        17.1894201
  entropy:             1.0829309
  heat_capacity:       2.8793901
  energy:             17.2002495

- temperature:        20.0000000
  free_energy:        17.1532552
  entropy:             7.2515931
  heat_capacity:      18.5661177
  energy:             17.2982870

- temperature:        30.0000000
  free_energy:        17.0278679
  entropy:            18.2933522
  heat_capacity:      36.4012295
  energy:             17.5766685

- temperature:        40.0000000
  free_energy:        16.7832752
  entropy:            30.6595883
  heat_capacity:      49.4873276
  energy:             18.0096587

- temperature:        50.0000000
  free_energy:        16.4154925
  entropy:            42.8180892
  heat_capacity:      59.5388357
  energy:             18.5563970

- temperature:        60.0000000
  free_energy:        15.9286641
  entropy:            54.4598884
  heat_capacity:      68.2969120
  energy:             19.1962574

- temperature:        70.0000000
  free_energy:        15.3279562
  entropy:            65.6036893
  heat_capacity:      76.4015621
  energy:             19.9202144

- temperature:        80.0000000
  free_energy:        14.6180646
  entropy:            76.3043352
  heat_capacity:      83.9391764
  energy:             20.7224115

- temperature:        90.0000000
  free_energy:        13.8032296
  entropy:            86.5963527
  heat_capacity:      90.8486099
  energy:             21.5969014

- temperature:       100.0000000
  free_energy:        12.8874422
  entropy:            96.4967399
  heat_capacity:      97.0794645
  energy:             22.5371162

- temperature:       110.0000000
  free_energy:        11.8745688
  entropy:           106.0148958
  heat_capacity:     102.6266094
  energy:             23.5362074

- temperature:       120.0000000
  free_energy:        10.7683913
  entropy:           115.1590334
  heat_capacity:     107.5225244
  energy:             24.5874753

- temperature:       130.0000000
  free_energy:         9.5726025
  entropy:           123.9389639
  heat_capacity:     111.8216979
  energy:             25.6846678

- temperature:       140.0000000
  free_energy:         8.2907860
  entropy:           132.3667590
  heat_capacity:     115.5877916
  energy:             26.8221322

- temperature:       150.0000000
  free_energy:         6.9263944
  entropy:           140.4564521
  heat_capacity:     118.8853477
  energy:             27.9948622

- temperature:       160.0000000
  free_energy:         5.4827328
  entropy:           148.2234254
  heat_capacity:     121.7751887
  energy:             29.1984808

- temperature:       170.0000000
  free_energy:         3.9629480
  entropy:           155.6837818
  heat_capacity:     124.3122722
  energy:             30.4291909

- temperature:       180.0000000
  free_energy:         2.3700248
  entropy:           162.8538204
  heat_capacity:     126.5450111
  energy:             31.6837125

- temperature:       190.0000000
  free_energy:         0.7067856
  entropy:           169.7496403
  heat_capacity:     128.5153945
  energy:             32.9592173

- temperature:       200.0000000
  free_energy:        -1.0241061
  entropy:           176.3868639
  heat_capacity:     130.2594980
  energy:             34.2532667

- temperature:       210.0000000
  free_energy:        -2.8201397
  entropy:           182.7804566
  heat_capacity:     131.8081502
  energy:             35.5637562

- temperature:       220.0000000
  free_energy:        -4.6789505
  entropy:           188.9446216
  heat_capacity:     133.1876243
  energy:             36.8888662

- temperature:       230.0000000
  free_energy:        -6.5983121
  entropy:           194.8927469
  heat_capacity:     134.4202919
  energy:             38.2270197

- temperature:       240.0000000
  free_energy:        -8.5761273
  entropy:           200.6373909
  heat_capacity:     135.5252102
  energy:             39.5768465

- temperature:       250.0000000
  free_energy:       -10.6104208
  entropy:           206.1902934
  heat_capacity:     136.5186338
  energy:             40.9371525

- temperature:       260.0000000
  free_energy:       -12.6993306
  entropy:           211.5624026
  heat_capacity:     137.4144534
  energy:             42.3068941

- temperature:       270.0000000
  free_energy:       -14.8411003
  entropy:           216.7639126
  heat_capacity:     138.2245667
  energy:             43.6851561

- temperature:       280.0000000
  free_energy:       -17.0340719
  entropy:           221.8043065
  heat_capacity:     138.9591911
  energy:             45.0711339

- temperature:       290.0000000
  free_energy:       -19.2766788
  entropy:           226.6924020
  heat_capacity:     139.6271252
  energy:             46.4641178

- temperature:       300.0000000
  free_energy:       -21.5674396
  entropy:           231.4363974
  heat_capacity:     140.2359675
  energy:             47.8634796

- temperature:       310.0000000
  free_energy:       -23.9049519
  entropy:           236.0439164
  heat_capacity:     140.7922994
  energy:             49.2686622

- temperature:       320.0000000
  free_energy:       -26.2878867
  entropy:           240.5220513
  heat_capacity:     141.3018382
  energy:             50.6791697

- temperature:       330.0000000
  free_energy:       -28.7149837
  entropy:           244.8774041
  heat_capacity:     141.7695650
  energy:             52.0945596

- temperature:       340.0000000
  free_energy:       -31.1850461
  entropy:           249.1161243
  heat_capacity:     142.1998322
  energy:             53.5144362

- temperature:       350.0000000
  free_energy:       -33.6969366
  entropy:           253.2439450
  heat_capacity:     142.5964534
  energy:             54.9384442

- temperature:       360.0000000
  free_energy:       -36.2495732
  entropy:           257.2662153
  heat_capacity:     142.9627798
  energy:             56.3662643

- temperature:       370.0000000
  free_energy:       -38.8419257
  entropy:           261.1879308
  heat_capacity:     143.3017637
  energy:             57.7976087

- temperature:       380.0000000
  free_energy:       -41.4730122
  entropy:           265.0137616
  heat_capacity:     143.6160137
  energy:             59.2322172

- temperature:       390.0000000
  free_energy:       -44.1418960
  entropy:           268.7480774
  heat_capacity:     143.9078396
  energy:             60.6698542

- temperature:       400.0000000
  free_energy:       -46.8476824
  entropy:           272.3949712
  heat_capacity:     144.1792928
  energy:             62.1103061

- temperature:       410.0000000
  free_energy:       -49.5895168
  entropy:           275.9582806
  heat_capacity:     144.4321987
  energy:             63.5533783

- temperature:       420.0000000
  free_energy:       -52.3665814
  entropy:           279.4416074
  heat_capacity:     144.6681861
  energy:             64.9988937

- temperature:       430.0000000
  free_energy:       -55.1780936
  entropy:           282.8483351
  heat_capacity:     144.8887113
  energy:             66.4466905

- temperature:       440.0000000
  free_energy:       -58.0233034
  entropy:           286.1816458
  heat_capacity:     145.0950793
  energy:             67.8966207

- temperature:       450.0000000
  free_energy:       -60.9014918
  entropy:           289.4445347
  heat_capacity:     145.2884620
  energy:             69.3485488

- temperature:       460.0000000
  free_energy:       -63.8119688
  entropy:           292.6398239
  heat_capacity:     145.4699141
  energy:             70.8023502

- temperature:       470.0000000
  free_energy:       -66.7540719
  entropy:           295.7701752
  heat_capacity:     145.6403866
  energy:             72.2579105

- temperature:       480.0000000
  free_energy:       -69.7271642
  entropy:           298.8381009
  heat_capacity:     145.8007385
  energy:             73.7151242

- temperature:       490.0000000
  free_energy:       -72.7306337
  entropy:           301.8459752
  heat_capacity:     145.9517474
  energy:             75.1738941

- temperature:       500.0000000
  free_energy:       -75.7638911
  entropy:           304.7960429
  heat_capacity:     146.0941184
  energy:             76.6341304

- temperature:       510.0000000
  free_energy:       -78.8263690
  entropy:           307.6904290
  heat_capacity:     146.2284919
  energy:             78.0957498

- temperature:       520.0000000
  free_energy:       -81.9175208
  entropy:           310.5311467
  heat_capacity:     146.3554506
  energy:             79.5586755

- temperature:       530.0000000
  free_energy:       -85.0368194
  entropy:           313.3201043
  heat_capacity:     146.4755256
  energy:             81.0228359

- temperature:       540.0000000
  free_energy:       -88.1837564
  entropy:           316.0591131
  heat_capacity:     146.5892016
  energy:             82.4881647

- temperature:       550.0000000
  free_energy:       -91.3578409
  entropy:           318.7498927
  heat_capacity:     146.6969219
  energy:             83.9546001

- temperature:       560.0000000
  free_energy:       -94.5585989
  entropy:           321.3940778
  heat_capacity:     146.7990921
  energy:             85.4220846

- temperature:       570.0000000
  free_energy:       -97.7855723
  entropy:           323.9932228
  heat_capacity:     146.8960844
  energy:             86.8905647

- temperature:       580.0000000
  free_energy:      -101.0383182
  entropy:           326.5488075
  heat_capacity:     146.9882404
  energy:             88.3599902

- temperature:       590.0000000
  free_energy:      -104.3164080
  entropy:           329.0622413
  heat_capacity:     147.0758741
  energy:             89.8303144

- temperature:       600.0000000
  free_energy:      -107.6194270
  entropy:           331.5348676
  heat_capacity:     147.1592748
  energy:             91.3014936

- temperature:       610.0000000
  free_energy:      -110.9469736
  entropy:           333.9679677
  heat_capacity:     147.2387090
  energy:             92.7734867

- temperature:       620.0000000
  free_energy:      -114.2986587
  entropy:           336.3627646
  heat_capacity:     147.3144228
  energy:             94.2462553

- temperature:       630.0000000
  free_energy:      -117.6741051
  entropy:           338.7204264
  heat_capacity:     147.3866436
  energy:             95.7197635

- temperature:       640.0000000
  free_energy:      -121.0729471
  entropy:           341.0420694
  heat_capacity:     147.4555817
  energy:             97.1939773

- temperature:       650.0000000
  free_energy:      -124.4948300
  entropy:           343.3287613
  heat_capacity:     147.5214321
  energy:             98.6688648

- temperature:       660.0000000
  free_energy:      -127.9394093
  entropy:           345.5815235
  heat_capacity:     147.5843753
  energy:            100.1443962

- temperature:       670.0000000
  free_energy:      -131.4063506
  entropy:           347.8013341
  heat_capacity:     147.6445792
  energy:            101.6205432

- temperature:       680.0000000
  free_energy:      -134.8953292
  entropy:           349.9891301
  heat_capacity:     147.7021997
  energy:            103.0972792

- temperature:       690.0000000
  free_energy:      -138.4060295
  entropy:           352.1458096
  heat_capacity:     147.7573817
  energy:            104.5745791

- temperature:       700.0000000
  free_energy:      -141.9381446
  entropy:           354.2722339
  heat_capacity:     147.8102602
  energy:            106.0524192

- temperature:       710.0000000
  free_energy:      -145.4913761
  entropy:           356.3692298
  heat_capacity:     147.8609612
  energy:            107.5307770

- temperature:       720.0000000
  free_energy:      -149.0654337
  entropy:           358.4375906
  heat_capacity:     147.9096020
  energy:            109.0096315

- temperature:       730.0000000
  free_energy:      -152.6600350
  entropy:           360.4780789
  heat_capacity:     147.9562922
  energy:            110.4889626

- temperature:       740.0000000
  free_energy:      -156.2749049
  entropy:           362.4914271
  heat_capacity:     148.0011344
  energy:            111.9687512

- temperature:       750.0000000
  free_energy:      -159.9097754
  entropy:           364.4783398
  heat_capacity:     148.0442243
  energy:            113.4489794

- temperature:       760.0000000
  free_energy:      -163.5643858
  entropy:           366.4394947
  heat_capacity:     148.0856518
  energy:            114.9296301

- temperature:       770.0000000
  free_energy:      -167.2384816
  entropy:           368.3755439
  heat_capacity:     148.1255009
  energy:            116.4106872

- temperature:       780.0000000
  free_energy:      -170.9318151
  entropy:           370.2871157
  heat_capacity:     148.1638505
  energy:            117.8921352

- temperature:       790.0000000
  free_energy:      -174.6441444
  entropy:           372.1748150
  heat_capacity:     148.2007746
  energy:            119.3739595

- temperature:       800.0000000
  free_energy:      -178.3752338
  entropy:           374.0392249
  heat_capacity:     148.2363427
  energy:            120.8561461

- temperature:       810.0000000
  free_energy:      -182.1248531
  entropy:           375.8809076
  heat_capacity:     148.2706202
  energy:            122.3386820

- temperature:       820.0000000
  free_energy:      -185.8927780
  entropy:           377.7004054
  heat_capacity:     148.3036687
  energy:            123.8215544

- temperature:       830.0000000
  free_energy:      -189.6787890
  entropy:           379.4982416
  heat_capacity:     148.3355458
  energy:            125.3047515

- temperature:       840.0000000
  free_energy:      -193.4826723
  entropy:           381.2749213
  heat_capacity:     148.3663062
  energy:            126.7882616

- temperature:       850.0000000
  free_energy:      -197.3042186
  entropy:           383.0309325
  heat_capacity:     148.3960013
  energy:            128.2720740

- temperature:       860.0000000
  free_energy:      -201.1432236
  entropy:           384.7667464
  heat_capacity:     148.4246795
  energy:            129.7561783

- temperature:       870.0000000
  free_energy:      -204.9994877
  entropy:           386.4828185
  heat_capacity:     148.4523866
  energy:            131.2405644

- temperature:       880.0000000
  free_energy:      -208.8728156
  entropy:           388.1795893
  heat_capacity:     148.4791659
  energy:            132.7252229

- temperature:       890.0000000
  free_energy:      -212.7630166
  entropy:           389.8574846
  heat_capacity:     148.5050581
  energy:            134.2101448

- temperature:       900.0000000
  free_energy:      -216.6699038
  entropy:           391.5169167
  heat_capacity:     148.5301019
  energy:            135.6953213

- temperature:       910.0000000
  free_energy:      -220.5932947
  entropy:           393.1582844
  heat_capacity:     148.5543338
  energy:            137.1807441

- temperature:       920.0000000
  free_energy:      -224.5330105
  entropy:           394.7819738
  heat_capacity:     148.5777886
  energy:            138.6664053

- temperature:       930.0000000
  free_energy:      -228.4888765
  entropy:           396.3883590
  heat_capacity:     148.6004989
  energy:            140.1522974

- temperature:       940.0000000
  free_energy:      -232.4607213
  entropy:           397.9778023
  heat_capacity:     148.6224959
  energy:            141.6384129

- temperature:       950.0000000
  free_energy:      -236.4483772
  entropy:           399.5506550
  heat_capacity:     148.6438091
  energy:            143.1247450

- temperature:       960.0000000
  free_energy:      -240.4516802
  entropy:           401.1072574
  heat_capacity:     148.6644664
  energy:            144.6112869

- temperature:       970.0000000
  free_energy:      -244.4704693
  entropy:           402.6479398
  heat_capacity:     148.6844944
  energy:            146.0980323

- temperature:       980.0000000
  free_energy:      -248.5045870
  entropy:           404.1730222
  heat_capacity:     148.7039184
  energy:            147.5849748

- temperature:       990.0000000
  free_energy:      -252.5538788
  entropy:           405.6828156
  heat_capacity:     148.7227623
  energy:            149.0721087

- temperature:      1000.0000000
  free_energy:      -256.6181933
  entropy:           407.1776215
  heat_capacity:     148.7410490
  energy:            150.5594282
