# Thermal properties / unit cell (natom)

unit:
  temperature:   K
  free_energy:   kJ/mol
  entropy:       J/K/mol
  heat_capacity: J/K/mol

natom: 4    
cutoff_frequency: 0.00000
num_modes: 214272
num_integrated_modes: 214271

zero_point_energy:       6.9223687

thermal_properties:
- temperature:         0.0000000
  free_energy:         6.9223687
  entropy:             0.0000000
  heat_capacity:       0.0000000
  energy:              6.9223687

- temperature:        10.0000000
  free_energy:         6.9186123
  entropy:             1.5598889
  heat_capacity:       4.9710868
  energy:              6.9342112

- temperature:        20.0000000
  free_energy:         6.8631644
  entropy:            10.7873717
  heat_capacity:      24.8485900
  energy:              7.0789119

- temperature:        30.0000000
  free_energy:         6.6886714
  entropy:            24.3737358
  heat_capacity:      42.2244782
  energy:              7.4198835

- temperature:        40.0000000
  free_energy:         6.3752389
  entropy:            38.1969016
  heat_capacity:      53.6308218
  energy:              7.9031150

- temperature:        50.0000000
  free_energy:         5.9280391
  entropy:            51.0581759
  heat_capacity:      61.5249079
  energy:              8.4809479

- temperature:        60.0000000
  free_energy:         5.3577305
  entropy:            62.8286846
  heat_capacity:      67.5396015
  energy:              9.1274516

- temperature:        70.0000000
  free_energy:         4.6747437
  entropy:            73.6158883
  heat_capacity:      72.3773865
  energy:              9.8278559

- temperature:        80.0000000
  free_energy:         3.8882597
  entropy:            83.5482843
  heat_capacity:      76.3483047
  energy:             10.5721225

- temperature:        90.0000000
  free_energy:         3.0062571
  entropy:            92.7363087
  heat_capacity:      79.6286836
  energy:             11.3525249

- temperature:       100.0000000
  free_energy:         2.0357092
  entropy:           101.2711456
  heat_capacity:      82.3465691
  energy:             12.1628238

- temperature:       110.0000000
  free_energy:         0.9827568
  entropy:           109.2288284
  heat_capacity:      84.6053387
  energy:             12.9979279

- temperature:       120.0000000
  free_energy:        -0.1471590
  entropy:           116.6737062
  heat_capacity:      86.4901431
  energy:             13.8536857

- temperature:       130.0000000
  free_energy:        -1.3491924
  entropy:           123.6608487
  heat_capacity:      88.0706581
  energy:             14.7267179

- temperature:       140.0000000
  free_energy:        -2.6190092
  entropy:           130.2377369
  heat_capacity:      89.4033379
  energy:             15.6142740

- temperature:       150.0000000
  free_energy:        -3.9527174
  entropy:           136.4455225
  heat_capacity:      90.5336094
  energy:             16.5141110

- temperature:       160.0000000
  free_energy:        -5.3468092
  entropy:           142.3200181
  heat_capacity:      91.4979061
  energy:             17.4243937

- temperature:       170.0000000
  free_energy:        -6.7981115
  entropy:           147.8925020
  heat_capacity:      92.3254403
  energy:             18.3436139

- temperature:       180.0000000
  free_energy:        -8.3037443
  entropy:           153.1903868
  heat_capacity:      93.0396784
  energy:             19.2705254

- temperature:       190.0000000
  free_energy:        -9.8610846
  entropy:           158.2377778
  heat_capacity:      93.6595339
  energy:             20.2040932

- temperature:       200.0000000
  free_energy:       -11.4677360
  entropy:           163.0559439
  heat_capacity:      94.2003165
  energy:             21.1434528

- temperature:       210.0000000
  free_energy:       -13.1215024
  entropy:           167.6637147
  heat_capacity:      94.6744799
  energy:             22.0878777

- temperature:       220.0000000
  free_energy:       -14.8203649
  entropy:           172.0778154
  heat_capacity:      95.0922073
  energy:             23.0367545

- temperature:       230.0000000
  free_energy:       -16.5624630
  entropy:           176.3131512
  heat_capacity:      95.4618700
  energy:             23.9895618

- temperature:       240.0000000
  free_energy:       -18.3460766
  entropy:           180.3830478
  heat_capacity:      95.7903874
  energy:             24.9458548

- temperature:       250.0000000
  free_energy:       -20.1696124
  entropy:           184.2994564
  heat_capacity:      96.0835094
  energy:             25.9052517

- temperature:       260.0000000
  free_energy:       -22.0315901
  entropy:           188.0731278
  heat_capacity:      96.3460389
  energy:             26.8674231

- temperature:       270.0000000
  free_energy:       -23.9306316
  entropy:           191.7137616
  heat_capacity:      96.5820086
  energy:             27.8320840

- temperature:       280.0000000
  free_energy:       -25.8654512
  entropy:           195.2301335
  heat_capacity:      96.7948207
  energy:             28.7989862

- temperature:       290.0000000
  free_energy:       -27.8348467
  entropy:           198.6302055
  heat_capacity:      96.9873597
  energy:             29.7679129

- temperature:       300.0000000
  free_energy:       -29.8376919
  entropy:           201.9212196
  heat_capacity:      97.1620819
  energy:             30.7386740

- temperature:       310.0000000
  free_energy:       -31.8729297
  entropy:           205.1097801
  heat_capacity:      97.3210884
  energy:             31.7111022

- temperature:       320.0000000
  free_energy:       -33.9395661
  entropy:           208.2019237
  heat_capacity:      97.4661840
  energy:             32.6850494

- temperature:       330.0000000
  free_energy:       -36.0366652
  entropy:           211.2031815
  heat_capacity:      97.5989249
  energy:             33.6603847

- temperature:       340.0000000
  free_energy:       -38.1633438
  entropy:           214.1186325
  heat_capacity:      97.7206586
  energy:             34.6369913

- temperature:       350.0000000
  free_energy:       -40.3187675
  entropy:           216.9529502
  heat_capacity:      97.8325559
  energy:             35.6147651

- temperature:       360.0000000
  free_energy:       -42.5021468
  entropy:           219.7104438
  heat_capacity:      97.9356376
  energy:             36.5936130

- temperature:       370.0000000
  free_energy:       -44.7127336
  entropy:           222.3950946
  heat_capacity:      98.0307968
  energy:             37.5734514

- temperature:       380.0000000
  free_energy:       -46.9498181
  entropy:           225.0105877
  heat_capacity:      98.1188176
  energy:             38.5542052

- temperature:       390.0000000
  free_energy:       -49.2127262
  entropy:           227.5603398
  heat_capacity:      98.2003901
  energy:             39.5358063

- temperature:       400.0000000
  free_energy:       -51.5008164
  entropy:           230.0475248
  heat_capacity:      98.2761239
  energy:             40.5181935

- temperature:       410.0000000
  free_energy:       -53.8134780
  entropy:           232.4750955
  heat_capacity:      98.3465588
  energy:             41.5013111

- temperature:       420.0000000
  free_energy:       -56.1501288
  entropy:           234.8458034
  heat_capacity:      98.4121740
  energy:             42.4851086

- temperature:       430.0000000
  free_energy:       -58.5102131
  entropy:           237.1622165
  heat_capacity:      98.4733963
  energy:             43.4695400

- temperature:       440.0000000
  free_energy:       -60.8932002
  entropy:           239.4267349
  heat_capacity:      98.5306065
  energy:             44.4545632

- temperature:       450.0000000
  free_energy:       -63.2985823
  entropy:           241.6416049
  heat_capacity:      98.5841454
  energy:             45.4401399

- temperature:       460.0000000
  free_energy:       -65.7258738
  entropy:           243.8089319
  heat_capacity:      98.6343185
  energy:             46.4262349

- temperature:       470.0000000
  free_energy:       -68.1746091
  entropy:           245.9306916
  heat_capacity:      98.6814005
  energy:             47.4128159

- temperature:       480.0000000
  free_energy:       -70.6443419
  entropy:           248.0087403
  heat_capacity:      98.7256386
  energy:             48.3998534

- temperature:       490.0000000
  free_energy:       -73.1346440
  entropy:           250.0448245
  heat_capacity:      98.7672561
  energy:             49.3873200

- temperature:       500.0000000
  free_energy:       -75.6451040
  entropy:           252.0405890
  heat_capacity:      98.8064550
  energy:             50.3751905

- temperature:       510.0000000
  free_energy:       -78.1753266
  entropy:           253.9975848
  heat_capacity:      98.8434179
  energy:             51.3634416

- temperature:       520.0000000
  free_energy:       -80.7249314
  entropy:           255.9172756
  heat_capacity:      98.8783111
  energy:             52.3520519

- temperature:       530.0000000
  free_energy:       -83.2935524
  entropy:           257.8010450
  heat_capacity:      98.9112855
  energy:             53.3410015

- temperature:       540.0000000
  free_energy:       -85.8808369
  entropy:           259.6502012
  heat_capacity:      98.9424785
  energy:             54.3302717

- temperature:       550.0000000
  free_energy:       -88.4864452
  entropy:           261.4659830
  heat_capacity:      98.9720157
  energy:             55.3198455

- temperature:       560.0000000
  free_energy:       -91.1100493
  entropy:           263.2495645
  heat_capacity:      99.0000117
  energy:             56.3097069

- temperature:       570.0000000
  free_energy:       -93.7513328
  entropy:           265.0020593
  heat_capacity:      99.0265714
  energy:             57.2998410

- temperature:       580.0000000
  free_energy:       -96.4099904
  entropy:           266.7245245
  heat_capacity:      99.0517911
  energy:             58.2902338

- temperature:       590.0000000
  free_energy:       -99.0857266
  entropy:           268.4179647
  heat_capacity:      99.0757591
  energy:             59.2808726

- temperature:       600.0000000
  free_energy:      -101.7782561
  entropy:           270.0833354
  heat_capacity:      99.0985565
  energy:             60.2717451

- temperature:       610.0000000
  free_energy:      -104.4873028
  entropy:           271.7215456
  heat_capacity:      99.1202581
  energy:             61.2628401

- temperature:       620.0000000
  free_energy:      -107.2125994
  entropy:           273.3334617
  heat_capacity:      99.1409327
  energy:             62.2541469

- temperature:       630.0000000
  free_energy:      -109.9538871
  entropy:           274.9199089
  heat_capacity:      99.1606440
  energy:             63.2456555

- temperature:       640.0000000
  free_energy:      -112.7109153
  entropy:           276.4816750
  heat_capacity:      99.1794506
  energy:             64.2373567

- temperature:       650.0000000
  free_energy:      -115.4834408
  entropy:           278.0195116
  heat_capacity:      99.1974069
  energy:             65.2292417

- temperature:       660.0000000
  free_energy:      -118.2712281
  entropy:           279.5341369
  heat_capacity:      99.2145633
  energy:             66.2213022

- temperature:       670.0000000
  free_energy:      -121.0740485
  entropy:           281.0262372
  heat_capacity:      99.2309664
  energy:             67.2135305

- temperature:       680.0000000
  free_energy:      -123.8916800
  entropy:           282.4964693
  heat_capacity:      99.2466596
  energy:             68.2059192

- temperature:       690.0000000
  free_energy:      -126.7239071
  entropy:           283.9454616
  heat_capacity:      99.2616831
  energy:             69.1984614

- temperature:       700.0000000
  free_energy:      -129.5705204
  entropy:           285.3738159
  heat_capacity:      99.2760745
  energy:             70.1911507

- temperature:       710.0000000
  free_energy:      -132.4313165
  entropy:           286.7821091
  heat_capacity:      99.2898685
  energy:             71.1839809

- temperature:       720.0000000
  free_energy:      -135.3060976
  entropy:           288.1708942
  heat_capacity:      99.3030977
  energy:             72.1769462

- temperature:       730.0000000
  free_energy:      -138.1946712
  entropy:           289.5407017
  heat_capacity:      99.3157924
  energy:             73.1700411

- temperature:       740.0000000
  free_energy:      -141.0968501
  entropy:           290.8920411
  heat_capacity:      99.3279811
  energy:             74.1632604

- temperature:       750.0000000
  free_energy:      -144.0124521
  entropy:           292.2254016
  heat_capacity:      99.3396901
  energy:             75.1565991

- temperature:       760.0000000
  free_energy:      -146.9412997
  entropy:           293.5412531
  heat_capacity:      99.3509442
  energy:             76.1500527

- temperature:       770.0000000
  free_energy:      -149.8832203
  entropy:           294.8400478
  heat_capacity:      99.3617667
  energy:             77.1436166

- temperature:       780.0000000
  free_energy:      -152.8380453
  entropy:           296.1222204
  heat_capacity:      99.3721794
  energy:             78.1372866

- temperature:       790.0000000
  free_energy:      -155.8056107
  entropy:           297.3881893
  heat_capacity:      99.3822025
  energy:             79.1310588

- temperature:       800.0000000
  free_energy:      -158.7857564
  entropy:           298.6383573
  heat_capacity:      99.3918552
  energy:             80.1249294

- temperature:       810.0000000
  free_energy:      -161.7783264
  entropy:           299.8731126
  heat_capacity:      99.4011556
  energy:             81.1188948

- temperature:       820.0000000
  free_energy:      -164.7831685
  entropy:           301.0928292
  heat_capacity:      99.4101206
  energy:             82.1129514

- temperature:       830.0000000
  free_energy:      -167.8001341
  entropy:           302.2978677
  heat_capacity:      99.4187660
  energy:             83.1070961

- temperature:       840.0000000
  free_energy:      -170.8290781
  entropy:           303.4885760
  heat_capacity:      99.4271068
  energy:             84.1013257

- temperature:       850.0000000
  free_energy:      -173.8698590
  entropy:           304.6652897
  heat_capacity:      99.4351571
  energy:             85.0956373

- temperature:       860.0000000
  free_energy:      -176.9223383
  entropy:           305.8283329
  heat_capacity:      99.4429303
  energy:             86.0900280

- temperature:       870.0000000
  free_energy:      -179.9863811
  entropy:           306.9780185
  heat_capacity:      99.4504390
  energy:             87.0844950

- temperature:       880.0000000
  free_energy:      -183.0618552
  entropy:           308.1146490
  heat_capacity:      99.4576949
  energy:             88.0790359

- temperature:       890.0000000
  free_energy:      -186.1486315
  entropy:           309.2385165
  heat_capacity:      99.4647092
  energy:             89.0736481

- temperature:       900.0000000
  free_energy:      -189.2465839
  entropy:           310.3499036
  heat_capacity:      99.4714926
  energy:             90.0683293

- temperature:       910.0000000
  free_energy:      -192.3555889
  entropy:           311.4490837
  heat_capacity:      99.4780550
  energy:             91.0630772

- temperature:       920.0000000
  free_energy:      -195.4755258
  entropy:           312.5363212
  heat_capacity:      99.4844060
  energy:             92.0578897

- temperature:       930.0000000
  free_energy:      -198.6062764
  entropy:           313.6118721
  heat_capacity:      99.4905545
  energy:             93.0527647

- temperature:       940.0000000
  free_energy:      -201.7477251
  entropy:           314.6759843
  heat_capacity:      99.4965090
  energy:             94.0477001

- temperature:       950.0000000
  free_energy:      -204.8997587
  entropy:           315.7288979
  heat_capacity:      99.5022776
  energy:             95.0426942

- temperature:       960.0000000
  free_energy:      -208.0622665
  entropy:           316.7708454
  heat_capacity:      99.5078679
  energy:             96.0377451

- temperature:       970.0000000
  free_energy:      -211.2351399
  entropy:           317.8020524
  heat_capacity:      99.5132872
  energy:             97.0328510

- temperature:       980.0000000
  free_energy:      -214.4182725
  entropy:           318.8227375
  heat_capacity:      99.5185423
  energy:             98.0280103

- temperature:       990.0000000
  free_energy:      -217.6115602
  entropy:           319.8331127
  heat_capacity:      99.5236399
  energy:             99.0232213

- temperature:      1000.0000000
  free_energy:      -220.8149011
  entropy:           320.8333837
  heat_capacity:      99.5285862
  energy:            100.0184826
