# Thermal properties / unit cell (natom)

unit:
  temperature:   K
  free_energy:   kJ/mol
  entropy:       J/K/mol
  heat_capacity: J/K/mol

natom: 14   
cutoff_frequency: 0.00000
num_modes: 166698
num_integrated_modes: 166697

zero_point_energy:      56.1696105

thermal_properties:
- temperature:         0.0000000
  free_energy:        56.1696105
  entropy:             0.0000000
  heat_capacity:       0.0000000
  energy:             56.1696105

- temperature:        10.0000000
  free_energy:        56.1672199
  entropy:             0.8057484
  heat_capacity:       2.4632157
  energy:             56.1752773

- temperature:        20.0000000
  free_energy:        56.1359483
  entropy:             6.5473516
  heat_capacity:      17.7981707
  energy:             56.2668953

- temperature:        30.0000000
  free_energy:        56.0182977
  entropy:            17.6168350
  heat_capacity:      38.1859094
  energy:             56.5468028

- temperature:        40.0000000
  free_energy:        55.7751836
  entropy:            31.2740453
  heat_capacity:      57.4441108
  energy:             57.0261454

- temperature:        50.0000000
  free_energy:        55.3890990
  entropy:            46.0777155
  heat_capacity:      75.8932106
  energy:             57.6929848

- temperature:        60.0000000
  free_energy:        54.8514131
  entropy:            61.5550320
  heat_capacity:      94.5217989
  energy:             58.5447150

- temperature:        70.0000000
  free_energy:        54.1562804
  entropy:            77.5485473
  heat_capacity:     113.5094242
  energy:             59.5846787

- temperature:        80.0000000
  free_energy:        53.2990889
  entropy:            93.9472900
  heat_capacity:     132.4837175
  energy:             60.8148721

- temperature:        90.0000000
  free_energy:        52.2764063
  entropy:           110.6241290
  heat_capacity:     150.9288858
  energy:             62.2325779

- temperature:       100.0000000
  free_energy:        51.0861407
  entropy:           127.4408666
  heat_capacity:     168.4127613
  energy:             63.8302273

- temperature:       110.0000000
  free_energy:        49.7275672
  entropy:           144.2647237
  heat_capacity:     184.6576779
  energy:             65.5966868

- temperature:       120.0000000
  free_energy:        48.2012110
  entropy:           160.9798913
  heat_capacity:     199.5313392
  energy:             67.5187979

- temperature:       130.0000000
  free_energy:        46.5086475
  entropy:           177.4923840
  heat_capacity:     213.0104662
  energy:             69.5826574

- temperature:       140.0000000
  free_energy:        44.6522810
  entropy:           193.7302351
  heat_capacity:     225.1429056
  energy:             71.7745139

- temperature:       150.0000000
  free_energy:        42.6351341
  entropy:           209.6412397
  heat_capacity:     236.0173330
  energy:             74.0813201

- temperature:       160.0000000
  free_energy:        40.4606659
  entropy:           225.1897581
  heat_capacity:     245.7419370
  energy:             76.4910272

- temperature:       170.0000000
  free_energy:        38.1326229
  entropy:           240.3534309
  heat_capacity:     254.4306472
  energy:             78.9927061

- temperature:       180.0000000
  free_energy:        35.6549211
  entropy:           255.1202125
  heat_capacity:     262.1948816
  energy:             81.5765594

- temperature:       190.0000000
  free_energy:        33.0315564
  entropy:           269.4858674
  heat_capacity:     269.1390249
  energy:             84.2338712

- temperature:       200.0000000
  free_energy:        30.2665362
  entropy:           283.4519428
  heat_capacity:     275.3582959
  energy:             86.9569248

- temperature:       210.0000000
  free_energy:        27.3638307
  entropy:           297.0241708
  heat_capacity:     280.9380695
  energy:             89.7389065

- temperature:       220.0000000
  free_energy:        24.3273369
  entropy:           310.2112315
  heat_capacity:     285.9540391
  energy:             92.5738078

- temperature:       230.0000000
  free_energy:        21.1608544
  entropy:           323.0238109
  heat_capacity:     290.4728271
  energy:             95.4563309

- temperature:       240.0000000
  free_energy:        17.8680691
  entropy:           335.4738891
  heat_capacity:     294.5528055
  energy:             98.3818025

- temperature:       250.0000000
  free_energy:        14.4525426
  entropy:           347.5742102
  heat_capacity:     298.2449811
  energy:            101.3460951

- temperature:       260.0000000
  free_energy:        10.9177070
  entropy:           359.3378900
  heat_capacity:     301.5938676
  energy:            104.3455584

- temperature:       270.0000000
  free_energy:         7.2668629
  entropy:           370.7781307
  heat_capacity:     304.6382997
  energy:            107.3769581

- temperature:       280.0000000
  free_energy:         3.5031789
  entropy:           381.9080147
  heat_capacity:     307.4121718
  energy:            110.4374230

- temperature:       290.0000000
  free_energy:        -0.3703057
  entropy:           392.7403603
  heat_capacity:     309.9450940
  energy:            113.5243988

- temperature:       300.0000000
  free_energy:        -4.3506781
  entropy:           403.2876217
  heat_capacity:     312.2629675
  energy:            116.6356084

- temperature:       310.0000000
  free_energy:        -8.4351480
  entropy:           413.5618234
  heat_capacity:     314.3884856
  energy:            119.7690173

- temperature:       320.0000000
  free_energy:       -12.6210429
  entropy:           423.5745204
  heat_capacity:     316.3415664
  energy:            122.9228036

- temperature:       330.0000000
  free_energy:       -16.9058036
  entropy:           433.3367760
  heat_capacity:     318.1397259
  energy:            126.0953325

- temperature:       340.0000000
  free_energy:       -21.2869789
  entropy:           442.8591538
  heat_capacity:     319.7983992
  energy:            129.2851334

- temperature:       350.0000000
  free_energy:       -25.7622207
  entropy:           452.1517194
  heat_capacity:     321.3312155
  energy:            132.4908811

- temperature:       360.0000000
  free_energy:       -30.3292792
  entropy:           461.2240493
  heat_capacity:     322.7502350
  energy:            135.7113785

- temperature:       370.0000000
  free_energy:       -34.9859980
  entropy:           470.0852438
  heat_capacity:     324.0661525
  energy:            138.9455422

- temperature:       380.0000000
  free_energy:       -39.7303092
  entropy:           478.7439443
  heat_capacity:     325.2884714
  energy:            142.1923897

- temperature:       390.0000000
  free_energy:       -44.5602292
  entropy:           487.2083519
  heat_capacity:     326.4256547
  energy:            145.4510280

- temperature:       400.0000000
  free_energy:       -49.4738545
  entropy:           495.4862470
  heat_capacity:     327.4852544
  energy:            148.7206443

- temperature:       410.0000000
  free_energy:       -54.4693571
  entropy:           503.5850102
  heat_capacity:     328.4740230
  energy:            152.0004971

- temperature:       420.0000000
  free_energy:       -59.5449810
  entropy:           511.5116425
  heat_capacity:     329.3980109
  energy:            155.2899089

- temperature:       430.0000000
  free_energy:       -64.6990384
  entropy:           519.2727858
  heat_capacity:     330.2626494
  energy:            158.5882595

- temperature:       440.0000000
  free_energy:       -69.9299061
  entropy:           526.8747420
  heat_capacity:     331.0728236
  energy:            161.8949803

- temperature:       450.0000000
  free_energy:       -75.2360226
  entropy:           534.3234927
  heat_capacity:     331.8329358
  energy:            165.2095491

- temperature:       460.0000000
  free_energy:       -80.6158843
  entropy:           541.6247168
  heat_capacity:     332.5469603
  energy:            168.5314855

- temperature:       470.0000000
  free_energy:       -86.0680432
  entropy:           548.7838083
  heat_capacity:     333.2184913
  energy:            171.8603467

- temperature:       480.0000000
  free_energy:       -91.5911038
  entropy:           555.8058923
  heat_capacity:     333.8507851
  energy:            175.1957245

- temperature:       490.0000000
  free_energy:       -97.1837206
  entropy:           562.6958411
  heat_capacity:     334.4467968
  energy:            178.5372415

- temperature:       500.0000000
  free_energy:      -102.8445956
  entropy:           569.4582883
  heat_capacity:     335.0092124
  energy:            181.8845485

- temperature:       510.0000000
  free_energy:      -108.5724761
  entropy:           576.0976432
  heat_capacity:     335.5404776
  energy:            185.2373220

- temperature:       520.0000000
  free_energy:      -114.3661522
  entropy:           582.6181036
  heat_capacity:     336.0428224
  energy:            188.5952617

- temperature:       530.0000000
  free_energy:      -120.2244552
  entropy:           589.0236679
  heat_capacity:     336.5182832
  energy:            191.9580888

- temperature:       540.0000000
  free_energy:      -126.1462553
  entropy:           595.3181468
  heat_capacity:     336.9687226
  energy:            195.3255440

- temperature:       550.0000000
  free_energy:      -132.1304599
  entropy:           601.5051737
  heat_capacity:     337.3958466
  energy:            198.6973856

- temperature:       560.0000000
  free_energy:      -138.1760121
  entropy:           607.5882153
  heat_capacity:     337.8012199
  energy:            202.0733884

- temperature:       570.0000000
  free_energy:      -144.2818887
  entropy:           613.5705806
  heat_capacity:     338.1862793
  energy:            205.4533423

- temperature:       580.0000000
  free_energy:      -150.4470987
  entropy:           619.4554300
  heat_capacity:     338.5523466
  energy:            208.8370507

- temperature:       590.0000000
  free_energy:      -156.6706823
  entropy:           625.2457835
  heat_capacity:     338.9006384
  energy:            212.2243300

- temperature:       600.0000000
  free_energy:      -162.9517090
  entropy:           630.9445284
  heat_capacity:     339.2322766
  energy:            215.6150080

- temperature:       610.0000000
  free_energy:      -169.2892767
  entropy:           636.5544265
  heat_capacity:     339.5482970
  energy:            219.0089234

- temperature:       620.0000000
  free_energy:      -175.6825102
  entropy:           642.0781214
  heat_capacity:     339.8496564
  energy:            222.4059251

- temperature:       630.0000000
  free_energy:      -182.1305603
  entropy:           647.5181443
  heat_capacity:     340.1372404
  energy:            225.8058707

- temperature:       640.0000000
  free_energy:      -188.6326023
  entropy:           652.8769203
  heat_capacity:     340.4118692
  energy:            229.2086267

- temperature:       650.0000000
  free_energy:      -195.1878356
  entropy:           658.1567739
  heat_capacity:     340.6743033
  energy:            232.6140674

- temperature:       660.0000000
  free_energy:      -201.7954822
  entropy:           663.3599343
  heat_capacity:     340.9252487
  energy:            236.0220745

- temperature:       670.0000000
  free_energy:      -208.4547858
  entropy:           668.4885404
  heat_capacity:     341.1653615
  energy:            239.4325363

- temperature:       680.0000000
  free_energy:      -215.1650113
  entropy:           673.5446455
  heat_capacity:     341.3952518
  energy:            242.8453476

- temperature:       690.0000000
  free_energy:      -221.9254436
  entropy:           678.5302214
  heat_capacity:     341.6154878
  energy:            246.2604091

- temperature:       700.0000000
  free_energy:      -228.7353870
  entropy:           683.4471627
  heat_capacity:     341.8265990
  energy:            249.6776270

- temperature:       710.0000000
  free_energy:      -235.5941642
  entropy:           688.2972909
  heat_capacity:     342.0290793
  energy:            253.0969123

- temperature:       720.0000000
  free_energy:      -242.5011159
  entropy:           693.0823573
  heat_capacity:     342.2233899
  energy:            256.5181813

- temperature:       730.0000000
  free_energy:      -249.4556001
  entropy:           697.8040471
  heat_capacity:     342.4099617
  energy:            259.9413544

- temperature:       740.0000000
  free_energy:      -256.4569910
  entropy:           702.4639826
  heat_capacity:     342.5891979
  energy:            263.3663561

- temperature:       750.0000000
  free_energy:      -263.5046791
  entropy:           707.0637256
  heat_capacity:     342.7614758
  energy:            266.7931151

- temperature:       760.0000000
  free_energy:      -270.5980699
  entropy:           711.6047809
  heat_capacity:     342.9271489
  energy:            270.2215636

- temperature:       770.0000000
  free_energy:      -277.7365839
  entropy:           716.0885988
  heat_capacity:     343.0865487
  energy:            273.6516372

- temperature:       780.0000000
  free_energy:      -284.9196558
  entropy:           720.5165775
  heat_capacity:     343.2399863
  energy:            277.0832747

- temperature:       790.0000000
  free_energy:      -292.1467338
  entropy:           724.8900656
  heat_capacity:     343.3877538
  energy:            280.5164180

- temperature:       800.0000000
  free_energy:      -299.4172798
  entropy:           729.2103645
  heat_capacity:     343.5301258
  energy:            283.9510118

- temperature:       810.0000000
  free_energy:      -306.7307680
  entropy:           733.4787302
  heat_capacity:     343.6673605
  energy:            287.3870034

- temperature:       820.0000000
  free_energy:      -314.0866853
  entropy:           737.6963756
  heat_capacity:     343.7997009
  energy:            290.8243427

- temperature:       830.0000000
  free_energy:      -321.4845304
  entropy:           741.8644726
  heat_capacity:     343.9273760
  energy:            294.2629819

- temperature:       840.0000000
  free_energy:      -328.9238134
  entropy:           745.9841533
  heat_capacity:     344.0506013
  energy:            297.7028754

- temperature:       850.0000000
  free_energy:      -336.4040557
  entropy:           750.0565123
  heat_capacity:     344.1695805
  energy:            301.1439798

- temperature:       860.0000000
  free_energy:      -343.9247894
  entropy:           754.0826080
  heat_capacity:     344.2845054
  energy:            304.5862535

- temperature:       870.0000000
  free_energy:      -351.4855571
  entropy:           758.0634644
  heat_capacity:     344.3955575
  energy:            308.0296570

- temperature:       880.0000000
  free_energy:      -359.0859112
  entropy:           762.0000722
  heat_capacity:     344.5029081
  energy:            311.4741523

- temperature:       890.0000000
  free_energy:      -366.7254142
  entropy:           765.8933905
  heat_capacity:     344.6067193
  energy:            314.9197033

- temperature:       900.0000000
  free_energy:      -374.4036378
  entropy:           769.7443480
  heat_capacity:     344.7071442
  energy:            318.3662754

- temperature:       910.0000000
  free_energy:      -382.1201630
  entropy:           773.5538444
  heat_capacity:     344.8043280
  energy:            321.8138354

- temperature:       920.0000000
  free_energy:      -389.8745794
  entropy:           777.3227511
  heat_capacity:     344.8984082
  energy:            325.2623516

- temperature:       930.0000000
  free_energy:      -397.6664855
  entropy:           781.0519131
  heat_capacity:     344.9895150
  energy:            328.7117937

- temperature:       940.0000000
  free_energy:      -405.4954879
  entropy:           784.7421493
  heat_capacity:     345.0777720
  energy:            332.1621324

- temperature:       950.0000000
  free_energy:      -413.3612014
  entropy:           788.3942541
  heat_capacity:     345.1632963
  energy:            335.6133400

- temperature:       960.0000000
  free_energy:      -421.2632485
  entropy:           792.0089980
  heat_capacity:     345.2461993
  energy:            339.0653896

- temperature:       970.0000000
  free_energy:      -429.2012593
  entropy:           795.5871288
  heat_capacity:     345.3265865
  energy:            342.5182556

- temperature:       980.0000000
  free_energy:      -437.1748714
  entropy:           799.1293722
  heat_capacity:     345.4045585
  energy:            345.9719133

- temperature:       990.0000000
  free_energy:      -445.1837295
  entropy:           802.6364328
  heat_capacity:     345.4802106
  energy:            349.4263390

- temperature:      1000.0000000
  free_energy:      -453.2274851
  entropy:           806.1089952
  heat_capacity:     345.5536338
  energy:            352.8815101
