# Thermal properties / unit cell (natom)

unit:
  temperature:   K
  free_energy:   kJ/mol
  entropy:       J/K/mol
  heat_capacity: J/K/mol

natom: 18   
cutoff_frequency: 0.00000
num_modes: 219024
num_integrated_modes: 219022

zero_point_energy:      74.5615181

thermal_properties:
- temperature:         0.0000000
  free_energy:        74.5615181
  entropy:             0.0000000
  heat_capacity:       0.0000000
  energy:             74.5615181

- temperature:        10.0000000
  free_energy:        74.5602832
  entropy:             0.4610178
  heat_capacity:       1.6426007
  energy:             74.5648934

- temperature:        20.0000000
  free_energy:        74.5344459
  entropy:             6.2439688
  heat_capacity:      20.9568399
  energy:             74.6593253

- temperature:        30.0000000
  free_energy:        74.4074805
  entropy:            20.1236976
  heat_capacity:      49.1101502
  energy:             75.0111914

- temperature:        40.0000000
  free_energy:        74.1199190
  entropy:            37.7375553
  heat_capacity:      74.0291673
  energy:             75.6294212

- temperature:        50.0000000
  free_energy:        73.6482104
  entropy:            56.7576310
  heat_capacity:      97.2024384
  energy:             76.4860920

- temperature:        60.0000000
  free_energy:        72.9823411
  entropy:            76.5176255
  heat_capacity:     120.3072902
  energy:             77.5733986

- temperature:        70.0000000
  free_energy:        72.1160659
  entropy:            96.8167742
  heat_capacity:     143.6913586
  energy:             78.8932401

- temperature:        80.0000000
  free_energy:        71.0446216
  entropy:           117.5305322
  heat_capacity:     167.0214753
  energy:             80.4470642

- temperature:        90.0000000
  free_energy:        69.7645198
  entropy:           138.5245241
  heat_capacity:     189.7711644
  energy:             82.2317269

- temperature:       100.0000000
  free_energy:        68.2736841
  entropy:           159.6527434
  heat_capacity:     211.4672446
  energy:             84.2389585

- temperature:       110.0000000
  free_energy:        66.5714957
  entropy:           180.7722533
  heat_capacity:     231.7799644
  energy:             86.4564435

- temperature:       120.0000000
  free_energy:        64.6586963
  entropy:           201.7553083
  heat_capacity:     250.5294334
  energy:             88.8693333

- temperature:       130.0000000
  free_energy:        62.5372016
  entropy:           222.4955083
  heat_capacity:     267.6573741
  energy:             91.4616177

- temperature:       140.0000000
  free_energy:        60.2098770
  entropy:           242.9091717
  heat_capacity:     283.1911433
  energy:             94.2171611

- temperature:       150.0000000
  free_energy:        57.6803168
  entropy:           262.9338466
  heat_capacity:     297.2118520
  energy:             97.1203938

- temperature:       160.0000000
  free_energy:        54.9526452
  entropy:           282.5254795
  heat_capacity:     309.8301205
  energy:            100.1567220

- temperature:       170.0000000
  free_energy:        52.0313483
  entropy:           301.6552004
  heat_capacity:     321.1692693
  energy:            103.3127324

- temperature:       180.0000000
  free_energy:        48.9211379
  entropy:           320.3062420
  heat_capacity:     331.3544739
  energy:            106.5762614

- temperature:       190.0000000
  free_energy:        45.6268444
  entropy:           338.4712294
  heat_capacity:     340.5062513
  energy:            109.9363780

- temperature:       200.0000000
  free_energy:        42.1533349
  entropy:           356.1499113
  heat_capacity:     348.7369016
  energy:            113.3833171

- temperature:       210.0000000
  free_energy:        38.5054509
  entropy:           373.3473210
  heat_capacity:     356.1488697
  energy:            116.9083883

- temperature:       220.0000000
  free_energy:        34.6879635
  entropy:           390.0723200
  heat_capacity:     362.8342978
  energy:            120.5038738

- temperature:       230.0000000
  free_energy:        30.7055409
  entropy:           406.3364620
  heat_capacity:     368.8752809
  energy:            124.1629271

- temperature:       240.0000000
  free_energy:        26.5627260
  entropy:           422.1531191
  heat_capacity:     374.3445036
  energy:            127.8794746

- temperature:       250.0000000
  free_energy:        22.2639217
  entropy:           437.5368163
  heat_capacity:     379.3060599
  energy:            131.6481258

- temperature:       260.0000000
  free_energy:        17.8133823
  entropy:           452.5027306
  heat_capacity:     383.8163313
  energy:            135.4640922

- temperature:       270.0000000
  free_energy:        13.2152082
  entropy:           467.0663176
  heat_capacity:     387.9248534
  energy:            139.3231140

- temperature:       280.0000000
  free_energy:         8.4733455
  entropy:           481.2430367
  heat_capacity:     391.6751299
  energy:            143.2213957

- temperature:       290.0000000
  free_energy:         3.5915861
  entropy:           495.0481524
  heat_capacity:     395.1053780
  energy:            147.1555503

- temperature:       300.0000000
  free_energy:        -1.4264287
  entropy:           508.4965923
  heat_capacity:     398.2491950
  energy:            151.1225490

- temperature:       310.0000000
  free_energy:        -6.5772052
  entropy:           521.6028502
  heat_capacity:     401.1361494
  energy:            155.1196784

- temperature:       320.0000000
  free_energy:       -11.8573918
  entropy:           534.3809212
  heat_capacity:     403.7922995
  energy:            159.1445029

- temperature:       330.0000000
  free_energy:       -17.2637746
  entropy:           546.8442623
  heat_capacity:     406.2406457
  energy:            163.1948320

- temperature:       340.0000000
  free_energy:       -22.7932710
  entropy:           559.0057713
  heat_capacity:     408.5015235
  energy:            167.2686912

- temperature:       350.0000000
  free_energy:       -28.4429250
  entropy:           570.8777796
  heat_capacity:     410.5929448
  energy:            171.3642978

- temperature:       360.0000000
  free_energy:       -34.2099009
  entropy:           582.4720546
  heat_capacity:     412.5308924
  energy:            175.4800387

- temperature:       370.0000000
  free_energy:       -40.0914778
  entropy:           593.7998093
  heat_capacity:     414.3295760
  energy:            179.6144516

- temperature:       380.0000000
  free_energy:       -46.0850443
  entropy:           604.8717177
  heat_capacity:     416.0016523
  energy:            183.7662084

- temperature:       390.0000000
  free_energy:       -52.1880932
  entropy:           615.6979325
  heat_capacity:     417.5584172
  energy:            187.9341004

- temperature:       400.0000000
  free_energy:       -58.3982162
  entropy:           626.2881059
  heat_capacity:     419.0099707
  energy:            192.1170261

- temperature:       410.0000000
  free_energy:       -64.7130992
  entropy:           636.6514112
  heat_capacity:     420.3653609
  energy:            196.3139794

- temperature:       420.0000000
  free_energy:       -71.1305173
  entropy:           646.7965650
  heat_capacity:     421.6327083
  energy:            200.5240400

- temperature:       430.0000000
  free_energy:       -77.6483310
  entropy:           656.7318500
  heat_capacity:     422.8193151
  energy:            204.7463645

- temperature:       440.0000000
  free_energy:       -84.2644810
  entropy:           666.4651368
  heat_capacity:     423.9317587
  energy:            208.9801791

- temperature:       450.0000000
  free_energy:       -90.9769853
  entropy:           676.0039060
  heat_capacity:     424.9759748
  energy:            213.2247723

- temperature:       460.0000000
  free_energy:       -97.7839345
  entropy:           685.3552688
  heat_capacity:     425.9573287
  energy:            217.4794891

- temperature:       470.0000000
  free_energy:      -104.6834886
  entropy:           694.5259877
  heat_capacity:     426.8806790
  energy:            221.7437256

- temperature:       480.0000000
  free_energy:      -111.6738736
  entropy:           703.5224952
  heat_capacity:     427.7504322
  energy:            226.0169241

- temperature:       490.0000000
  free_energy:      -118.7533782
  entropy:           712.3509127
  heat_capacity:     428.5705917
  energy:            230.2985690

- temperature:       500.0000000
  free_energy:      -125.9203510
  entropy:           721.0170676
  heat_capacity:     429.3448001
  energy:            234.5881828

- temperature:       510.0000000
  free_energy:      -133.1731972
  entropy:           729.5265101
  heat_capacity:     430.0763768
  energy:            238.8853229

- temperature:       520.0000000
  free_energy:      -140.5103765
  entropy:           737.8845286
  heat_capacity:     430.7683517
  energy:            243.1895784

- temperature:       530.0000000
  free_energy:      -147.9303999
  entropy:           746.0961644
  heat_capacity:     431.4234938
  energy:            247.5005672

- temperature:       540.0000000
  free_energy:      -155.4318279
  entropy:           754.1662256
  heat_capacity:     432.0443378
  energy:            251.8179339

- temperature:       550.0000000
  free_energy:      -163.0132678
  entropy:           762.0993004
  heat_capacity:     432.6332070
  energy:            256.1413474

- temperature:       560.0000000
  free_energy:      -170.6733719
  entropy:           769.8997688
  heat_capacity:     433.1922336
  energy:            260.4704986

- temperature:       570.0000000
  free_energy:      -178.4108351
  entropy:           777.5718145
  heat_capacity:     433.7233774
  energy:            264.8050991

- temperature:       580.0000000
  free_energy:      -186.2243935
  entropy:           785.1194357
  heat_capacity:     434.2284417
  energy:            269.1448793

- temperature:       590.0000000
  free_energy:      -194.1128219
  entropy:           792.5464550
  heat_capacity:     434.7090880
  energy:            273.4895866

- temperature:       600.0000000
  free_energy:      -202.0749328
  entropy:           799.8565292
  heat_capacity:     435.1668492
  energy:            277.8389848

- temperature:       610.0000000
  free_energy:      -210.1095743
  entropy:           807.0531579
  heat_capacity:     435.6031407
  energy:            282.1928520

- temperature:       620.0000000
  free_energy:      -218.2156289
  entropy:           814.1396925
  heat_capacity:     436.0192716
  energy:            286.5509804

- temperature:       630.0000000
  free_energy:      -226.3920119
  entropy:           821.1193432
  heat_capacity:     436.4164535
  energy:            290.9131743

- temperature:       640.0000000
  free_energy:      -234.6376698
  entropy:           827.9951872
  heat_capacity:     436.7958093
  energy:            295.2792500

- temperature:       650.0000000
  free_energy:      -242.9515795
  entropy:           834.7701754
  heat_capacity:     437.1583807
  energy:            299.6490346

- temperature:       660.0000000
  free_energy:      -251.3327466
  entropy:           841.4471386
  heat_capacity:     437.5051350
  energy:            304.0223649

- temperature:       670.0000000
  free_energy:      -259.7802046
  entropy:           848.0287942
  heat_capacity:     437.8369714
  energy:            308.3990875

- temperature:       680.0000000
  free_energy:      -268.2930135
  entropy:           854.5177513
  heat_capacity:     438.1547268
  energy:            312.7790574

- temperature:       690.0000000
  free_energy:      -276.8702590
  entropy:           860.9165170
  heat_capacity:     438.4591806
  energy:            317.1621377

- temperature:       700.0000000
  free_energy:      -285.5110512
  entropy:           867.2275005
  heat_capacity:     438.7510594
  energy:            321.5481991

- temperature:       710.0000000
  free_energy:      -294.2145241
  entropy:           873.4530188
  heat_capacity:     439.0310412
  energy:            325.9371193

- temperature:       720.0000000
  free_energy:      -302.9798342
  entropy:           879.5953008
  heat_capacity:     439.2997593
  energy:            330.3287824

- temperature:       730.0000000
  free_energy:      -311.8061598
  entropy:           885.6564914
  heat_capacity:     439.5578058
  energy:            334.7230789

- temperature:       740.0000000
  free_energy:      -320.6927006
  entropy:           891.6386559
  heat_capacity:     439.8057346
  energy:            339.1199048

- temperature:       750.0000000
  free_energy:      -329.6386762
  entropy:           897.5437837
  heat_capacity:     440.0440643
  energy:            343.5191616

- temperature:       760.0000000
  free_energy:      -338.6433258
  entropy:           903.3737915
  heat_capacity:     440.2732810
  energy:            347.9207557

- temperature:       770.0000000
  free_energy:      -347.7059077
  entropy:           909.1305274
  heat_capacity:     440.4938406
  energy:            352.3245984

- temperature:       780.0000000
  free_energy:      -356.8256981
  entropy:           914.8157733
  heat_capacity:     440.7061710
  energy:            356.7306051

- temperature:       790.0000000
  free_energy:      -366.0019907
  entropy:           920.4312485
  heat_capacity:     440.9106742
  energy:            361.1386957

- temperature:       800.0000000
  free_energy:      -375.2340960
  entropy:           925.9786123
  heat_capacity:     441.1077279
  energy:            365.5487938

- temperature:       810.0000000
  free_energy:      -384.5213412
  entropy:           931.4594664
  heat_capacity:     441.2976877
  energy:            369.9608266

- temperature:       820.0000000
  free_energy:      -393.8630688
  entropy:           936.8753583
  heat_capacity:     441.4808881
  energy:            374.3747250

- temperature:       830.0000000
  free_energy:      -403.2586368
  entropy:           942.2277828
  heat_capacity:     441.6576445
  energy:            378.7904229

- temperature:       840.0000000
  free_energy:      -412.7074178
  entropy:           947.5181847
  heat_capacity:     441.8282539
  energy:            383.2078574

- temperature:       850.0000000
  free_energy:      -422.2087984
  entropy:           952.7479610
  heat_capacity:     441.9929967
  energy:            387.6269684

- temperature:       860.0000000
  free_energy:      -431.7621794
  entropy:           957.9184628
  heat_capacity:     442.1521375
  energy:            392.0476987

- temperature:       870.0000000
  free_energy:      -441.3669745
  entropy:           963.0309975
  heat_capacity:     442.3059262
  energy:            396.4699933

- temperature:       880.0000000
  free_energy:      -451.0226103
  entropy:           968.0868301
  heat_capacity:     442.4545990
  energy:            400.8938001

- temperature:       890.0000000
  free_energy:      -460.7285262
  entropy:           973.0871856
  heat_capacity:     442.5983793
  energy:            405.3190690

- temperature:       900.0000000
  free_energy:      -470.4841731
  entropy:           978.0332502
  heat_capacity:     442.7374784
  energy:            409.7457521

- temperature:       910.0000000
  free_energy:      -480.2890140
  entropy:           982.9261733
  heat_capacity:     442.8720966
  energy:            414.1738036

- temperature:       920.0000000
  free_energy:      -490.1425231
  entropy:           987.7670683
  heat_capacity:     443.0024233
  energy:            418.6031797

- temperature:       930.0000000
  free_energy:      -500.0441856
  entropy:           992.5570150
  heat_capacity:     443.1286384
  energy:            423.0338384

- temperature:       940.0000000
  free_energy:      -509.9934971
  entropy:           997.2970601
  heat_capacity:     443.2509122
  energy:            427.4657394

- temperature:       950.0000000
  free_energy:      -519.9899638
  entropy:          1001.9882188
  heat_capacity:     443.3694065
  energy:            431.8988440

- temperature:       960.0000000
  free_energy:      -530.0331018
  entropy:          1006.6314763
  heat_capacity:     443.4842749
  energy:            436.3331154

- temperature:       970.0000000
  free_energy:      -540.1224369
  entropy:          1011.2277885
  heat_capacity:     443.5956632
  energy:            440.7685179

- temperature:       980.0000000
  free_energy:      -550.2575042
  entropy:          1015.7780834
  heat_capacity:     443.7037101
  energy:            445.2050175

- temperature:       990.0000000
  free_energy:      -560.4378481
  entropy:          1020.2832622
  heat_capacity:     443.8085475
  energy:            449.6425814

- temperature:      1000.0000000
  free_energy:      -570.6630220
  entropy:          1024.7442002
  heat_capacity:     443.9103006
  energy:            454.0811782
