phonopy:
  version: "2.37.1"
  frequency_unit_conversion_factor: 15.633302
  symmetry_tolerance: 1.00000e-05

space_group:
  type: "P1"
  number: 1
  Hall_symbol: "P 1"

primitive_matrix:
- [ -0.000000000000000, -1.000000000000000,  0.000000000000000 ]
- [ -1.000000000000000,  0.000000000000000,  0.000000000000000 ]
- [  0.000000000000000,  0.000000000000000, -1.000000000000000 ]

supercell_matrix:
- [   2,   0,   0 ]
- [   0,   2,   0 ]
- [   0,   0,   2 ]

primitive_cell:
  lattice:
  - [    -1.611391920871496,    -5.521214738562560,     0.000000000000000 ] # a
  - [    -6.014442298096585,     0.000000000000000,     0.000000000000000 ] # b
  - [    -3.002083981363616,    -1.875815285670384,    -6.983208974921832 ] # c
  points:
  - symbol: Li # 1
    coordinates: [  0.003619929521312,  0.689478798566492,  0.192352416438158 ]
    mass: 6.940000
  - symbol: Li # 2
    coordinates: [  0.435529310349216,  0.303087652424100,  0.243554545650780 ]
    mass: 6.940000
  - symbol: Li # 3
    coordinates: [  0.115197210273208,  0.964154525904309,  0.570161631386634 ]
    mass: 6.940000
  - symbol: Li # 4
    coordinates: [  0.670994581432646,  0.846685673923532,  0.518518011503806 ]
    mass: 6.940000
  - symbol: Li # 5
    coordinates: [  0.772912979923551,  0.631490256865105,  0.912526001762194 ]
    mass: 6.940000
  - symbol: Li # 6
    coordinates: [  0.323958634323439,  0.028543585389189,  0.865670014573737 ]
    mass: 6.940000
  - symbol: Li # 7
    coordinates: [  0.666151192928453,  0.361056233169231,  0.523394287912303 ]
    mass: 6.940000
  - symbol: Li # 8
    coordinates: [  0.768176114660589,  0.145802308420685,  0.917400606795939 ]
    mass: 6.940000
  - symbol: Sn # 9
    coordinates: [  0.984920994276352,  0.192810960041393,  0.194431555914990 ]
    mass: 118.710000
  - symbol: Sn # 10
    coordinates: [  0.327232256978250,  0.541631091744800,  0.855265695656168 ]
    mass: 118.710000
  - symbol: Sn # 11
    coordinates: [  0.454241486781268,  0.799777460338764,  0.241444758512757 ]
    mass: 118.710000
  - symbol: Sn # 12
    coordinates: [  0.111846911427955,  0.451051934495792,  0.580613607155659 ]
    mass: 118.710000
  reciprocal_lattice: # without 2pi
  - [    -0.000000000000000,    -0.181119562877272,     0.048651965851119 ] # a*
  - [    -0.166266455048787,     0.048525629786918,     0.058443151952726 ] # b*
  - [    -0.000000000000000,    -0.000000000000000,    -0.143200640792966 ] # c*

unit_cell:
  lattice:
  - [     6.014442298096585,     0.000000000000000,     0.000000000000000 ] # a
  - [     1.611391920871495,     5.521214738562560,     0.000000000000000 ] # b
  - [     3.002083981363616,     1.875815285670384,     6.983208974921832 ] # c
  points:
  - symbol: Li # 1
    coordinates: [  0.310521201433508,  0.996380070478688,  0.807647583561842 ]
    mass: 6.940000
    reduced_to: 1
  - symbol: Li # 2
    coordinates: [  0.696912347575900,  0.564470689650784,  0.756445454349220 ]
    mass: 6.940000
    reduced_to: 2
  - symbol: Li # 3
    coordinates: [  0.035845474095691,  0.884802789726792,  0.429838368613366 ]
    mass: 6.940000
    reduced_to: 3
  - symbol: Li # 4
    coordinates: [  0.153314326076468,  0.329005418567354,  0.481481988496194 ]
    mass: 6.940000
    reduced_to: 4
  - symbol: Li # 5
    coordinates: [  0.368509743134895,  0.227087020076449,  0.087473998237806 ]
    mass: 6.940000
    reduced_to: 5
  - symbol: Li # 6
    coordinates: [  0.971456414610811,  0.676041365676561,  0.134329985426263 ]
    mass: 6.940000
    reduced_to: 6
  - symbol: Li # 7
    coordinates: [  0.638943766830769,  0.333848807071547,  0.476605712087697 ]
    mass: 6.940000
    reduced_to: 7
  - symbol: Li # 8
    coordinates: [  0.854197691579315,  0.231823885339411,  0.082599393204061 ]
    mass: 6.940000
    reduced_to: 8
  - symbol: Sn # 9
    coordinates: [  0.807189039958607,  0.015079005723648,  0.805568444085010 ]
    mass: 118.710000
    reduced_to: 9
  - symbol: Sn # 10
    coordinates: [  0.458368908255200,  0.672767743021750,  0.144734304343832 ]
    mass: 118.710000
    reduced_to: 10
  - symbol: Sn # 11
    coordinates: [  0.200222539661236,  0.545758513218732,  0.758555241487243 ]
    mass: 118.710000
    reduced_to: 11
  - symbol: Sn # 12
    coordinates: [  0.548948065504208,  0.888153088572045,  0.419386392844341 ]
    mass: 118.710000
    reduced_to: 12

supercell:
  lattice:
  - [    12.028884596193169,     0.000000000000000,     0.000000000000000 ] # a
  - [     3.222783841742991,    11.042429477125120,     0.000000000000000 ] # b
  - [     6.004167962727231,     3.751630571340768,    13.966417949843665 ] # c
  points:
  - symbol: Li # 1
    coordinates: [  0.155260600716754,  0.498190035239344,  0.403823791780921 ]
    mass: 6.940000
    reduced_to: 1
  - symbol: Li # 2
    coordinates: [  0.655260600716754,  0.498190035239344,  0.403823791780921 ]
    mass: 6.940000
    reduced_to: 1
  - symbol: Li # 3
    coordinates: [  0.155260600716754,  0.998190035239344,  0.403823791780921 ]
    mass: 6.940000
    reduced_to: 1
  - symbol: Li # 4
    coordinates: [  0.655260600716754,  0.998190035239344,  0.403823791780921 ]
    mass: 6.940000
    reduced_to: 1
  - symbol: Li # 5
    coordinates: [  0.155260600716754,  0.498190035239344,  0.903823791780921 ]
    mass: 6.940000
    reduced_to: 1
  - symbol: Li # 6
    coordinates: [  0.655260600716754,  0.498190035239344,  0.903823791780921 ]
    mass: 6.940000
    reduced_to: 1
  - symbol: Li # 7
    coordinates: [  0.155260600716754,  0.998190035239344,  0.903823791780921 ]
    mass: 6.940000
    reduced_to: 1
  - symbol: Li # 8
    coordinates: [  0.655260600716754,  0.998190035239344,  0.903823791780921 ]
    mass: 6.940000
    reduced_to: 1
  - symbol: Li # 9
    coordinates: [  0.348456173787950,  0.282235344825392,  0.378222727174610 ]
    mass: 6.940000
    reduced_to: 9
  - symbol: Li # 10
    coordinates: [  0.848456173787950,  0.282235344825392,  0.378222727174610 ]
    mass: 6.940000
    reduced_to: 9
  - symbol: Li # 11
    coordinates: [  0.348456173787950,  0.782235344825392,  0.378222727174610 ]
    mass: 6.940000
    reduced_to: 9
  - symbol: Li # 12
    coordinates: [  0.848456173787950,  0.782235344825392,  0.378222727174610 ]
    mass: 6.940000
    reduced_to: 9
  - symbol: Li # 13
    coordinates: [  0.348456173787950,  0.282235344825392,  0.878222727174610 ]
    mass: 6.940000
    reduced_to: 9
  - symbol: Li # 14
    coordinates: [  0.848456173787950,  0.282235344825392,  0.878222727174610 ]
    mass: 6.940000
    reduced_to: 9
  - symbol: Li # 15
    coordinates: [  0.348456173787950,  0.782235344825392,  0.878222727174610 ]
    mass: 6.940000
    reduced_to: 9
  - symbol: Li # 16
    coordinates: [  0.848456173787950,  0.782235344825392,  0.878222727174610 ]
    mass: 6.940000
    reduced_to: 9
  - symbol: Li # 17
    coordinates: [  0.017922737047845,  0.442401394863396,  0.214919184306683 ]
    mass: 6.940000
    reduced_to: 17
  - symbol: Li # 18
    coordinates: [  0.517922737047845,  0.442401394863396,  0.214919184306683 ]
    mass: 6.940000
    reduced_to: 17
  - symbol: Li # 19
    coordinates: [  0.017922737047845,  0.942401394863396,  0.214919184306683 ]
    mass: 6.940000
    reduced_to: 17
  - symbol: Li # 20
    coordinates: [  0.517922737047845,  0.942401394863396,  0.214919184306683 ]
    mass: 6.940000
    reduced_to: 17
  - symbol: Li # 21
    coordinates: [  0.017922737047845,  0.442401394863396,  0.714919184306683 ]
    mass: 6.940000
    reduced_to: 17
  - symbol: Li # 22
    coordinates: [  0.517922737047845,  0.442401394863396,  0.714919184306683 ]
    mass: 6.940000
    reduced_to: 17
  - symbol: Li # 23
    coordinates: [  0.017922737047845,  0.942401394863396,  0.714919184306683 ]
    mass: 6.940000
    reduced_to: 17
  - symbol: Li # 24
    coordinates: [  0.517922737047845,  0.942401394863396,  0.714919184306683 ]
    mass: 6.940000
    reduced_to: 17
  - symbol: Li # 25
    coordinates: [  0.076657163038234,  0.164502709283677,  0.240740994248097 ]
    mass: 6.940000
    reduced_to: 25
  - symbol: Li # 26
    coordinates: [  0.576657163038234,  0.164502709283677,  0.240740994248097 ]
    mass: 6.940000
    reduced_to: 25
  - symbol: Li # 27
    coordinates: [  0.076657163038234,  0.664502709283677,  0.240740994248097 ]
    mass: 6.940000
    reduced_to: 25
  - symbol: Li # 28
    coordinates: [  0.576657163038234,  0.664502709283677,  0.240740994248097 ]
    mass: 6.940000
    reduced_to: 25
  - symbol: Li # 29
    coordinates: [  0.076657163038234,  0.164502709283677,  0.740740994248097 ]
    mass: 6.940000
    reduced_to: 25
  - symbol: Li # 30
    coordinates: [  0.576657163038234,  0.164502709283677,  0.740740994248097 ]
    mass: 6.940000
    reduced_to: 25
  - symbol: Li # 31
    coordinates: [  0.076657163038234,  0.664502709283677,  0.740740994248097 ]
    mass: 6.940000
    reduced_to: 25
  - symbol: Li # 32
    coordinates: [  0.576657163038234,  0.664502709283677,  0.740740994248097 ]
    mass: 6.940000
    reduced_to: 25
  - symbol: Li # 33
    coordinates: [  0.184254871567448,  0.113543510038225,  0.043736999118903 ]
    mass: 6.940000
    reduced_to: 33
  - symbol: Li # 34
    coordinates: [  0.684254871567448,  0.113543510038225,  0.043736999118903 ]
    mass: 6.940000
    reduced_to: 33
  - symbol: Li # 35
    coordinates: [  0.184254871567448,  0.613543510038225,  0.043736999118903 ]
    mass: 6.940000
    reduced_to: 33
  - symbol: Li # 36
    coordinates: [  0.684254871567448,  0.613543510038225,  0.043736999118903 ]
    mass: 6.940000
    reduced_to: 33
  - symbol: Li # 37
    coordinates: [  0.184254871567448,  0.113543510038225,  0.543736999118903 ]
    mass: 6.940000
    reduced_to: 33
  - symbol: Li # 38
    coordinates: [  0.684254871567448,  0.113543510038225,  0.543736999118903 ]
    mass: 6.940000
    reduced_to: 33
  - symbol: Li # 39
    coordinates: [  0.184254871567448,  0.613543510038225,  0.543736999118903 ]
    mass: 6.940000
    reduced_to: 33
  - symbol: Li # 40
    coordinates: [  0.684254871567448,  0.613543510038225,  0.543736999118903 ]
    mass: 6.940000
    reduced_to: 33
  - symbol: Li # 41
    coordinates: [  0.485728207305406,  0.338020682838280,  0.067164992713131 ]
    mass: 6.940000
    reduced_to: 41
  - symbol: Li # 42
    coordinates: [  0.985728207305406,  0.338020682838280,  0.067164992713131 ]
    mass: 6.940000
    reduced_to: 41
  - symbol: Li # 43
    coordinates: [  0.485728207305406,  0.838020682838280,  0.067164992713131 ]
    mass: 6.940000
    reduced_to: 41
  - symbol: Li # 44
    coordinates: [  0.985728207305406,  0.838020682838280,  0.067164992713131 ]
    mass: 6.940000
    reduced_to: 41
  - symbol: Li # 45
    coordinates: [  0.485728207305406,  0.338020682838280,  0.567164992713131 ]
    mass: 6.940000
    reduced_to: 41
  - symbol: Li # 46
    coordinates: [  0.985728207305406,  0.338020682838280,  0.567164992713131 ]
    mass: 6.940000
    reduced_to: 41
  - symbol: Li # 47
    coordinates: [  0.485728207305406,  0.838020682838280,  0.567164992713131 ]
    mass: 6.940000
    reduced_to: 41
  - symbol: Li # 48
    coordinates: [  0.985728207305406,  0.838020682838280,  0.567164992713131 ]
    mass: 6.940000
    reduced_to: 41
  - symbol: Li # 49
    coordinates: [  0.319471883415385,  0.166924403535773,  0.238302856043848 ]
    mass: 6.940000
    reduced_to: 49
  - symbol: Li # 50
    coordinates: [  0.819471883415385,  0.166924403535773,  0.238302856043848 ]
    mass: 6.940000
    reduced_to: 49
  - symbol: Li # 51
    coordinates: [  0.319471883415385,  0.666924403535773,  0.238302856043848 ]
    mass: 6.940000
    reduced_to: 49
  - symbol: Li # 52
    coordinates: [  0.819471883415385,  0.666924403535773,  0.238302856043848 ]
    mass: 6.940000
    reduced_to: 49
  - symbol: Li # 53
    coordinates: [  0.319471883415385,  0.166924403535773,  0.738302856043848 ]
    mass: 6.940000
    reduced_to: 49
  - symbol: Li # 54
    coordinates: [  0.819471883415385,  0.166924403535773,  0.738302856043848 ]
    mass: 6.940000
    reduced_to: 49
  - symbol: Li # 55
    coordinates: [  0.319471883415385,  0.666924403535773,  0.738302856043848 ]
    mass: 6.940000
    reduced_to: 49
  - symbol: Li # 56
    coordinates: [  0.819471883415385,  0.666924403535773,  0.738302856043848 ]
    mass: 6.940000
    reduced_to: 49
  - symbol: Li # 57
    coordinates: [  0.427098845789657,  0.115911942669705,  0.041299696602031 ]
    mass: 6.940000
    reduced_to: 57
  - symbol: Li # 58
    coordinates: [  0.927098845789657,  0.115911942669705,  0.041299696602031 ]
    mass: 6.940000
    reduced_to: 57
  - symbol: Li # 59
    coordinates: [  0.427098845789657,  0.615911942669706,  0.041299696602031 ]
    mass: 6.940000
    reduced_to: 57
  - symbol: Li # 60
    coordinates: [  0.927098845789657,  0.615911942669706,  0.041299696602031 ]
    mass: 6.940000
    reduced_to: 57
  - symbol: Li # 61
    coordinates: [  0.427098845789657,  0.115911942669705,  0.541299696602031 ]
    mass: 6.940000
    reduced_to: 57
  - symbol: Li # 62
    coordinates: [  0.927098845789657,  0.115911942669705,  0.541299696602031 ]
    mass: 6.940000
    reduced_to: 57
  - symbol: Li # 63
    coordinates: [  0.427098845789657,  0.615911942669706,  0.541299696602031 ]
    mass: 6.940000
    reduced_to: 57
  - symbol: Li # 64
    coordinates: [  0.927098845789657,  0.615911942669706,  0.541299696602031 ]
    mass: 6.940000
    reduced_to: 57
  - symbol: Sn # 65
    coordinates: [  0.403594519979304,  0.007539502861824,  0.402784222042505 ]
    mass: 118.710000
    reduced_to: 65
  - symbol: Sn # 66
    coordinates: [  0.903594519979304,  0.007539502861824,  0.402784222042505 ]
    mass: 118.710000
    reduced_to: 65
  - symbol: Sn # 67
    coordinates: [  0.403594519979304,  0.507539502861824,  0.402784222042505 ]
    mass: 118.710000
    reduced_to: 65
  - symbol: Sn # 68
    coordinates: [  0.903594519979304,  0.507539502861824,  0.402784222042505 ]
    mass: 118.710000
    reduced_to: 65
  - symbol: Sn # 69
    coordinates: [  0.403594519979304,  0.007539502861824,  0.902784222042505 ]
    mass: 118.710000
    reduced_to: 65
  - symbol: Sn # 70
    coordinates: [  0.903594519979304,  0.007539502861824,  0.902784222042505 ]
    mass: 118.710000
    reduced_to: 65
  - symbol: Sn # 71
    coordinates: [  0.403594519979304,  0.507539502861824,  0.902784222042505 ]
    mass: 118.710000
    reduced_to: 65
  - symbol: Sn # 72
    coordinates: [  0.903594519979304,  0.507539502861824,  0.902784222042505 ]
    mass: 118.710000
    reduced_to: 65
  - symbol: Sn # 73
    coordinates: [  0.229184454127600,  0.336383871510875,  0.072367152171916 ]
    mass: 118.710000
    reduced_to: 73
  - symbol: Sn # 74
    coordinates: [  0.729184454127600,  0.336383871510875,  0.072367152171916 ]
    mass: 118.710000
    reduced_to: 73
  - symbol: Sn # 75
    coordinates: [  0.229184454127600,  0.836383871510875,  0.072367152171916 ]
    mass: 118.710000
    reduced_to: 73
  - symbol: Sn # 76
    coordinates: [  0.729184454127600,  0.836383871510875,  0.072367152171916 ]
    mass: 118.710000
    reduced_to: 73
  - symbol: Sn # 77
    coordinates: [  0.229184454127600,  0.336383871510875,  0.572367152171916 ]
    mass: 118.710000
    reduced_to: 73
  - symbol: Sn # 78
    coordinates: [  0.729184454127600,  0.336383871510875,  0.572367152171916 ]
    mass: 118.710000
    reduced_to: 73
  - symbol: Sn # 79
    coordinates: [  0.229184454127600,  0.836383871510875,  0.572367152171916 ]
    mass: 118.710000
    reduced_to: 73
  - symbol: Sn # 80
    coordinates: [  0.729184454127600,  0.836383871510875,  0.572367152171916 ]
    mass: 118.710000
    reduced_to: 73
  - symbol: Sn # 81
    coordinates: [  0.100111269830618,  0.272879256609366,  0.379277620743621 ]
    mass: 118.710000
    reduced_to: 81
  - symbol: Sn # 82
    coordinates: [  0.600111269830618,  0.272879256609366,  0.379277620743621 ]
    mass: 118.710000
    reduced_to: 81
  - symbol: Sn # 83
    coordinates: [  0.100111269830618,  0.772879256609366,  0.379277620743621 ]
    mass: 118.710000
    reduced_to: 81
  - symbol: Sn # 84
    coordinates: [  0.600111269830618,  0.772879256609366,  0.379277620743621 ]
    mass: 118.710000
    reduced_to: 81
  - symbol: Sn # 85
    coordinates: [  0.100111269830618,  0.272879256609366,  0.879277620743621 ]
    mass: 118.710000
    reduced_to: 81
  - symbol: Sn # 86
    coordinates: [  0.600111269830618,  0.272879256609366,  0.879277620743621 ]
    mass: 118.710000
    reduced_to: 81
  - symbol: Sn # 87
    coordinates: [  0.100111269830618,  0.772879256609366,  0.879277620743621 ]
    mass: 118.710000
    reduced_to: 81
  - symbol: Sn # 88
    coordinates: [  0.600111269830618,  0.772879256609366,  0.879277620743621 ]
    mass: 118.710000
    reduced_to: 81
  - symbol: Sn # 89
    coordinates: [  0.274474032752104,  0.444076544286022,  0.209693196422171 ]
    mass: 118.710000
    reduced_to: 89
  - symbol: Sn # 90
    coordinates: [  0.774474032752104,  0.444076544286022,  0.209693196422171 ]
    mass: 118.710000
    reduced_to: 89
  - symbol: Sn # 91
    coordinates: [  0.274474032752104,  0.944076544286022,  0.209693196422171 ]
    mass: 118.710000
    reduced_to: 89
  - symbol: Sn # 92
    coordinates: [  0.774474032752104,  0.944076544286022,  0.209693196422171 ]
    mass: 118.710000
    reduced_to: 89
  - symbol: Sn # 93
    coordinates: [  0.274474032752104,  0.444076544286022,  0.709693196422171 ]
    mass: 118.710000
    reduced_to: 89
  - symbol: Sn # 94
    coordinates: [  0.774474032752104,  0.444076544286022,  0.709693196422171 ]
    mass: 118.710000
    reduced_to: 89
  - symbol: Sn # 95
    coordinates: [  0.274474032752104,  0.944076544286022,  0.709693196422171 ]
    mass: 118.710000
    reduced_to: 89
  - symbol: Sn # 96
    coordinates: [  0.774474032752104,  0.944076544286022,  0.709693196422171 ]
    mass: 118.710000
    reduced_to: 89

displacements:
- atom:    1
  displacement:
    [   0.0100000000000000,  0.0000000000000000,  0.0000000000000000 ]
  forces:
  - [  -0.0050123855471611, -0.0180094838142395,  0.0187704022973776 ]
  - [   0.0134151522070169, -0.0181901082396507,  0.0217835437506437 ]
  - [   0.0173541121184826, -0.0184159241616726,  0.0217941999435425 ]
  - [   0.0170985534787178, -0.0182289704680443,  0.0217529349029064 ]
  - [   0.0171057563275099, -0.0181719232350588,  0.0217535383999348 ]
  - [   0.0170961506664753, -0.0181775614619255,  0.0217399038374424 ]
  - [   0.0171023402363062, -0.0181768201291561,  0.0217412859201431 ]
  - [   0.0170978605747223, -0.0181862190365791,  0.0217452310025692 ]
  - [  -0.0161001235246658,  0.0160710886120796, -0.0217507798224688 ]
  - [  -0.0171355605125427,  0.0179862491786480, -0.0216928645968437 ]
  - [  -0.0173216164112091,  0.0180442631244659, -0.0214780643582344 ]
  - [  -0.0174942929297686,  0.0178967025130987, -0.0214442946016788 ]
  - [  -0.0171729847788811,  0.0182794705033302, -0.0216017253696918 ]
  - [  -0.0171608589589596,  0.0182777401059866, -0.0215853843837976 ]
  - [  -0.0171702839434147,  0.0182845126837492, -0.0215777680277824 ]
  - [  -0.0171746779233217,  0.0182824041694403, -0.0215821582823992 ]
  - [  -0.0139507353305817, -0.0125675359740853, -0.0120935477316380 ]
  - [  -0.0137046575546265, -0.0125025194138288, -0.0116958161816001 ]
  - [  -0.0135420486330986, -0.0125400898978114, -0.0117887333035469 ]
  - [  -0.0135795772075653, -0.0124153625220060, -0.0118451900780201 ]
  - [  -0.0133963823318481, -0.0124344974756241, -0.0118107106536627 ]
  - [  -0.0135721787810326, -0.0124298268929124, -0.0118302721530199 ]
  - [  -0.0135665014386177, -0.0124120861291885, -0.0118481339886785 ]
  - [  -0.0135688260197639, -0.0124252168461680, -0.0118336724117398 ]
  - [   0.0277530569583178, -0.0136042321100831,  0.0132787358015776 ]
  - [   0.0279763862490654, -0.0133581291884184,  0.0138205215334892 ]
  - [   0.0292436461895704, -0.0142171848565340,  0.0153711009770632 ]
  - [   0.0285989474505186, -0.0132147325202823,  0.0134862121194601 ]
  - [   0.0279970727860928, -0.0134766036644578,  0.0139888897538185 ]
  - [   0.0280401557683945, -0.0133140832185745,  0.0136901717633009 ]
  - [   0.0280378162860870, -0.0133752552792430,  0.0136347170919180 ]
  - [   0.0280126295983791, -0.0133345751091838,  0.0137350615113974 ]
  - [  -0.0357611104846001, -0.0332500636577606, -0.0064522661268711 ]
  - [  -0.0357540473341942, -0.0332204811275005, -0.0064594065770507 ]
  - [  -0.0357504934072495, -0.0331973843276501, -0.0064045852050185 ]
  - [  -0.0357416011393070, -0.0332159362733364, -0.0064655169844627 ]
  - [  -0.0356341078877449, -0.0329930558800697, -0.0065569356083870 ]
  - [  -0.0357781276106834, -0.0332359001040459, -0.0064543262124062 ]
  - [  -0.0349222645163536, -0.0325826369225979, -0.0056740771979094 ]
  - [  -0.0353948436677456, -0.0330922491848469, -0.0065193064510822 ]
  - [   0.0141719058156013,  0.0123463701456785,  0.0111283995211124 ]
  - [   0.0140678659081459,  0.0124572021886706,  0.0113150179386139 ]
  - [   0.0139889419078827,  0.0124142067506909,  0.0113927889615297 ]
  - [   0.0140305310487747,  0.0124738793820143,  0.0112504400312901 ]
  - [   0.0141417458653450,  0.0125823058187962,  0.0109885334968567 ]
  - [   0.0153049379587173,  0.0129614006727934,  0.0098952539265156 ]
  - [   0.0141155049204826,  0.0124464109539986,  0.0112950801849365 ]
  - [   0.0140388458967209,  0.0124907102435827,  0.0114367827773094 ]
  - [   0.0354806929826736,  0.0327668860554695,  0.0068924166262150 ]
  - [   0.0354802720248699,  0.0328600518405437,  0.0067247804254293 ]
  - [   0.0358805730938911,  0.0338091552257538,  0.0055180843919516 ]
  - [   0.0355070531368256,  0.0331018380820751,  0.0064648156985641 ]
  - [   0.0350926630198956,  0.0332141220569611,  0.0061222007498145 ]
  - [   0.0353503078222275,  0.0328166894614697,  0.0068902326747775 ]
  - [   0.0354607962071896,  0.0328669100999832,  0.0067661525681615 ]
  - [   0.0354861579835415,  0.0329094231128693,  0.0068363472819328 ]
  - [  -0.0286688953638077,  0.0137175396084785, -0.0133760068565607 ]
  - [  -0.0286666713654995,  0.0137276742607355, -0.0133984647691250 ]
  - [  -0.0287338662892580,  0.0137392170727253, -0.0134451780468225 ]
  - [  -0.0286641120910645,  0.0137199200689793, -0.0133810257539153 ]
  - [  -0.0287612117826939,  0.0137981642037630, -0.0132973333820701 ]
  - [  -0.0285600051283836,  0.0139063196256757, -0.0133748007938266 ]
  - [  -0.0285391621291637,  0.0135110141709447, -0.0136509537696838 ]
  - [  -0.0281683169305325,  0.0127217015251517, -0.0145358340814710 ]
  - [   0.0098030474036932, -0.0205321609973907,  0.0120945591479540 ]
  - [   0.0099875405430794, -0.0208877157419920,  0.0120771862566471 ]
  - [   0.0178423803299665, -0.0205538887530565,  0.0134771429002285 ]
  - [   0.0177136193960905, -0.0203418470919132,  0.0126580642536283 ]
  - [   0.0098169473931193, -0.0207023024559021,  0.0121359918266535 ]
  - [   0.0097812609747052, -0.0206964779645205,  0.0121266767382622 ]
  - [   0.0098283682018518, -0.0206798426806927,  0.0120624145492911 ]
  - [   0.0098084686324000, -0.0206899717450142,  0.0121037233620882 ]
  - [   0.0246390141546726, -0.0027945954352617, -0.0062862988561392 ]
  - [   0.0245719756931067, -0.0028852690011263, -0.0064543811604381 ]
  - [   0.0247363373637199, -0.0028020981699228, -0.0064601823687553 ]
  - [   0.0245971139520407, -0.0028626937419176, -0.0064581809565425 ]
  - [   0.0271102637052536, -0.0049649216234684, -0.0029280772432685 ]
  - [   0.0244050547480583, -0.0029333755373955, -0.0063904374837875 ]
  - [   0.0245159808546305, -0.0028960742056370, -0.0064509883522987 ]
  - [   0.0244736168533564, -0.0028594657778740, -0.0064220847561955 ]
  - [  -0.0077338935807347,  0.0248199943453074, -0.0115114981308579 ]
  - [  -0.0097310356795788,  0.0211002342402935, -0.0121953282505274 ]
  - [  -0.0102289989590645,  0.0208937432616949, -0.0125697590410709 ]
  - [  -0.0095621226355433,  0.0208703782409430, -0.0122127309441566 ]
  - [  -0.0097712017595768,  0.0209555663168430, -0.0122342053800821 ]
  - [  -0.0098175965249538,  0.0208867173641920, -0.0121476436033845 ]
  - [  -0.0097842849791050,  0.0209050234407187, -0.0122223654761910 ]
  - [  -0.0097837764769793,  0.0208975430577993, -0.0122178643941879 ]
  - [  -0.0241708327084780,  0.0027482025325298,  0.0064148274250329 ]
  - [  -0.0239464268088341,  0.0024732109159231,  0.0063909003511071 ]
  - [  -0.0240285769104958,  0.0026089586317539,  0.0061488561332226 ]
  - [  -0.0241080541163683,  0.0024934299290180,  0.0062959473580122 ]
  - [  -0.0241748336702585,  0.0024143569171429,  0.0063356310129166 ]
  - [  -0.0240130294114351,  0.0025886744260788,  0.0061587006784976 ]
  - [  -0.0241008345037699,  0.0024397168308496,  0.0062813917174935 ]
  - [  -0.0240813065320253,  0.0024720076471567,  0.0063013723120093 ]
- atom:    1
  displacement:
    [  -0.0100000000000000,  0.0000000000000000,  0.0000000000000000 ]
  forces:
  - [   0.0392141565680504, -0.0182449817657471,  0.0245789419859648 ]
  - [   0.0207758210599422, -0.0181785468012094,  0.0216982960700989 ]
  - [   0.0168415028601885, -0.0179472006857395,  0.0216893125325441 ]
  - [   0.0170971527695656, -0.0181358642876148,  0.0217288881540298 ]
  - [   0.0170907564461231, -0.0181953981518745,  0.0217298474162817 ]
  - [   0.0171007402241230, -0.0181904695928097,  0.0217431876808405 ]
  - [   0.0170974805951118, -0.0181884765625000,  0.0217431932687759 ]
  - [   0.0171007551252842, -0.0181798096746206,  0.0217375289648771 ]
  - [  -0.0182467699050903,  0.0204717740416527, -0.0214159619063139 ]
  - [  -0.0172101464122534,  0.0185896381735802, -0.0214684475213289 ]
  - [  -0.0170193575322628,  0.0185095779597759, -0.0216825790703297 ]
  - [  -0.0168381687253714,  0.0186659805476665, -0.0217202007770538 ]
  - [  -0.0171673651784658,  0.0182887986302376, -0.0215618871152401 ]
  - [  -0.0171780213713646,  0.0182894244790077, -0.0215794369578362 ]
  - [  -0.0171669907867908,  0.0182845238596201, -0.0215851385146379 ]
  - [  -0.0171670522540808,  0.0182865690439939, -0.0215826854109764 ]
  - [  -0.0131808966398239, -0.0122746154665947, -0.0115786790847778 ]
  - [  -0.0134323835372925, -0.0123443966731429, -0.0119781624525785 ]
  - [  -0.0135967433452606, -0.0123075526207685, -0.0118906535208225 ]
  - [  -0.0135603323578835, -0.0124319829046726, -0.0118351541459560 ]
  - [  -0.0137382894754410, -0.0124181983992457, -0.0118756648153067 ]
  - [  -0.0135662183165550, -0.0124197686091065, -0.0118517540395260 ]
  - [  -0.0135712847113609, -0.0124356113374233, -0.0118350582197309 ]
  - [  -0.0135667398571968, -0.0124233290553093, -0.0118482308462262 ]
  - [   0.0282666496932507, -0.0130856139585376,  0.0142089985311031 ]
  - [   0.0280425120145082, -0.0133301094174385,  0.0136653240770102 ]
  - [   0.0267763435840607, -0.0124675733968616,  0.0121155008673668 ]
  - [   0.0274246223270893, -0.0134719079360366,  0.0140029713511467 ]
  - [   0.0280204266309738, -0.0132120549678802,  0.0134997926652431 ]
  - [   0.0279804151505232, -0.0133735891431570,  0.0137968175113201 ]
  - [   0.0279795471578836, -0.0133122131228447,  0.0138538666069508 ]
  - [   0.0280084554105997, -0.0133515456691384,  0.0137544311583042 ]
  - [  -0.0357415974140167, -0.0331851840019226, -0.0064621996134520 ]
  - [  -0.0357479043304920, -0.0332154333591461, -0.0064556989818811 ]
  - [  -0.0357535108923912, -0.0332358852028847, -0.0065109599381685 ]
  - [  -0.0357607491314411, -0.0332199037075043, -0.0064493333920836 ]
  - [  -0.0358675494790077, -0.0334395617246628, -0.0063566770404577 ]
  - [  -0.0357270613312721, -0.0331983305513859, -0.0064595751464367 ]
  - [  -0.0365801900625229, -0.0338396914303303, -0.0072315698489547 ]
  - [  -0.0361062362790108, -0.0333443433046341, -0.0063990512862802 ]
  - [   0.0140023827552795,  0.0125520480796695,  0.0114626921713352 ]
  - [   0.0141032561659813,  0.0124433450400829,  0.0112783536314964 ]
  - [   0.0141776800155640,  0.0124907642602921,  0.0111999921500683 ]
  - [   0.0141389071941376,  0.0124305132776499,  0.0113420393317938 ]
  - [   0.0140298530459404,  0.0123226149007678,  0.0115996766835451 ]
  - [   0.0128597170114517,  0.0119295567274094,  0.0127227194607258 ]
  - [   0.0140548422932625,  0.0124560985714197,  0.0113013461232185 ]
  - [   0.0141340866684914,  0.0124110104516149,  0.0111587084829807 ]
  - [   0.0354284010827541,  0.0329868011176586,  0.0066292379051447 ]
  - [   0.0354298539459705,  0.0328935272991657,  0.0067961830645800 ]
  - [   0.0350295826792717,  0.0319580659270287,  0.0079789888113737 ]
  - [   0.0354051701724529,  0.0326502919197083,  0.0070592127740383 ]
  - [   0.0358158610761166,  0.0325367413461208,  0.0074003729969263 ]
  - [   0.0355613343417645,  0.0329344235360622,  0.0066306255757809 ]
  - [   0.0354495979845524,  0.0328873023390770,  0.0067520178854465 ]
  - [   0.0354211740195751,  0.0328463241457939,  0.0066813696175814 ]
  - [  -0.0286676548421383,  0.0137321148067713, -0.0134083433076739 ]
  - [  -0.0286687146872282,  0.0137223713099957, -0.0133873745799065 ]
  - [  -0.0286044701933861,  0.0137112662196159, -0.0133382398635149 ]
  - [  -0.0286729317158461,  0.0137308184057474, -0.0134052820503712 ]
  - [  -0.0285757109522820,  0.0136536322534084, -0.0134868836030364 ]
  - [  -0.0287722833454609,  0.0135436905547976, -0.0134123321622610 ]
  - [  -0.0287967287003994,  0.0139377331361175, -0.0131381982937455 ]
  - [  -0.0291627924889326,  0.0147407408803701, -0.0122315529733896 ]
  - [   0.0097941812127829, -0.0208405349403620,  0.0121264290064573 ]
  - [   0.0096140280365944, -0.0204818397760391,  0.0121434368193150 ]
  - [   0.0021033994853497, -0.0208017062395811,  0.0107519160956144 ]
  - [   0.0015402399003506, -0.0210178773850203,  0.0115459058433771 ]
  - [   0.0097788544371724, -0.0206729713827372,  0.0120899155735970 ]
  - [   0.0098144039511681, -0.0206788033246994,  0.0120981074869633 ]