# Tetrahedron method
       -1.4767835551        0.0000000000
       -1.4400172339        0.0000000000
       -1.4032509128        0.0000000000
       -1.3664845916        0.0000000000
       -1.3297182705        0.0000000000
       -1.2929519494        0.0000000000
       -1.2561856282        0.0000000000
       -1.2194193071        0.0000000000
       -1.1826529859        0.0000000000
       -1.1458866648        0.0000000000
       -1.1091203436        0.0000000000
       -1.0723540225        0.0000000000
       -1.0355877013        0.0000000000
       -0.9988213802        0.0000000000
       -0.9620550591        0.0000000000
       -0.9252887379        0.0000000000
       -0.8885224168        0.0000000000
       -0.8517560956        9.0483635605
       -0.8149897745       14.2860661092
       -0.7782234533       10.8403232368
       -0.7414571322       13.7701088899
       -0.7046908110        9.2226953553
       -0.6679244899        6.8715626169
       -0.6311581688        5.7110323298
       -0.5943918476        4.8733984061
       -0.5576255265        5.0304103384
       -0.5208592053        5.8006742631
       -0.4840928842        5.8915539787
       -0.4473265630        7.0979787586
       -0.4105602419       13.0351270271
       -0.3737939207       17.7564854433
       -0.3370275996       12.3759360735
       -0.3002612785        7.4853988518
       -0.2634949573        6.6047006815
       -0.2267286362        5.7477606198
       -0.1899623150        5.2521336132
       -0.1531959939        4.1154718743
       -0.1164296727        3.1060810623
       -0.0796633516        2.2666222885
       -0.0428970304        2.1264400069
       -0.0061307093        2.1824867312
        0.0306356119        2.2952933211
        0.0674019330        2.5465091040
        0.1041682541        3.2675546252
        0.1409345753        3.9640504244
        0.1777008964        4.6244447744
        0.2144672176        5.4859278362
        0.2512335387        5.4410351350
        0.2879998599        5.6357467680
        0.3247661810        5.9351845474
        0.3615325022        6.0993520912
        0.3982988233        6.4910559506
        0.4350651444        7.8603569577
        0.4718314656       11.2148585229
        0.5085977867       12.4508930713
        0.5453641079       10.6593820331
        0.5821304290       10.5474272062
        0.6188967502       12.3250261115
        0.6556630713       10.0651306590
        0.6924293925       11.4161032375
        0.7291957136        5.4145860592
        0.7659620347        5.5928657844
        0.8027283559       10.2600046022
        0.8394946770        8.4498219984
        0.8762609982        7.7573158330
        0.9130273193        9.9754833076
        0.9497936405       15.0806751843
        0.9865599616       18.2300621205
        1.0233262828       18.0057266331
        1.0600926039       15.0748698321
        1.0968589250       16.6994786542
        1.1336252462       19.0320154666
        1.1703915673       15.9976219121
        1.2071578885       16.7610513159
        1.2439242096       17.7760647887
        1.2806905308       12.5577879082
        1.3174568519       13.3140914238
        1.3542231731       16.5732107267
        1.3909894942       15.0451445806
        1.4277558153       14.2865044528
        1.4645221365       18.3332865047
        1.5012884576       14.7878902598
        1.5380547788       13.2181939835
        1.5748210999       10.0399245106
        1.6115874211       14.2137053082
        1.6483537422       16.5594284850
        1.6851200634       20.3718409520
        1.7218863845       14.4472045391
        1.7586527057       20.8660894694
        1.7954190268       21.1099727526
        1.8321853479       18.6451882518
        1.8689516691       14.9707784514
        1.9057179902       14.8367521642
        1.9424843114       16.0527183608
        1.9792506325       12.5908867379
        2.0160169537       12.5242531788
        2.0527832748       19.3594918728
        2.0895495960       18.2422746494
        2.1263159171       17.4921355120
        2.1630822382       14.2309603188
        2.1998485594       14.6523336450
        2.2366148805       12.9829353057
        2.2733812017       12.2317052721
        2.3101475228       12.9958351761
        2.3469138440       15.4103823143
        2.3836801651       11.2987908571
        2.4204464863       14.7187494082
        2.4572128074       13.9463897456
        2.4939791285       19.9039660008
        2.5307454497       15.2264063656
        2.5675117708       10.5977484605
        2.6042780920       15.2417174883
        2.6410444131       10.4337480494
        2.6778107343       11.7522370425
        2.7145770554        9.1348258089
        2.7513433766       11.3009765152
        2.7881096977       10.0532752310
        2.8248760188        9.4000275591
        2.8616423400        7.3787276432
        2.8984086611        7.0506276173
        2.9351749823        9.8815163732
        2.9719413034        8.9660600517
        3.0087076246       10.9320633486
        3.0454739457        9.6918156070
        3.0822402669        9.4801879538
        3.1190065880       10.2063945743
        3.1557729091       11.7779054277
        3.1925392303        6.0754842267
        3.2293055514        5.7826663117
        3.2660718726        5.6651386827
        3.3028381937       12.7553134199
        3.3396045149       10.4009852214
        3.3763708360       14.1663246006
        3.4131371572       10.6527781932
        3.4499034783       14.4171765553
        3.4866697995       15.4826311934
        3.5234361206       18.2744316562
        3.5602024417       15.3932306234
        3.5969687629       15.1796582771
        3.6337350840       21.4540550533
        3.6705014052       12.8024651035
        3.7072677263       13.3876077048
        3.7440340475       12.4645544047
        3.7808003686       13.5148770794
        3.8175666898       18.1884089964
        3.8543330109       17.3786149317
        3.8910993320       11.8546199075
        3.9278656532       19.8131767571
        3.9646319743       14.2171329938
        4.0013982955       15.2367842124
        4.0381646166       13.1013331918
        4.0749309378       16.9047276282
        4.1116972589       12.2375668482
        4.1484635801       11.0090059674
        4.1852299012        6.2591250302
        4.2219962223       13.2368932190
        4.2587625435       13.3816552699
        4.2955288646       10.7773672911
        4.3322951858        9.1212047605
        4.3690615069       12.0453780155
        4.4058278281       14.7091051652
        4.4425941492       17.4968763710
        4.4793604704        9.4831624954
        4.5161267915        7.7117801203
        4.5528931126        7.4330763554
        4.5896594338       10.0937650368
        4.6264257549        8.7466324750
        4.6631920761        6.0955612107
        4.6999583972        4.4732160353
        4.7367247184        3.0491815311
        4.7734910395        1.5589751036
        4.8102573607        0.0000000000
        4.8470236818        0.0000000000
        4.8837900029        0.3955973985
        4.9205563241        9.8906061853
        4.9573226452       11.3626928154
        4.9940889664       10.0410654813
        5.0308552875        5.3756664243
        5.0676216087        3.0452855289
        5.1043879298        2.7791180168
        5.1411542510        2.6017494246
        5.1779205721        2.5036711158
        5.2146868933        2.3933283595
        5.2514532144        1.2845505913
        5.2882195355        0.0000000000
        5.3249858567        0.0000000000
        5.3617521778        0.0000000000
        5.3985184990        0.0000000000
        5.4352848201        0.0000000000
        5.4720511413        0.0000000000
        5.5088174624        0.0000000000
        5.5455837836        0.0000000000
        5.5823501047        0.0000000000
        5.6191164258        0.0000000000
        5.6558827470        0.0000000000
        5.6926490681        0.0000000000
        5.7294153893        0.0000000000
        5.7661817104        0.0000000000
        5.8029480316        0.0000000000
        5.8397143527        0.0000000000
        5.8764806739        0.0000000000
