# Thermal properties / unit cell (natom)

unit:
  temperature:   K
  free_energy:   kJ/mol
  entropy:       J/K/mol
  heat_capacity: J/K/mol

natom: 18   
cutoff_frequency: 0.00000
num_modes: 147420
num_integrated_modes: 147419

zero_point_energy:      41.2494902

thermal_properties:
- temperature:         0.0000000
  free_energy:        41.2494902
  entropy:             0.0000000
  heat_capacity:       0.0000000
  energy:             41.2494902

- temperature:        10.0000000
  free_energy:        41.2386052
  entropy:             4.4438159
  heat_capacity:      14.2775327
  energy:             41.2830433

- temperature:        20.0000000
  free_energy:        41.0767643
  entropy:            31.9673068
  heat_capacity:      76.3919954
  energy:             41.7161104

- temperature:        30.0000000
  free_energy:        40.5475348
  entropy:            75.1581172
  heat_capacity:     138.1927440
  energy:             42.8022783

- temperature:        40.0000000
  free_energy:        39.5640114
  entropy:           121.5201341
  heat_capacity:     183.9912967
  energy:             44.4248167

- temperature:        50.0000000
  free_energy:        38.1220841
  entropy:           166.5019706
  heat_capacity:     219.2163920
  energy:             46.4471827

- temperature:        60.0000000
  free_energy:        36.2418924
  entropy:           209.1327004
  heat_capacity:     248.5561879
  energy:             48.7898545

- temperature:        70.0000000
  free_energy:        33.9473276
  entropy:           249.3977369
  heat_capacity:     273.9172621
  energy:             51.4051692

- temperature:        80.0000000
  free_energy:        31.2613188
  entropy:           287.4480443
  heat_capacity:     295.9586409
  energy:             54.2571623

- temperature:        90.0000000
  free_energy:        28.2052431
  entropy:           323.4348732
  heat_capacity:     315.0118414
  energy:             57.3143817

- temperature:       100.0000000
  free_energy:        24.7990460
  entropy:           357.4940015
  heat_capacity:     331.3799911
  energy:             60.5484462

- temperature:       110.0000000
  free_energy:        21.0613657
  entropy:           389.7521861
  heat_capacity:     345.3855857
  energy:             63.9341062

- temperature:       120.0000000
  free_energy:        17.0095985
  entropy:           420.3313869
  heat_capacity:     357.3525621
  energy:             67.4493649

- temperature:       130.0000000
  free_energy:        12.6599410
  entropy:           449.3495113
  heat_capacity:     367.5844240
  energy:             71.0753775

- temperature:       140.0000000
  free_energy:         8.0274345
  entropy:           476.9195799
  heat_capacity:     376.3516988
  energy:             74.7961756

- temperature:       150.0000000
  free_energy:         3.1260188
  entropy:           503.1486202
  heat_capacity:     383.8878593
  energy:             78.5983118

- temperature:       160.0000000
  free_energy:        -2.0314027
  entropy:           528.1368357
  heat_capacity:     390.3904024
  energy:             82.4704910

- temperature:       170.0000000
  free_energy:        -7.4328925
  entropy:           551.9771788
  heat_capacity:     396.0244255
  energy:             86.4032279

- temperature:       180.0000000
  free_energy:       -13.0674062
  entropy:           574.7552802
  heat_capacity:     400.9270585
  energy:             90.3885442

- temperature:       190.0000000
  free_energy:       -18.9247197
  entropy:           596.5496400
  heat_capacity:     405.2118845
  energy:             94.4197119

- temperature:       200.0000000
  free_energy:       -24.9953597
  entropy:           617.4319875
  heat_capacity:     408.9729494
  energy:             98.4910378

- temperature:       210.0000000
  free_energy:       -31.2705381
  entropy:           637.4677355
  heat_capacity:     412.2882213
  energy:            102.5976863

- temperature:       220.0000000
  free_energy:       -37.7420917
  entropy:           656.7164775
  heat_capacity:     415.2224911
  energy:            106.7355334

- temperature:       230.0000000
  free_energy:       -44.4024258
  entropy:           675.2324910
  heat_capacity:     417.8297657
  energy:            110.9010471

- temperature:       240.0000000
  free_energy:       -51.2444644
  entropy:           693.0652270
  heat_capacity:     420.1552212
  energy:            115.0911901

- temperature:       250.0000000
  free_energy:       -58.2616035
  entropy:           710.2597709
  heat_capacity:     422.2367909
  energy:            119.3033393

- temperature:       260.0000000
  free_energy:       -65.4476700
  entropy:           726.8572698
  heat_capacity:     424.1064526
  energy:            123.5352201

- temperature:       270.0000000
  free_energy:       -72.7968844
  entropy:           742.8953223
  heat_capacity:     425.7912716
  energy:            127.7848526

- temperature:       280.0000000
  free_energy:       -80.3038267
  entropy:           758.4083325
  heat_capacity:     427.3142477
  energy:            132.0505064

- temperature:       290.0000000
  free_energy:       -87.9634063
  entropy:           773.4278280
  heat_capacity:     428.6950034
  energy:            136.3306638

- temperature:       300.0000000
  free_energy:       -95.7708349
  entropy:           787.9827454
  heat_capacity:     429.9503448
  energy:            140.6239887

- temperature:       310.0000000
  free_energy:      -103.7216015
  entropy:           802.0996857
  heat_capacity:     431.0947210
  energy:            144.9293011

- temperature:       320.0000000
  free_energy:      -111.8114505
  entropy:           815.8031423
  heat_capacity:     432.1406004
  energy:            149.2455550

- temperature:       330.0000000
  free_energy:      -120.0363616
  entropy:           829.1157044
  heat_capacity:     433.0987807
  energy:            153.5718209

- temperature:       340.0000000
  free_energy:      -128.3925314
  entropy:           842.0582384
  heat_capacity:     433.9786453
  energy:            157.9072697

- temperature:       350.0000000
  free_energy:      -136.8763574
  entropy:           854.6500501
  heat_capacity:     434.7883757
  energy:            162.2511601

- temperature:       360.0000000
  free_energy:      -145.4844231
  entropy:           866.9090290
  heat_capacity:     435.5351285
  energy:            166.6028274

- temperature:       370.0000000
  free_energy:      -154.2134840
  entropy:           878.8517779
  heat_capacity:     436.2251833
  energy:            170.9616738

- temperature:       380.0000000
  free_energy:      -163.0604561
  entropy:           890.4937280
  heat_capacity:     436.8640664
  energy:            175.3271606

- temperature:       390.0000000
  free_energy:      -172.0224039
  entropy:           901.8492430
  heat_capacity:     437.4566557
  energy:            179.6988009

- temperature:       400.0000000
  free_energy:      -181.0965309
  entropy:           912.9317117
  heat_capacity:     438.0072680
  energy:            184.0761538

- temperature:       410.0000000
  free_energy:      -190.2801697
  entropy:           923.7536313
  heat_capacity:     438.5197344
  energy:            188.4588191

- temperature:       420.0000000
  free_energy:      -199.5707740
  entropy:           934.3266828
  heat_capacity:     438.9974632
  energy:            192.8464327

- temperature:       430.0000000
  free_energy:      -208.9659103
  entropy:           944.6617979
  heat_capacity:     439.4434943
  energy:            197.2386628

- temperature:       440.0000000
  free_energy:      -218.4632511
  entropy:           954.7692208
  heat_capacity:     439.8605456
  energy:            201.6352061

- temperature:       450.0000000
  free_energy:      -228.0605679
  entropy:           964.6585624
  heat_capacity:     440.2510521
  energy:            206.0357852

- temperature:       460.0000000
  free_energy:      -237.7557255
  entropy:           974.3388510
  heat_capacity:     440.6172011
  energy:            210.4401459

- temperature:       470.0000000
  free_energy:      -247.5466764
  entropy:           983.8185767
  heat_capacity:     440.9609605
  energy:            214.8480546

- temperature:       480.0000000
  free_energy:      -257.4314552
  entropy:           993.1057327
  heat_capacity:     441.2841054
  energy:            219.2592964

- temperature:       490.0000000
  free_energy:      -267.4081743
  entropy:          1002.2078525
  heat_capacity:     441.5882396
  energy:            223.6736734

- temperature:       500.0000000
  free_energy:      -277.4750192
  entropy:          1011.1320439
  heat_capacity:     441.8748151
  energy:            228.0910027

- temperature:       510.0000000
  free_energy:      -287.6302445
  entropy:          1019.8850198
  heat_capacity:     442.1451487
  energy:            232.5111156

- temperature:       520.0000000
  free_energy:      -297.8721701
  entropy:          1028.4731263
  heat_capacity:     442.4004371
  energy:            236.9338556

- temperature:       530.0000000
  free_energy:      -308.1991775
  entropy:          1036.9023686
  heat_capacity:     442.6417694
  energy:            241.3590778

- temperature:       540.0000000
  free_energy:      -318.6097069
  entropy:          1045.1784346
  heat_capacity:     442.8701385
  energy:            245.7866477

- temperature:       550.0000000
  free_energy:      -329.1022537
  entropy:          1053.3067164
  heat_capacity:     443.0864510
  energy:            250.2164404

- temperature:       560.0000000
  free_energy:      -339.6753657
  entropy:          1061.2923305
  heat_capacity:     443.2915362
  energy:            254.6483393

- temperature:       570.0000000
  free_energy:      -350.3276409
  entropy:          1069.1401353
  heat_capacity:     443.4861537
  energy:            259.0822362

- temperature:       580.0000000
  free_energy:      -361.0577245
  entropy:          1076.8547488
  heat_capacity:     443.6710001
  energy:            263.5180299

- temperature:       590.0000000
  free_energy:      -371.8643066
  entropy:          1084.4405634
  heat_capacity:     443.8467156
  energy:            267.9556258

- temperature:       600.0000000
  free_energy:      -382.7461204
  entropy:          1091.9017601
  heat_capacity:     444.0138888
  energy:            272.3949357

- temperature:       610.0000000
  free_energy:      -393.7019397
  entropy:          1099.2423223
  heat_capacity:     444.1730620
  energy:            276.8358769

- temperature:       620.0000000
  free_energy:      -404.7305774
  entropy:          1106.4660473
  heat_capacity:     444.3247353
  energy:            281.2783719

- temperature:       630.0000000
  free_energy:      -415.8308833
  entropy:          1113.5765578
  heat_capacity:     444.4693704
  energy:            285.7223482

- temperature:       640.0000000
  free_energy:      -427.0017427
  entropy:          1120.5773125
  heat_capacity:     444.6073944
  energy:            290.1677373

- temperature:       650.0000000
  free_energy:      -438.2420747
  entropy:          1127.4716154
  heat_capacity:     444.7392025
  energy:            294.6144753

- temperature:       660.0000000
  free_energy:      -449.5508307
  entropy:          1134.2626251
  heat_capacity:     444.8651608
  energy:            299.0625019

- temperature:       670.0000000
  free_energy:      -460.9269930
  entropy:          1140.9533629
  heat_capacity:     444.9856091
  energy:            303.5117602

- temperature:       680.0000000
  free_energy:      -472.3695734
  entropy:          1147.5467208
  heat_capacity:     445.1008630
  energy:            307.9621967

- temperature:       690.0000000
  free_energy:      -483.8776121
  entropy:          1154.0454683
  heat_capacity:     445.2112158
  energy:            312.4137611

- temperature:       700.0000000
  free_energy:      -495.4501762
  entropy:          1160.4522598
  heat_capacity:     445.3169405
  energy:            316.8664056

- temperature:       710.0000000
  free_energy:      -507.0863592
  entropy:          1166.7696402
  heat_capacity:     445.4182915
  energy:            321.3200853

- temperature:       720.0000000
  free_energy:      -518.7852792
  entropy:          1173.0000512
  heat_capacity:     445.5155058
  energy:            325.7747577

- temperature:       730.0000000
  free_energy:      -530.5460782
  entropy:          1179.1458364
  heat_capacity:     445.6088049
  energy:            330.2303824

- temperature:       740.0000000
  free_energy:      -542.3679213
  entropy:          1185.2092469
  heat_capacity:     445.6983956
  energy:            334.6869214

- temperature:       750.0000000
  free_energy:      -554.2499957
  entropy:          1191.1924458
  heat_capacity:     445.7844712
  energy:            339.1443386

- temperature:       760.0000000
  free_energy:      -566.1915098
  entropy:          1197.0975125
  heat_capacity:     445.8672126
  energy:            343.6025997

- temperature:       770.0000000
  free_energy:      -578.1916922
  entropy:          1202.9264475
  heat_capacity:     445.9467893
  energy:            348.0616723

- temperature:       780.0000000
  free_energy:      -590.2497914
  entropy:          1208.6811755
  heat_capacity:     446.0233603
  energy:            352.5215255

- temperature:       790.0000000
  free_energy:      -602.3650746
  entropy:          1214.3635501
  heat_capacity:     446.0970746
  energy:            356.9821300

- temperature:       800.0000000
  free_energy:      -614.5368272
  entropy:          1219.9753564
  heat_capacity:     446.1680721
  energy:            361.4434579

- temperature:       810.0000000
  free_energy:      -626.7643522
  entropy:          1225.5183149
  heat_capacity:     446.2364845
  energy:            365.9054828

- temperature:       820.0000000
  free_energy:      -639.0469695
  entropy:          1230.9940841
  heat_capacity:     446.3024353
  energy:            370.3681794

- temperature:       830.0000000
  free_energy:      -651.3840153
  entropy:          1236.4042638
  heat_capacity:     446.3660410
  energy:            374.8315237

- temperature:       840.0000000
  free_energy:      -663.7748413
  entropy:          1241.7503977
  heat_capacity:     446.4274112
  energy:            379.2954928

- temperature:       850.0000000
  free_energy:      -676.2188147
  entropy:          1247.0339759
  heat_capacity:     446.4866492
  energy:            383.7600648

- temperature:       860.0000000
  free_energy:      -688.7153171
  entropy:          1252.2564373
  heat_capacity:     446.5438523
  energy:            388.2252190

- temperature:       870.0000000
  free_energy:      -701.2637444
  entropy:          1257.4191721
  heat_capacity:     446.5991125
  energy:            392.6909354

- temperature:       880.0000000
  free_energy:      -713.8635060
  entropy:          1262.5235239
  heat_capacity:     446.6525167
  energy:            397.1571951

- temperature:       890.0000000
  free_energy:      -726.5140246
  entropy:          1267.5707914
  heat_capacity:     446.7041468
  energy:            401.6239798

- temperature:       900.0000000
  free_energy:      -739.2147357
  entropy:          1272.5622311
  heat_capacity:     446.7540803
  energy:            406.0912723

- temperature:       910.0000000
  free_energy:      -751.9650872
  entropy:          1277.4990584
  heat_capacity:     446.8023907
  energy:            410.5590560

- temperature:       920.0000000
  free_energy:      -764.7645388
  entropy:          1282.3824497
  heat_capacity:     446.8491474
  energy:            415.0273150

- temperature:       930.0000000
  free_energy:      -777.6125618
  entropy:          1287.2135439
  heat_capacity:     446.8944161
  energy:            419.4960340

- temperature:       940.0000000
  free_energy:      -790.5086390
  entropy:          1291.9934442
  heat_capacity:     446.9382593
  energy:            423.9651985

- temperature:       950.0000000
  free_energy:      -803.4522636
  entropy:          1296.7232192
  heat_capacity:     446.9807360
  energy:            428.4347946

- temperature:       960.0000000
  free_energy:      -816.4429397
  entropy:          1301.4039048
  heat_capacity:     447.0219024
  energy:            432.9048089

- temperature:       970.0000000
  free_energy:      -829.4801815
  entropy:          1306.0365051
  heat_capacity:     447.0618116
  energy:            437.3752285

- temperature:       980.0000000
  free_energy:      -842.5635128
  entropy:          1310.6219938
  heat_capacity:     447.1005143
  energy:            441.8460411

- temperature:       990.0000000
  free_energy:      -855.6924674
  entropy:          1315.1613155
  heat_capacity:     447.1380585
  energy:            446.3172349

- temperature:      1000.0000000
  free_energy:      -868.8665883
  entropy:          1319.6553869
  heat_capacity:     447.1744900
  energy:            450.7887986
