# Thermal properties / unit cell (natom)

unit:
  temperature:   K
  free_energy:   kJ/mol
  entropy:       J/K/mol
  heat_capacity: J/K/mol

natom: 20   
cutoff_frequency: 0.00000
num_modes: 166320
num_integrated_modes: 166318

zero_point_energy:      72.4602463

thermal_properties:
- temperature:         0.0000000
  free_energy:        72.4602463
  entropy:             0.0000000
  heat_capacity:       0.0000000
  energy:             72.4602463

- temperature:        10.0000000
  free_energy:        72.4443659
  entropy:             6.0389899
  heat_capacity:      16.2482390
  energy:             72.5047558

- temperature:        20.0000000
  free_energy:        72.2746866
  entropy:            29.8583332
  heat_capacity:      56.4533146
  energy:             72.8718533

- temperature:        30.0000000
  free_energy:        71.8317516
  entropy:            58.8328885
  heat_capacity:      86.9989973
  energy:             73.5967382

- temperature:        40.0000000
  free_energy:        71.0999374
  entropy:            87.3708587
  heat_capacity:     112.2735632
  energy:             74.5947718

- temperature:        50.0000000
  free_energy:        70.0871370
  entropy:           115.0832411
  heat_capacity:     137.1597929
  energy:             75.8412990

- temperature:        60.0000000
  free_energy:        68.7996895
  entropy:           142.3647372
  heat_capacity:     163.0741795
  energy:             77.3415737

- temperature:        70.0000000
  free_energy:        67.2403049
  entropy:           169.5003333
  heat_capacity:     189.7346181
  energy:             79.1053282

- temperature:        80.0000000
  free_energy:        65.4098719
  entropy:           196.5746771
  heat_capacity:     216.2708199
  energy:             81.1358461

- temperature:        90.0000000
  free_energy:        63.3091811
  entropy:           223.5361068
  heat_capacity:     241.8218223
  energy:             83.4274307

- temperature:       100.0000000
  free_energy:        60.9399068
  entropy:           250.2700806
  heat_capacity:     265.7719961
  energy:             85.9669149

- temperature:       110.0000000
  free_energy:        58.3049641
  entropy:           276.6491763
  heat_capacity:     287.7804060
  energy:             88.7363735

- temperature:       120.0000000
  free_energy:        55.4084886
  entropy:           302.5595175
  heat_capacity:     307.7260178
  energy:             91.7156307

- temperature:       130.0000000
  free_energy:        52.2556387
  entropy:           327.9112414
  heat_capacity:     325.6363588
  energy:             94.8841001

- temperature:       140.0000000
  free_energy:        48.8523426
  entropy:           352.6400792
  heat_capacity:     341.6268733
  energy:             98.2219537

- temperature:       150.0000000
  free_energy:        45.2050531
  entropy:           376.7047744
  heat_capacity:     355.8573751
  energy:            101.7107692

- temperature:       160.0000000
  free_energy:        41.3205369
  entropy:           400.0830261
  heat_capacity:     368.5037836
  energy:            105.3338211

- temperature:       170.0000000
  free_energy:        37.2057070
  entropy:           422.7673087
  heat_capacity:     379.7412079
  energy:            109.0761495

- temperature:       180.0000000
  free_energy:        32.8674931
  entropy:           444.7611518
  heat_capacity:     389.7346850
  energy:            112.9245004

- temperature:       190.0000000
  free_energy:        28.3127477
  entropy:           466.0760666
  heat_capacity:     398.6347639
  energy:            116.8672003

- temperature:       200.0000000
  free_energy:        23.5481784
  entropy:           486.7291146
  heat_capacity:     406.5759962
  energy:            120.8940013

- temperature:       210.0000000
  free_energy:        18.5803027
  entropy:           506.7410414
  heat_capacity:     413.6770782
  energy:            124.9959214

- temperature:       220.0000000
  free_energy:        13.4154180
  entropy:           526.1348728
  heat_capacity:     420.0418552
  energy:            129.1650900

- temperature:       230.0000000
  free_energy:         8.0595847
  entropy:           544.9348786
  heat_capacity:     425.7607195
  energy:            133.3946068

- temperature:       240.0000000
  free_energy:         2.5186173
  entropy:           563.1658197
  heat_capacity:     430.9121277
  energy:            137.6784141

- temperature:       250.0000000
  free_energy:        -3.2019172
  entropy:           580.8524110
  heat_capacity:     435.5640861
  energy:            142.0111855

- temperature:       260.0000000
  free_energy:        -9.0966974
  entropy:           598.0189451
  heat_capacity:     439.7755295
  energy:            146.3882283

- temperature:       270.0000000
  free_energy:       -15.1606414
  entropy:           614.6890379
  heat_capacity:     443.5975609
  energy:            150.8053988

- temperature:       280.0000000
  free_energy:       -21.3888994
  entropy:           630.8854621
  heat_capacity:     447.0745421
  energy:            155.2590300

- temperature:       290.0000000
  free_energy:       -27.7768446
  entropy:           646.6300457
  heat_capacity:     450.2450430
  energy:            159.7458686

- temperature:       300.0000000
  free_energy:       -34.3200637
  entropy:           661.9436181
  heat_capacity:     453.1426590
  energy:            164.2630217

- temperature:       310.0000000
  free_energy:       -41.0143465
  entropy:           676.8459895
  heat_capacity:     455.7967128
  energy:            168.8079103

- temperature:       320.0000000
  free_energy:       -47.8556756
  entropy:           691.3559548
  heat_capacity:     458.2328527
  energy:            173.3782299

- temperature:       330.0000000
  free_energy:       -54.8402170
  entropy:           705.4913127
  heat_capacity:     460.4735644
  energy:            177.9719162

- temperature:       340.0000000
  free_energy:       -61.9643094
  entropy:           719.2688979
  heat_capacity:     462.5386063
  energy:            182.5871159

- temperature:       350.0000000
  free_energy:       -69.2244555
  entropy:           732.7046186
  heat_capacity:     464.4453809
  energy:            187.2221610

- temperature:       360.0000000
  free_energy:       -76.6173124
  entropy:           745.8134993
  heat_capacity:     466.2092515
  energy:            191.8755474

- temperature:       370.0000000
  free_energy:       -84.1396834
  entropy:           758.6097258
  heat_capacity:     467.8438124
  energy:            196.5459152

- temperature:       380.0000000
  free_energy:       -91.7885095
  entropy:           771.1066904
  heat_capacity:     469.3611206
  energy:            201.2320329

- temperature:       390.0000000
  free_energy:       -99.5608619
  entropy:           783.3170371
  heat_capacity:     470.7718932
  energy:            205.9327826

- temperature:       400.0000000
  free_energy:      -107.4539347
  entropy:           795.2527057
  heat_capacity:     472.0856780
  energy:            210.6471476

- temperature:       410.0000000
  free_energy:      -115.4650380
  entropy:           806.9249743
  heat_capacity:     473.3109991
  energy:            215.3742014

- temperature:       420.0000000
  free_energy:      -123.5915918
  entropy:           818.3444999
  heat_capacity:     474.4554830
  energy:            220.1130982

- temperature:       430.0000000
  free_energy:      -131.8311192
  entropy:           829.5213574
  heat_capacity:     475.5259670
  energy:            224.8630645

- temperature:       440.0000000
  free_energy:      -140.1812418
  entropy:           840.4650756
  heat_capacity:     476.5285934
  energy:            229.6233914

- temperature:       450.0000000
  free_energy:      -148.6396737
  entropy:           851.1846719
  heat_capacity:     477.4688911
  energy:            234.3934286

- temperature:       460.0000000
  free_energy:      -157.2042167
  entropy:           861.6886845
  heat_capacity:     478.3518458
  energy:            239.1725782

- temperature:       470.0000000
  free_energy:      -165.8727558
  entropy:           871.9852027
  heat_capacity:     479.1819622
  energy:            243.9602895

- temperature:       480.0000000
  free_energy:      -174.6432547
  entropy:           882.0818950
  heat_capacity:     479.9633177
  energy:            248.7560549

- temperature:       490.0000000
  free_energy:      -183.5137519
  entropy:           891.9860358
  heat_capacity:     480.6996091
  energy:            253.5594056

- temperature:       500.0000000
  free_energy:      -192.4823566
  entropy:           901.7045295
  heat_capacity:     481.3941940
  energy:            258.3699081

- temperature:       510.0000000
  free_energy:      -201.5472456
  entropy:           911.2439339
  heat_capacity:     482.0501271
  energy:            263.1871607

- temperature:       520.0000000
  free_energy:      -210.7066592
  entropy:           920.6104813
  heat_capacity:     482.6701917
  energy:            268.0107911

- temperature:       530.0000000
  free_energy:      -219.9588988
  entropy:           929.8100986
  heat_capacity:     483.2569279
  energy:            272.8404535

- temperature:       540.0000000
  free_energy:      -229.3023235
  entropy:           938.8484257
  heat_capacity:     483.8126574
  energy:            277.6758263

- temperature:       550.0000000
  free_energy:      -238.7353476
  entropy:           947.7308327
  heat_capacity:     484.3395053
  energy:            282.5166104

- temperature:       560.0000000
  free_energy:      -248.2564375
  entropy:           956.4624361
  heat_capacity:     484.8394195
  energy:            287.3625267

- temperature:       570.0000000
  free_energy:      -257.8641099
  entropy:           965.0481138
  heat_capacity:     485.3141882
  energy:            292.2133150

- temperature:       580.0000000
  free_energy:      -267.5569289
  entropy:           973.4925190
  heat_capacity:     485.7654549
  energy:            297.0687321

- temperature:       590.0000000
  free_energy:      -277.3335042
  entropy:           981.8000932
  heat_capacity:     486.1947322
  energy:            301.9285508

- temperature:       600.0000000
  free_energy:      -287.1924888
  entropy:           989.9750783
  heat_capacity:     486.6034141
  energy:            306.7925581

- temperature:       610.0000000
  free_energy:      -297.1325773
  entropy:           998.0215280
  heat_capacity:     486.9927865
  energy:            311.6605547

- temperature:       620.0000000
  free_energy:      -307.1525039
  entropy:          1005.9433183
  heat_capacity:     487.3640378
  energy:            316.5323535

- temperature:       630.0000000
  free_energy:      -317.2510406
  entropy:          1013.7441576
  heat_capacity:     487.7182666
  energy:            321.4077787

- temperature:       640.0000000
  free_energy:      -327.4269957
  entropy:          1021.4275956
  heat_capacity:     488.0564904
  energy:            326.2866654

- temperature:       650.0000000
  free_energy:      -337.6792125
  entropy:          1028.9970320
  heat_capacity:     488.3796523
  energy:            331.1688583

- temperature:       660.0000000
  free_energy:      -348.0065672
  entropy:          1036.4557249
  heat_capacity:     488.6886274
  energy:            336.0542112

- temperature:       670.0000000
  free_energy:      -358.4079683
  entropy:          1043.8067979
  heat_capacity:     488.9842285
  energy:            340.9425863

- temperature:       680.0000000
  free_energy:      -368.8823545
  entropy:          1051.0532473
  heat_capacity:     489.2672117
  energy:            345.8338537

- temperature:       690.0000000
  free_energy:      -379.4286941
  entropy:          1058.1979491
  heat_capacity:     489.5382805
  energy:            350.7278908

- temperature:       700.0000000
  free_energy:      -390.0459835
  entropy:          1065.2436647
  heat_capacity:     489.7980904
  energy:            355.6245818

- temperature:       710.0000000
  free_energy:      -400.7332463
  entropy:          1072.1930471
  heat_capacity:     490.0472527
  energy:            360.5238172

- temperature:       720.0000000
  free_energy:      -411.4895318
  entropy:          1079.0486460
  heat_capacity:     490.2863382
  energy:            365.4254933

- temperature:       730.0000000
  free_energy:      -422.3139147
  entropy:          1085.8129135
  heat_capacity:     490.5158798
  energy:            370.3295121

- temperature:       740.0000000
  free_energy:      -433.2054935
  entropy:          1092.4882085
  heat_capacity:     490.7363763
  energy:            375.2357807

- temperature:       750.0000000
  free_energy:      -444.1633899
  entropy:          1099.0768013
  heat_capacity:     490.9482940
  energy:            380.1442110

- temperature:       760.0000000
  free_energy:      -455.1867479
  entropy:          1105.5808781
  heat_capacity:     491.1520702
  energy:            385.0547195

- temperature:       770.0000000
  free_energy:      -466.2747328
  entropy:          1112.0025448
  heat_capacity:     491.3481144
  energy:            389.9672267

- temperature:       780.0000000
  free_energy:      -477.4265308
  entropy:          1118.3438309
  heat_capacity:     491.5368111
  energy:            394.8816573

- temperature:       790.0000000
  free_energy:      -488.6413480
  entropy:          1124.6066932
  heat_capacity:     491.7185211
  energy:            399.7979396

- temperature:       800.0000000
  free_energy:      -499.9184096
  entropy:          1130.7930189
  heat_capacity:     491.8935836
  energy:            404.7160055

- temperature:       810.0000000
  free_energy:      -511.2569593
  entropy:          1136.9046291
  heat_capacity:     492.0623175
  energy:            409.6357902

- temperature:       820.0000000
  free_energy:      -522.6562590
  entropy:          1142.9432814
  heat_capacity:     492.2250228
  energy:            414.5572318

- temperature:       830.0000000
  free_energy:      -534.1155874
  entropy:          1148.9106734
  heat_capacity:     492.3819821
  energy:            419.4802715

- temperature:       840.0000000
  free_energy:      -545.6342404
  entropy:          1154.8084447
  heat_capacity:     492.5334617
  energy:            424.4048532

- temperature:       850.0000000
  free_energy:      -557.2115296
  entropy:          1160.6381798
  heat_capacity:     492.6797127
  energy:            429.3309233

- temperature:       860.0000000
  free_energy:      -568.8467823
  entropy:          1166.4014106
  heat_capacity:     492.8209720
  energy:            434.2584308

- temperature:       870.0000000
  free_energy:      -580.5393410
  entropy:          1172.0996182
  heat_capacity:     492.9574634
  energy:            439.1873269

- temperature:       880.0000000
  free_energy:      -592.2885627
  entropy:          1177.7342359
  heat_capacity:     493.0893982
  energy:            444.1175649

- temperature:       890.0000000
  free_energy:      -604.0938184
  entropy:          1183.3066502
  heat_capacity:     493.2169762
  energy:            449.0491003

- temperature:       900.0000000
  free_energy:      -615.9544928
  entropy:          1188.8182037
  heat_capacity:     493.3403865
  energy:            453.9818905

- temperature:       910.0000000
  free_energy:      -627.8699839
  entropy:          1194.2701963
  heat_capacity:     493.4598081
  energy:            458.9158947

- temperature:       920.0000000
  free_energy:      -639.8397024
  entropy:          1199.6638874
  heat_capacity:     493.5754104
  energy:            463.8510739

- temperature:       930.0000000
  free_energy:      -651.8630714
  entropy:          1205.0004970
  heat_capacity:     493.6873539
  energy:            468.7873907

- temperature:       940.0000000
  free_energy:      -663.9395260
  entropy:          1210.2812078
  heat_capacity:     493.7957910
  energy:            473.7248093

- temperature:       950.0000000
  free_energy:      -676.0685131
  entropy:          1215.5071668
  heat_capacity:     493.9008661
  energy:            478.6632954

- temperature:       960.0000000
  free_energy:      -688.2494906
  entropy:          1220.6794859
  heat_capacity:     494.0027163
  energy:            483.6028159

- temperature:       970.0000000
  free_energy:      -700.4819276
  entropy:          1225.7992443
  heat_capacity:     494.1014719
  energy:            488.5433394

- temperature:       980.0000000
  free_energy:      -712.7653038
  entropy:          1230.8674890
  heat_capacity:     494.1972565
  energy:            493.4848354

- temperature:       990.0000000
  free_energy:      -725.0991091
  entropy:          1235.8852364
  heat_capacity:     494.2901878
  energy:            498.4272750

- temperature:      1000.0000000
  free_energy:      -737.4828435
  entropy:          1240.8534735
  heat_capacity:     494.3803777
  energy:            503.3706301
