10
Lattice="4.513355668955745 0.008325953811117183 -0.0028732098192815712 -0.011666060464899741 6.107610094327083 -1.2173438384107877 0.0038230621707825976 0.07249591753265401 8.900786904751229" Properties=species:S:1:pos:R:3:forces:R:3 structure_index=0 total_energy=-35.21245574951172 stress="-0.006324656307697296 0.000836382620036602 -0.0009885984472930431 0.000836432387586683 0.012997559271752834 0.011214861646294594 -0.0009884927421808243 0.011214899830520153 0.006638232618570328" pbc="T T T"
Li       0.56558428       0.86017376       5.66788684       0.00023808      -0.04550055       0.00129310
Li       0.55837831       3.53874208       2.27050027       0.00096690       0.03283069       0.03323140
Li       2.81951263       2.65014329       6.74369028       0.00026412      -0.00831723      -0.01950782
Sn       2.81474886       4.22464066       0.29898334      -0.00150772       0.02266500       0.01245118
Sn       0.56023012       2.00776642      -0.31966152       0.00071521      -0.02262116      -0.00212982
Sn       0.56107519       4.01385425       5.39038129      -0.00157641      -0.01843262      -0.02840584
Sn       0.56360704       0.38151255       2.26873533       0.00084524       0.00111969       0.00034183
Sn       2.81813794       2.09924071       3.79320688       0.00042433       0.02224751       0.00638205
Sn       2.81412585       5.21765689       3.39945737      -0.00119854       0.02563585       0.01758372
Sn       2.81261613       5.96855300       6.65235836       0.00082880      -0.00962718      -0.02123980
15
Lattice="4.865429332231952 -0.001756689193536822 -1.1151188034070862 0.001547342915058801 5.2926718649019096 0.0067252026055027204 -0.02396383627833905 -0.013309627645725323 11.042935666020961" Properties=species:S:1:pos:R:3:forces:R:3 structure_index=1 total_energy=-39.55992126464844 stress="0.004718034062534571 -0.001105966977775097 0.007085968274623156 -0.0011059986427426338 -0.0011553855147212744 0.002236267551779747 0.007085505407303572 0.0022361951414495707 -0.0034440557938069105" pbc="T T T"
Li       1.96787384       0.05250712       3.59846437       0.00505081      -0.00273757      -0.00102671
Li       3.53866653       4.01576685      -0.73757485       0.00141112      -0.00162450       0.00348861
Li       2.66047260       1.36838139       0.94325816      -0.01112380      -0.00205891       0.00125750
Li       4.81957996       4.00616026       4.84945091      -0.00463250       0.00298131      -0.01747524
Li       0.19105923       1.36655963       1.50525734       0.01160724      -0.00076866      -0.00498686
Li       2.50497346       1.35833642       5.91838334      -0.00407284       0.00156994      -0.01738475
Li       0.86124756       2.66714257       9.88853238      -0.00538474       0.00358079      -0.00208515
Li       0.85886548       0.04389967       9.88362080      -0.00423277      -0.00341984      -0.00228827
Li       1.96921901       2.67775517       3.60342453       0.00551310       0.00174351       0.00115316
Li       4.18036208       4.01012941       2.07020378      -0.00109620       0.00092236      -0.00276270
Li       0.32234673       1.36170504       7.56648941       0.00480777      -0.00113132       0.01665818
Li       2.87456320       4.00509094       7.52536267       0.00528616      -0.00329316       0.01874857
Sn       1.42712486       4.01265856       1.22451395      -0.00040886       0.00380390       0.00113130
Sn       3.14984617       1.35542075       8.71825635       0.01032448       0.00412064       0.02548110
Sn       4.54424129       1.36309599       3.64946959      -0.01304906      -0.00368854      -0.01990878
14
Lattice="4.697733993539727 -0.008064620004116669 0.029822768640398026 -2.2899641511235505 6.814937696305678 -1.0053055209805333 -0.02544313615076456 -0.37677034964079337 8.061857414041022" Properties=species:S:1:pos:R:3:forces:R:3 structure_index=2 total_energy=-37.584503173828125 stress="-0.0025836608838289976 0.0005632127868011594 0.0002683332422748208 0.0005632908432744443 -0.0018381731351837516 -0.0006520445458590984 0.00026839846395887434 -0.0006520352326333523 -0.002532294485718012" pbc="T T T"
Li      -0.09663150       6.43319365       2.30314656      -0.01903201      -0.00257069       0.00497292
Li       2.15637801       6.27287853       6.43588600       0.01501110       0.00603900       0.00190416
Li      -0.27193896       1.34697928       4.79505807       0.02892319       0.00502810      -0.00452427
Li      -0.10285471       2.31898195       7.62286938      -0.03414544       0.00178795      -0.00520335
Li       2.08695569       0.21019650       6.12394463       0.03021433       0.00343406      -0.00024791
Li       2.23122312       3.49711308       6.33401327      -0.02798456       0.00193470      -0.00139790
Li      -0.27808092       3.66784426       2.11733389       0.04757443      -0.00856631       0.00291073
Li       2.09241885       2.65072091       3.41061088       0.02453727      -0.00359381       0.00237975
Li       2.14244735       4.54334435       0.95408224       0.01701681      -0.00085216       0.00288698
Li      -0.13573253       4.38288975       4.89244249      -0.00962697      -0.00626309      -0.00480307
Li      -0.10775571       0.49927695       2.01041797      -0.03833362       0.00441906      -0.00337067
Sn      -0.16317798       5.50450996      -0.41555135       0.00314178       0.00401400       0.00124413
Sn       2.21661640       5.42518084       3.67097368      -0.00586324      -0.00187831       0.00373757
Sn       2.25310750       1.66447996       0.76666505      -0.03143309      -0.00293250      -0.00048902
12
Lattice="4.35609649626201 0.00034030573320618956 -0.7596821933973201 -0.1352332559002752 4.396209021881552 -0.7702442740290866 -0.11623903774543858 -0.13286589231305157 12.190343507810146" Properties=species:S:1:pos:R:3:forces:R:3 structure_index=3 total_energy=-35.320716857910156 stress="-0.010474083945155144 -0.00015477114357054234 0.007056197617202997 -0.0001546670391689986 0.003586522536352277 0.005224768538028002 0.007056013215333223 0.005224652122706175 0.023363163694739342" pbc="T T T"
Li       2.69247998       4.01731050       3.00272255      -0.00016507      -0.00133982      -0.00583587
Li       1.64341515       0.64764977       9.84153921      -0.00634171      -0.00456948      -0.02986975
Li       2.42773596       1.47331008       1.48499131      -0.00083907      -0.00073448      -0.00931399
Li       1.01889809       0.00213684       6.26516227       0.00881749       0.01038939       0.04956746
Li       3.51650552       0.33311976       7.71278496       0.00684507       0.00805048       0.04352534
Li       3.74222867       2.83675868       9.01762609      -0.00245107      -0.00551713      -0.02109094
Li       2.02442816       3.32212807      -0.82727892      -0.00592107      -0.00422874      -0.02897456
Li       3.11939391       2.19205591       5.44736816       0.00992849       0.00754291       0.04588307
Sn       0.18333636       3.67321357       1.48574523      -0.00350841      -0.00449623      -0.02148965
Sn       4.12491754       0.96269804      11.20591963      -0.00484107      -0.00413502      -0.03244399
Sn       1.26447819       2.52526478       7.67640868      -0.00558121      -0.00654725      -0.03020746
Sn       0.62518668       1.86221510       4.00288825       0.00405764       0.00558537       0.04025038
12
Lattice="4.381770177399414 0.0005188010130657173 -0.7478676757325432 -0.12867603161009056 4.376504423746904 -0.7492320711589256 -0.14186353030731036 -0.1396345957157683 12.373697783279479" Properties=species:S:1:pos:R:3:forces:R:3 structure_index=4 total_energy=-35.3165283203125 stress="-0.017637193202972412 0.0011886472348123789 0.00803941860795021 0.0011886850697919726 -0.02943836897611618 0.009974527172744274 0.00803961232304573 0.009974636137485504 0.025691676884889603" pbc="T T T"
Li       3.07444988       1.72738306       7.13458002       0.00648145       0.00743524       0.04300877
Li       1.60930841       0.22401358      11.76203547       0.00113924       0.00096588       0.00504290
Li       0.55165667       1.38434148       5.57107079       0.00186298       0.00220116       0.00874686
Li       4.30483431       0.73822039       1.14109824      -0.00584774      -0.00681697      -0.03579992
Li       2.44527285       1.07798570       3.45469537      -0.00049061      -0.00026067      -0.00198580
Li       0.85187357       3.95012041       7.32829320      -0.00682266      -0.00693088      -0.03981370
Li       2.01964925       2.89397113       0.96399241       0.00470009       0.00573965       0.02647166
Li       1.24752505       2.10503075       9.64351482      -0.00116708      -0.00140348      -0.00768797
Sn       2.69617552       3.59206399       4.92899163      -0.00681884      -0.00781539      -0.04579246
Sn       3.48473831      -0.10138786       9.53764201       0.00794050       0.00835323       0.04856675
Sn       0.17274730       3.24800260       3.35212605       0.00630351       0.00771828       0.04071208
Sn       3.75370229       2.43211903      11.11714409      -0.00728081      -0.00918604      -0.04146918
4
Lattice="4.659102420607005 -0.0001960362095514302 0.002778631752864392 0.0032619383192807883 4.657492536032215 0.002841234873486886 -0.00016708589371316354 -0.0001704995058136954 4.656705657612948" Properties=species:S:1:pos:R:3:forces:R:3 structure_index=5 total_energy=-14.441778182983398 stress="0.05815449729561806 0.005925701931118965 0.005058131646364927 0.005925583653151989 0.053858689963817596 0.0051612332463264465 0.005058029666543007 0.005161259323358536 0.05177175998687744" pbc="T T T"
Li       0.70455070       3.29966080       3.37175223       0.00068490      -0.00053499       0.00000086
Sn       3.03308626       0.96968681       3.37177090       0.00022151       0.00060799      -0.00005054
Sn       3.03574746       3.29903377       1.04550075      -0.00071909      -0.00019090      -0.00068280
Sn       0.70421712       0.97035773       1.04126292      -0.00018733       0.00011791       0.00073248
8
Lattice="5.272225856781006 0.0 -0.005469424184411558 -0.014714401837003701 5.269786795834233 -0.005077424924822019 0.0 0.0 5.2724809646606445" Properties=species:S:1:pos:R:3:forces:R:3 structure_index=6 total_energy=-22.14642906188965 stress="0.04725424200296402 0.001513910130597651 0.0002817967615555972 0.0015136867295950651 0.020463697612285614 0.00035714905243366957 0.00028140703216195107 0.0003569127293303609 0.042305998504161835" pbc="T T T"
Li       3.55205930       4.47703317       2.55794549       0.00325461       0.00048128       0.00546383
Li       3.55623087       4.47334999       5.19673185       0.00062785       0.00271041      -0.00576621
Li       0.92760862       3.16032116       1.24417977      -0.00246770      -0.00902531      -0.00053100
Li       4.88020736       1.83770840       3.88000391      -0.00166810       0.00054342      -0.00111681
Li       2.24286608       1.84607518       3.88098450       0.00356210      -0.00328051      -0.00131306
Li       0.92645538       0.52062252       1.24859035       0.00145951       0.01010027      -0.00064817
Sn       0.91910130       4.47634874       3.87925587      -0.00298685       0.00034660       0.00198515
Sn       3.56360740       1.84109915       1.24348569      -0.00178146      -0.00187618       0.00192632
12
Lattice="4.545688834743208 0.004847640492767712 -0.009706278693681607 -0.006321975569406892 6.240402886011098 0.10861076087370868 0.019933312041007498 -0.020072918750384777 9.719480591764336" Properties=species:S:1:pos:R:3:forces:R:3 structure_index=7 total_energy=-40.2586555480957 stress="-0.013953058049082756 9.824376320466399e-05 2.1737889255746268e-05 9.818201215239242e-05 -0.023231638595461845 0.0015750597231090069 2.1746413040091284e-05 0.0015750509919598699 0.013252800330519676" pbc="T T T"
Li       1.89489644       0.56450716       3.12174175       0.00021117      -0.01469994      -0.00365222
Li       4.17034900       2.24068560       4.74703184      -0.00004984      -0.00503357      -0.01308431
Li       1.88633738       3.84874198       0.14568939      -0.00032607       0.01844224       0.02207005
Li       1.89962282       3.94669003       6.42497054      -0.00022002       0.01638785       0.01731558
Li       4.17670532       2.10805288       8.08430768       0.00019086      -0.02562029      -0.00235537
Sn       1.90243306       0.82943292       6.33791624      -0.00030635       0.00729016      -0.01443719
Sn       4.16743085       5.40649902       4.92480110      -0.00011881       0.00705196       0.00886311
Sn       4.17372063       5.23780283       8.03501413       0.00000110      -0.01189465       0.01539440
Sn       4.16358094       2.21080566       1.59386839      -0.00027320      -0.01340818       0.00053410
Sn       1.89266764       3.69285098       3.31127242      -0.00006061       0.00329649      -0.00380244
Sn       1.90771449       0.68356019       9.51314241       0.00054543      -0.00073541      -0.01645383
Sn       4.15968276       5.31407175       1.65139986       0.00040634       0.01892335      -0.01039189
10
Lattice="4.345022601483422 -0.01669874876841067 0.8028612756455272 0.015524112268149782 4.561755895788486 0.014155189109030528 0.11023417754782039 -0.03614440945660654 11.569004399525662" Properties=species:S:1:pos:R:3:forces:R:3 structure_index=8 total_energy=-33.9766960144043 stress="0.007938900031149387 0.000925229920540005 1.4816518159932457e-05 0.0009252862655557692 0.014062672853469849 0.0009812744101509452 1.4846502381260507e-05 0.000981188495643437 0.009120674803853035" pbc="T T T"
Li       0.16730024       3.68796150       5.25455597      -0.00159994       0.00046404       0.01025140
Li       0.53025801       1.41269536       3.22914045       0.00308113      -0.00024290      -0.00838057
Li       4.08536877       1.38624596       8.32344687       0.00025798       0.00004616      -0.00036767
Li       0.95828210       3.69843836       0.96782124      -0.00024519       0.00052187      -0.00000696
Sn       1.94261093       3.67681562       7.81088419       0.00176745      -0.00180002      -0.01170521
Sn       1.48089173       1.38961936      10.26132074       0.00235335      -0.00285810      -0.01805947
Sn       2.32480723       1.39899881       5.69069221      -0.00975442       0.00116374       0.04710967
Sn       3.10034403       1.40915885       1.48087366      -0.00064863       0.00025003       0.00801274
Sn       3.67377468       3.65988700      10.59885564      -0.00264961       0.00283256       0.01720128
Sn       2.71950920       3.68518276       3.59698806       0.00743790      -0.00037738      -0.04405523
12
Lattice="4.63741285365682 0.0005269444165737617 1.5600903347851907 1.5399960948435587 6.930302035310149 3.0920306853469164 -0.0199162638961407 0.004966270588566269 7.731400029986642" Properties=species:S:1:pos:R:3:forces:R:3 structure_index=9 total_energy=-39.19485855102539 stress="0.011168519034981728 0.000172295534866862 0.00428073201328516 0.00017229524382855743 0.020352603867650032 -0.0009905921760946512 0.004280734807252884 -0.000990615808404982 -0.00037974031874909997" pbc="T T T"
Li       2.23211414       5.18269222       9.91709420       0.00019864      -0.00297456      -0.00307421
Li       0.69266724       1.70837322       6.82120332       0.00064701      -0.00072159      -0.00143438
Li       2.25476607       1.70071937       2.18483036       0.00007047       0.00199784       0.00058406
Li       3.79026106       1.70787440       5.28174748       0.00030635       0.00238121       0.00061078
Li       3.79204567       5.17051893       5.28430917       0.00085132      -0.00058830      -0.00383100
Li       5.33300194       5.16802125       8.37378007      -0.00067851       0.00039418       0.00352203
Sn       4.57188484       3.43952626       2.96644070       0.00025786      -0.00048180      -0.00213094
Sn       3.01190707       3.43978721       7.60545433       0.00061744      -0.00152785      -0.00956123
Sn       1.47453355       3.43918646       4.49390909      -0.00191011      -0.00098557       0.01141102
Sn       4.55166111       6.90713629      10.68764393       0.00038105       0.00111846       0.00856250
Sn       3.01342812       6.90422949       7.59260965      -0.00191755       0.00078234       0.00611538
Sn       6.11142236       6.90209311       6.06588011       0.00117602       0.00060564      -0.01077403
12
Lattice="5.489248350348886 0.16545504939517444 0.4145946422340119 -0.47493183101122854 6.014637387087693 -1.0031886198110838 -0.19209576218772714 0.1263374270883918 8.27268346277572" Properties=species:S:1:pos:R:3:forces:R:3 structure_index=10 total_energy=-40.37042999267578 stress="0.028392737731337547 -0.0017504876013845205 0.0012331241741776466 -0.0017504463903605938 0.023957181721925735 0.011380811221897602 0.0012331241741776466 0.011380838230252266 0.009173097088932991" pbc="T T T"
Li       2.85268845       4.57526447      -0.02554760      -0.00622626       0.01824079       0.01724540
Li       4.04461813       1.74163482       0.61394426      -0.00553919      -0.00763972      -0.01121282
Li       3.79661261       3.82972705       3.11179573      -0.00904291      -0.01476881      -0.00252096
Li       0.30412817       1.56794009       4.38776745       0.01025706       0.00373611       0.01031068
Li       1.19191706       0.59024750       7.46537318       0.00149862      -0.01370688      -0.01678104
Sn       3.15813035       0.71287569       3.38939318       0.00760125       0.00425834       0.00851606
Sn       2.90572632       2.66139630       5.86540326       0.01515454      -0.00841446       0.00626022
Sn       1.22346646       2.59503165       1.59297912       0.01535658      -0.00356377      -0.00746955
Sn       0.06638025       3.55203211       6.92512225      -0.00942199      -0.01466326      -0.00766868
Sn       0.93460202       4.64818005       3.99046246      -0.00807742       0.01302004       0.00031243
Sn       3.59036096       5.74855954       5.51989666      -0.00513405       0.02577978       0.01770756
Sn      -0.01790894       5.58816148       0.92621191      -0.00642623      -0.00227816      -0.01469931
9
Lattice="4.192906013953886 -0.0005733510331884271 1.5763484593554185 2.096889545134415 6.2112637758130145 0.7887818420185253 -0.08845206263280582 0.0004499926271057014 6.598127407109625" Properties=species:S:1:pos:R:3:forces:R:3 structure_index=11 total_energy=-20.8084774017334 stress="0.008121890015900135 -0.0008818587521091104 -0.013577760197222233 -0.0008819328504614532 0.030593780800700188 0.0010299214627593756 -0.01357757393270731 0.0010299128480255604 0.03606735169887543" pbc="T T T"
Li       5.12944954       5.10050776       2.19681031      -0.00687743       0.02655277       0.02035916
Li       3.69907573       5.10158021       6.00129876       0.00937405       0.02513551      -0.02355550
Li       3.03369232       2.96411607       1.40815050      -0.00807786      -0.02595118       0.02082987
Li       2.31975171       5.19290995       3.30909478      -0.00203439      -0.00132480       0.00030682
Li       3.72821008       0.92695919       5.92201881       0.00051255       0.00041570      -0.00020664
Li       0.90920095       0.92749775       0.69352252      -0.00203551       0.00008757       0.00345826
Li       1.60476447       2.96267693       5.21154652       0.00626145      -0.02288152      -0.02252596
Li       4.41495070       2.87485469       4.09610038       0.00010613      -0.00166481       0.00175870
Sn       2.31724186       0.92709293       3.30921384       0.00277100      -0.00036926      -0.00042472
12
Lattice="4.581079585235697 0.004143785218649804 -0.0009867168527837623 -0.00470960364877151 5.832441415042861 -0.007245812951510355 0.0018032601692312513 0.007154179039422539 8.52082422342812" Properties=species:S:1:pos:R:3:forces:R:3 structure_index=12 total_energy=-35.56658172607422 stress="0.006963114719837904 6.344978464767337e-05 -8.498852548655123e-05 6.343274435494095e-05 0.021957388147711754 -0.0003544955688994378 -8.50652068038471e-05 -0.0003544251376297325 -0.005801809951663017" pbc="T T T"
Li       2.12950082       2.08734895       0.88638412       0.00026412       0.02200115      -0.03213254
Li       2.13152179       2.79873058       6.52971481      -0.00052194       0.00396376      -0.04196275
Li       2.12864399       5.71110894       3.93254395      -0.00062815       0.00386846       0.04096265
Li       4.42261604       1.60667873       5.32098665       0.00001912      -0.02127508       0.03205194
Li       4.42266261       0.90571257       8.19837478       0.00097029      -0.00609114       0.04131435
Li       2.12774580       5.00404855       1.05479557      -0.00020999       0.02151429       0.03264403
Li       4.41907988       3.81410350       2.26617955       0.00074471      -0.00321131      -0.04089718
Li       4.42083990       4.52264892       5.14375976      -0.00054129      -0.02117820      -0.03299553
Sn       4.42191836       0.90598751       2.54162087       0.00032580      -0.00765041       0.01456736
Sn       4.42117960       3.82722830       7.92360630      -0.00026301      -0.00360406      -0.01433524
Sn       2.12896277       5.70867435       6.79557023      -0.00045238       0.00435189       0.01686769
Sn       2.13009893       2.78742851       3.66592489       0.00029273       0.00731065      -0.01608475
8
Lattice="5.399243592812549 0.14774073262949913 3.2894248606182535 2.0981646041839817 4.979894852179922 3.2855847414144694 0.013023664516773406 0.014568870518325634 6.601834104307449" Properties=species:S:1:pos:R:3:forces:R:3 structure_index=13 total_energy=-25.76457977294922 stress="-0.01986547000706196 0.00512234540656209 -0.0004509004356805235 0.005122264381498098 -0.023552894592285156 8.994283416541293e-05 -0.00045092302025295794 9.001527359941974e-05 0.038545023649930954" pbc="T T T"
Li       2.66158762       3.95578251       8.21488408       0.00001719      -0.00029729       0.00172874
Li       1.61428835       1.46521983       6.57429908      -0.00128518      -0.00057693      -0.00035385
Li       1.60169424       1.45586683       3.26937110       0.00153904       0.00204361       0.00042903
Li       4.30509401       1.53042244       4.91777310      -0.00032841       0.00087076      -0.00036074
Sn       2.65117111       3.94452986       4.91490207       0.00369706       0.00327504      -0.00081836
Sn       4.31437876       1.54195927       8.21732971      -0.00347283      -0.00297475       0.00156485
Sn       5.35264615       4.02364494       6.55883897       0.00143692      -0.00174369       0.00169293
Sn       5.36202370       4.02946771       9.86594732      -0.00160379      -0.00059674      -0.00388259
4
Lattice="4.230342413436516 0.0002880268426446224 -1.851124207313798 -0.8104834244554189 4.154329468446323 -1.8489818061534542 -0.005302785694022482 -0.006685452838388203 5.748193592720213" Properties=species:S:1:pos:R:3:forces:R:3 structure_index=14 total_energy=-14.438165664672852 stress="-0.048511307686567307 0.018527131527662277 0.038009416311979294 0.018527133390307426 -0.03667102009057999 0.047961510717868805 0.03800945729017258 0.04796154052019119 0.021741127595305443" pbc="T T T"
Li      -0.23609407       1.38750317       4.17784936       0.00101050      -0.00049196      -0.00045424
Sn       2.73882024       2.42496047      -0.54670129      -0.00023451       0.00499956      -0.00107275
Sn       1.02929720       0.35251696       1.30116570      -0.00069429      -0.00230256       0.00259341
Sn       1.47527530       3.46549646       2.32802458      -0.00008170      -0.00220504      -0.00106642
4
Lattice="4.35547891506407 0.00106013697313708 -1.6574728690460605 -0.7919788278659955 4.114638068950913 -2.080733909439645 -0.7609984639015278 -0.5046492667571068 4.55217819235272" Properties=species:S:1:pos:R:3:forces:R:3 structure_index=15 total_energy=-11.253750801086426 stress="0.022605059668421745 -0.027899453416466713 -0.02218354120850563 -0.02789927087724209 0.07102131843566895 -0.07554728537797928 -0.022183379158377647 -0.07554741948843002 -0.025629285722970963" pbc="T T T"
Li       2.85191804       1.76501051       0.87066809       0.01481136       0.02309818       0.04056617
Li       1.08319989      -0.27260434       2.77555003      -0.01458806      -0.02255007      -0.04014551
Li       0.17050932       0.99796963       0.37583601      -0.00027186       0.00007917      -0.00007554
Sn       1.95206556       3.05603580      -1.49323215       0.00004858      -0.00062731      -0.00034509
3
Lattice="4.270081091015017 0.0004253639015045322 2.4641551332488154 1.421877981287605 4.025386036657792 2.4659823534771923 0.0009720778412245853 0.0005874087612115546 4.929680145821124" Properties=species:S:1:pos:R:3:forces:R:3 structure_index=16 total_energy=-10.299489974975586 stress="-0.04765883833169937 -0.0013052956201136112 -0.008320421911776066 -0.0013053329894319177 -0.04183843731880188 -0.004791421815752983 -0.00832044705748558 -0.004791428800672293 -0.048732224851846695" pbc="T T T"
Li       4.66037123       3.34816159       6.63722750      -0.00083085      -0.00055536      -0.00292774
Sn       1.81274323       1.33531598       1.70735979      -0.00151827      -0.00252043      -0.00818632
Sn       3.23567571       2.34083982       4.16866171       0.00234912       0.00307580       0.01111406
18
Lattice="4.700110481251373 -0.0021699352162945383 9.604462956109102e-05 -2.3484676841666734 4.07148297530258 0.0004150773185598519 0.009799507158398656 -0.0018858156858799768 20.295218046958677" Properties=species:S:1:pos:R:3:forces:R:3 structure_index=17 total_energy=-53.347190856933594 stress="0.0007469179108738899 3.901272430084646e-05 0.0001507536944700405 3.902766547980718e-05 0.0017134082736447453 0.0003178748011123389 0.00015092894318513572 0.00031762078288011253 0.0013201762922108173" pbc="T T T"
Li       0.29423650       0.12794296       2.03597776      -0.00119619       0.00009131       0.03824022
Li       2.64511201       1.48369660       2.98218295      -0.00003005       0.00009039       0.01340644
Li       0.30053271       2.84532347       8.89489585      -0.00044617       0.00012743      -0.00039843
Li       2.64536731       1.48417665       5.91287756       0.00039046      -0.00012867      -0.00001711
Li       0.29838523       0.13273250      16.28128135      -0.00009970       0.00057649      -0.04735612
Li       2.64789289       1.49077862      14.15089260       0.00111836      -0.00044953      -0.03741826
Li       0.29860636       0.13542375      13.30154412      -0.00109511      -0.00078037      -0.01499990
Li       0.29502171       0.12821086       4.84987450      -0.00050071      -0.00038031       0.03054292
Li       0.29910956       0.13371953      10.53312718      -0.00044247       0.00022326       0.00908279
Li       2.64995098       1.48702263       8.54803918      -0.00060811      -0.00001012      -0.01922716
Li       2.64925019       1.49067116      11.39265716       0.00015109      -0.00015523      -0.03552299
Sn       2.65356270       1.48213278      20.13950597      -0.00138415       0.00063968       0.01260130
Sn       0.29577869       2.84153387       3.98091996      -0.00023569       0.00025535       0.02964210
Sn       0.29878822       2.84743834      15.32691520       0.00084323      -0.00029573      -0.01242503
Sn       0.29960579       2.84867946      12.18351015       0.00029159      -0.00025850       0.00266531
Sn       0.29405720       2.84182268       0.97715339       0.00277654      -0.00072865       0.01283170
Sn       2.64951009       1.48801703      17.14297190      -0.00075210       0.00050279      -0.00553972
Sn       0.29876317       0.13122644       7.69772486       0.00121918       0.00068037       0.02389194
3
Lattice="4.269506831849695 0.0001983382219808307 2.4603963542117295 1.422381383533718 4.0233105406081116 2.457857649961879 5.408050964434721e-05 0.00017688913133209763 4.925462199135994" Properties=species:S:1:pos:R:3:forces:R:3 structure_index=18 total_energy=-10.299468994140625 stress="-0.08621148020029068 -0.0009237515041604638 -6.419776127586374e-06 -0.0009237808408215642 -0.08506510406732559 -0.0014512380585074425 -6.695790943922475e-06 -0.001451224321499467 -0.09213974326848984" pbc="T T T"
Li       2.53331857       4.00450716       7.40128992       0.00063991       0.00040797       0.00082634
Sn       3.95865955       1.99257494       4.94254861       0.00220176       0.00165916       0.00130175
Sn       2.53568979       0.98740214       2.48112550      -0.00284168      -0.00206713      -0.00212810
12
Lattice="4.287630381042326 0.0003774176041448251 1.188936666319407 1.264819538334555 7.212415171697176 3.762917218288161 0.07753805936485267 0.27145956445669933 8.045203949720689" Properties=species:S:1:pos:R:3:forces:R:3 structure_index=19 total_energy=-37.119911193847656 stress="0.02975013665854931 -0.0012113897828385234 0.0018355128122493625 -0.001211447292007506 0.028659269213676453 0.003841811791062355 0.0018356405198574066 0.003841992700472474 0.02351509965956211" pbc="T T T"
Li       1.94123240       0.86793049       1.66684779      -0.00284451       0.02419268       0.01146391
Li       3.30981037       5.18582349       5.05803660       0.00063066       0.01965974      -0.00222349
Li       4.16445949       5.81780148      10.30116450       0.00499249      -0.01732131      -0.02006410
Li       2.76573743       1.52676438       7.01661823       0.00204678      -0.01164746      -0.00549669
Li       4.42561777       2.70421352       9.35876789      -0.00542879      -0.01289808       0.01831242
Li       1.12019895       0.29511367       4.62538921       0.00088901      -0.02052758      -0.00062083
Li       1.66104129       3.91790625       2.67732294       0.00231291       0.01048276      -0.00743614
Sn       3.56550826       2.26216060       4.13600874       0.00054240      -0.00390016      -0.00345803