# Thermal properties / unit cell (natom)

unit:
  temperature:   K
  free_energy:   kJ/mol
  entropy:       J/K/mol
  heat_capacity: J/K/mol

natom: 10   
cutoff_frequency: 0.00000
num_modes: 105270
num_integrated_modes: 104503

zero_point_energy:       8.7004726

thermal_properties:
- temperature:         0.0000000
  free_energy:         8.7004726
  entropy:             0.0000000
  heat_capacity:       0.0000000
  energy:              8.7004726

- temperature:        10.0000000
  free_energy:         8.6669256
  entropy:            11.3280264
  heat_capacity:      27.8510180
  energy:              8.7802058

- temperature:        20.0000000
  free_energy:         8.3615674
  entropy:            53.7436288
  heat_capacity:     103.6783246
  energy:              9.4364400

- temperature:        30.0000000
  free_energy:         7.5574045
  entropy:           107.2308396
  heat_capacity:     158.9838390
  energy:             10.7743297

- temperature:        40.0000000
  free_energy:         6.2282227
  entropy:           157.6880768
  heat_capacity:     190.2969477
  energy:             12.5357458

- temperature:        50.0000000
  free_energy:         4.4235534
  entropy:           202.2556952
  heat_capacity:     208.2510451
  energy:             14.5363381

- temperature:        60.0000000
  free_energy:         2.2016761
  entropy:           241.2657619
  heat_capacity:     219.1603187
  energy:             16.6776218

- temperature:        70.0000000
  free_energy:        -0.3862332
  entropy:           275.6140842
  heat_capacity:     226.1838904
  energy:             18.9067527

- temperature:        80.0000000
  free_energy:        -3.2979040
  entropy:           306.1463593
  heat_capacity:     230.9357598
  energy:             21.1938047

- temperature:        90.0000000
  free_energy:        -6.4987514
  entropy:           333.5509566
  heat_capacity:     234.2858862
  energy:             23.5208347

- temperature:       100.0000000
  free_energy:        -9.9603122
  entropy:           358.3683494
  heat_capacity:     236.7297937
  energy:             25.8765227

- temperature:       110.0000000
  free_energy:       -13.6589129
  entropy:           381.0211227
  heat_capacity:     238.5641584
  energy:             28.2534106

- temperature:       120.0000000
  free_energy:       -17.5746357
  entropy:           401.8419594
  heat_capacity:     239.9744939
  energy:             30.6463995

- temperature:       130.0000000
  free_energy:       -21.6905338
  entropy:           421.0955888
  heat_capacity:     241.0812444
  energy:             33.0518928

- temperature:       140.0000000
  free_energy:       -25.9920383
  entropy:           438.9951618
  heat_capacity:     241.9651915
  energy:             35.4672844

- temperature:       150.0000000
  free_energy:       -30.4665056
  entropy:           455.7143141
  heat_capacity:     242.6820692
  energy:             37.8906415

- temperature:       160.0000000
  free_energy:       -35.1028692
  entropy:           471.3960665
  heat_capacity:     243.2712921
  energy:             40.3205014

- temperature:       170.0000000
  free_energy:       -39.8913678
  entropy:           486.1594435
  heat_capacity:     243.7613477
  energy:             42.7557376

- temperature:       180.0000000
  free_energy:       -44.8233318
  entropy:           500.1044456
  heat_capacity:     244.1732266
  energy:             45.1954684

- temperature:       190.0000000
  free_energy:       -49.8910127
  entropy:           513.3158267
  heat_capacity:     244.5226630
  energy:             47.6389944

- temperature:       200.0000000
  free_energy:       -55.0874454
  entropy:           525.8659958
  heat_capacity:     244.8216345
  energy:             50.0857537

- temperature:       210.0000000
  free_energy:       -60.4063372
  entropy:           537.8172719
  heat_capacity:     245.0793859
  energy:             52.5352899

- temperature:       220.0000000
  free_energy:       -65.8419753
  entropy:           549.2236528
  heat_capacity:     245.3031433
  energy:             54.9872283

- temperature:       230.0000000
  free_energy:       -71.3891515
  entropy:           560.1322180
  heat_capacity:     245.4986191
  energy:             57.4412586

- temperature:       240.0000000
  free_energy:       -77.0430985
  entropy:           570.5842507
  heat_capacity:     245.6703771
  energy:             59.8971217

- temperature:       250.0000000
  free_energy:       -82.7994365
  entropy:           580.6161439
  heat_capacity:     245.8220975
  energy:             62.3545994

- temperature:       260.0000000
  free_energy:       -88.6541287
  entropy:           590.2601371
  heat_capacity:     245.9567752
  energy:             64.8135069

- temperature:       270.0000000
  free_energy:       -94.6034422
  entropy:           599.5449208
  heat_capacity:     246.0768662
  energy:             67.2736864

- temperature:       280.0000000
  free_energy:      -100.6439155
  entropy:           608.4961356
  heat_capacity:     246.1844005
  energy:             69.7350024

- temperature:       290.0000000
  free_energy:      -106.7723300
  entropy:           617.1367868
  heat_capacity:     246.2810670
  energy:             72.1973382

- temperature:       300.0000000
  free_energy:      -112.9856853
  entropy:           625.4875920
  heat_capacity:     246.3682806
  energy:             74.6605923

- temperature:       310.0000000
  free_energy:      -119.2811783
  entropy:           633.5672728
  heat_capacity:     246.4472333
  energy:             77.1246763

- temperature:       320.0000000
  free_energy:      -125.6561838
  entropy:           641.3928018
  heat_capacity:     246.5189352
  energy:             79.5895128

- temperature:       330.0000000
  free_energy:      -132.1082387
  entropy:           648.9796135
  heat_capacity:     246.5842469
  energy:             82.0550337

- temperature:       340.0000000
  free_energy:      -138.6350274
  entropy:           656.3417832
  heat_capacity:     246.6439049
  energy:             84.5211789

- temperature:       350.0000000
  free_energy:      -145.2343686
  entropy:           663.4921820
  heat_capacity:     246.6985428
  energy:             86.9878951

- temperature:       360.0000000
  free_energy:      -151.9042046
  entropy:           670.4426095
  heat_capacity:     246.7487081
  energy:             89.4551348

- temperature:       370.0000000
  free_energy:      -158.6425905
  entropy:           677.2039092
  heat_capacity:     246.7948754
  energy:             91.9228559

- temperature:       380.0000000
  free_energy:      -165.4476857
  entropy:           683.7860687
  heat_capacity:     246.8374583
  energy:             94.3910204

- temperature:       390.0000000
  free_energy:      -172.3177455
  entropy:           690.1983074
  heat_capacity:     246.8768181
  energy:             96.8595943

- temperature:       400.0000000
  free_energy:      -179.2511139
  entropy:           696.4491526
  heat_capacity:     246.9132718
  energy:             99.3285471

- temperature:       410.0000000
  free_energy:      -186.2462170
  entropy:           702.5465074
  heat_capacity:     246.9470985
  energy:            101.7978510

- temperature:       420.0000000
  free_energy:      -193.3015570
  entropy:           708.4977098
  heat_capacity:     246.9785445
  energy:            104.2674811

- temperature:       430.0000000
  free_energy:      -200.4157068
  entropy:           714.3095850
  heat_capacity:     247.0078279
  energy:            106.7374147

- temperature:       440.0000000
  free_energy:      -207.5873055
  entropy:           719.9884923
  heat_capacity:     247.0351424
  energy:            109.2076311

- temperature:       450.0000000
  free_energy:      -214.8150533
  entropy:           725.5403663
  heat_capacity:     247.0606606
  energy:            111.6781116

- temperature:       460.0000000
  free_energy:      -222.0977079
  entropy:           730.9707538
  heat_capacity:     247.0845366
  energy:            114.1488389

- temperature:       470.0000000
  free_energy:      -229.4340807
  entropy:           736.2848469
  heat_capacity:     247.1069081
  energy:            116.6197973

- temperature:       480.0000000
  free_energy:      -236.8230334
  entropy:           741.4875122
  heat_capacity:     247.1278990
  energy:            119.0909724

- temperature:       490.0000000
  free_energy:      -244.2634748
  entropy:           746.5833181
  heat_capacity:     247.1476204
  energy:            121.5623510

- temperature:       500.0000000
  free_energy:      -251.7543580
  entropy:           751.5765578
  heat_capacity:     247.1661727
  energy:            124.0339209

- temperature:       510.0000000
  free_energy:      -259.2946776
  entropy:           756.4712715
  heat_capacity:     247.1836464
  energy:            126.5056709

- temperature:       520.0000000
  free_energy:      -266.8834677
  entropy:           761.2712658
  heat_capacity:     247.2001236
  energy:            128.9775905

- temperature:       530.0000000
  free_energy:      -274.5197992
  entropy:           765.9801310
  heat_capacity:     247.2156785
  energy:            131.4496703

- temperature:       540.0000000
  free_energy:      -282.2027779
  entropy:           770.6012576
  heat_capacity:     247.2303787
  energy:            133.9219013

- temperature:       550.0000000
  free_energy:      -289.9315425
  entropy:           775.1378505
  heat_capacity:     247.2442857
  energy:            136.3942752

- temperature:       560.0000000
  free_energy:      -297.7052632
  entropy:           779.5929424
  heat_capacity:     247.2574554
  energy:            138.8667845

- temperature:       570.0000000
  free_energy:      -305.5231393
  entropy:           783.9694059
  heat_capacity:     247.2699392
  energy:            141.3394220

- temperature:       580.0000000
  free_energy:      -313.3843983
  entropy:           788.2699647
  heat_capacity:     247.2817837
  energy:            143.8121812

- temperature:       590.0000000
  free_energy:      -321.2882942
  entropy:           792.4972033
  heat_capacity:     247.2930320
  energy:            146.2850557

- temperature:       600.0000000
  free_energy:      -329.2341062
  entropy:           796.6535769
  heat_capacity:     247.3037232
  energy:            148.7580400

- temperature:       610.0000000
  free_energy:      -337.2211373
  entropy:           800.7414193
  heat_capacity:     247.3138937
  energy:            151.2311285

- temperature:       620.0000000
  free_energy:      -345.2487136
  entropy:           804.7629512
  heat_capacity:     247.3235767
  energy:            153.7043162

- temperature:       630.0000000
  free_energy:      -353.3161824
  entropy:           808.7202871
  heat_capacity:     247.3328027
  energy:            156.1775985

- temperature:       640.0000000
  free_energy:      -361.4229120
  entropy:           812.6154420
  heat_capacity:     247.3416003
  energy:            158.6509708

- temperature:       650.0000000
  free_energy:      -369.5682904
  entropy:           816.4503377
  heat_capacity:     247.3499953
  energy:            161.1244291

- temperature:       660.0000000
  free_energy:      -377.7517240
  entropy:           820.2268084
  heat_capacity:     247.3580121
  energy:            163.5979695

- temperature:       670.0000000
  free_energy:      -385.9726376
  entropy:           823.9466057
  heat_capacity:     247.3656730
  energy:            166.0715882

- temperature:       680.0000000
  free_energy:      -394.2304728
  entropy:           827.6114039
  heat_capacity:     247.3729988
  energy:            168.5452818

- temperature:       690.0000000
  free_energy:      -402.5246877
  entropy:           831.2228041
  heat_capacity:     247.3800087
  energy:            171.0190471

- temperature:       700.0000000
  free_energy:      -410.8547560
  entropy:           834.7823386
  heat_capacity:     247.3867206
  energy:            173.4928810

- temperature:       710.0000000
  free_energy:      -419.2201665
  entropy:           838.2914748
  heat_capacity:     247.3931512
  energy:            175.9667806

- temperature:       720.0000000
  free_energy:      -427.6204222
  entropy:           841.7516186
  heat_capacity:     247.3993159
  energy:            178.4407431

- temperature:       730.0000000
  free_energy:      -436.0550401
  entropy:           845.1641180
  heat_capacity:     247.4052293
  energy:            180.9147661

- temperature:       740.0000000
  free_energy:      -444.5235501
  entropy:           848.5302663
  heat_capacity:     247.4109048
  energy:            183.3888469

- temperature:       750.0000000
  free_energy:      -453.0254950
  entropy:           851.8513046
  heat_capacity:     247.4163549
  energy:            185.8629834

- temperature:       760.0000000
  free_energy:      -461.5604298
  entropy:           855.1284252
  heat_capacity:     247.4215916
  energy:            188.3371733

- temperature:       770.0000000
  free_energy:      -470.1279210
  entropy:           858.3627734
  heat_capacity:     247.4266257
  energy:            190.8114146

- temperature:       780.0000000
  free_energy:      -478.7275464
  entropy:           861.5554507
  heat_capacity:     247.4314676
  energy:            193.2857052

- temperature:       790.0000000
  free_energy:      -487.3588946
  entropy:           864.7075164
  heat_capacity:     247.4361269
  energy:            195.7600433

- temperature:       800.0000000
  free_energy:      -496.0215647
  entropy:           867.8199899
  heat_capacity:     247.4406127
  energy:            198.2344272

- temperature:       810.0000000
  free_energy:      -504.7151657
  entropy:           870.8938528
  heat_capacity:     247.4449335
  energy:            200.7088550

- temperature:       820.0000000
  free_energy:      -513.4393162
  entropy:           873.9300507
  heat_capacity:     247.4490974
  energy:            203.1833253

- temperature:       830.0000000
  free_energy:      -522.1936442
  entropy:           876.9294948
  heat_capacity:     247.4531117
  energy:            205.6578365

- temperature:       840.0000000
  free_energy:      -530.9777866
  entropy:           879.8930638
  heat_capacity:     247.4569836
  energy:            208.1323871

- temperature:       850.0000000
  free_energy:      -539.7913887
  entropy:           882.8216052
  heat_capacity:     247.4607198
  energy:            210.6069757

- temperature:       860.0000000
  free_energy:      -548.6341046
  entropy:           885.7159368
  heat_capacity:     247.4643265
  energy:            213.0816010

- temperature:       870.0000000
  free_energy:      -557.5055961
  entropy:           888.5768482
  heat_capacity:     247.4678096
  energy:            215.5562618

- temperature:       880.0000000
  free_energy:      -566.4055327
  entropy:           891.4051018
  heat_capacity:     247.4711747
  energy:            218.0309568

- temperature:       890.0000000
  free_energy:      -575.3335917
  entropy:           894.2014344
  heat_capacity:     247.4744271
  energy:            220.5056849

- temperature:       900.0000000
  free_energy:      -584.2894574
  entropy:           896.9665582
  heat_capacity:     247.4775717
  energy:            222.9804450

- temperature:       910.0000000
  free_energy:      -593.2728212
  entropy:           899.7011617
  heat_capacity:     247.4806133
  energy:            225.4552360

- temperature:       920.0000000
  free_energy:      -602.2833811
  entropy:           902.4059109
  heat_capacity:     247.4835563
  energy:            227.9300569

- temperature:       930.0000000
  free_energy:      -611.3208420
  entropy:           905.0814504
  heat_capacity:     247.4864050
  energy:            230.4049068

- temperature:       940.0000000
  free_energy:      -620.3849148
  entropy:           907.7284038
  heat_capacity:     247.4891633
  energy:            232.8797847

- temperature:       950.0000000
  free_energy:      -629.4753168
  entropy:           910.3473754
  heat_capacity:     247.4918349
  energy:            235.3546898

- temperature:       960.0000000
  free_energy:      -638.5917710
  entropy:           912.9389502
  heat_capacity:     247.4944236
  energy:            237.8296212

- temperature:       970.0000000
  free_energy:      -647.7340064
  entropy:           915.5036953
  heat_capacity:     247.4969326
  energy:            240.3045780

- temperature:       980.0000000
  free_energy:      -656.9017573
  entropy:           918.0421601
  heat_capacity:     247.4993653
  energy:            242.7795596

- temperature:       990.0000000
  free_energy:      -666.0947638
  entropy:           920.5548776
  heat_capacity:     247.5017247
  energy:            245.2545651

- temperature:      1000.0000000
  free_energy:      -675.3127708
  entropy:           923.0423646
  heat_capacity:     247.5040137
  energy:            247.7295938
