12
Lattice="4.517129163266997 0.0024863043834948664 -0.0005613246861183491 -0.003401926878777878 6.0247158166437345 -0.11696361278040339 0.0008990177713893363 -0.03415473281623956 9.128881878028723" Properties=species:S:1:pos:R:3:forces:R:3 structure_index=0 total_energy=-37.56839370727539 stress="-0.001393698388710618 -0.00032037796336226165 -7.112403545761481e-05 -0.0003203597734682262 -0.010049222968518734 0.001538018579594791 -7.11262910044752e-05 0.00153794651851058 0.013320880010724068" pbc="T T T"
Li       2.46467059       5.44427280       2.14953943       0.00067544       0.01162508       0.00656002
Li       2.46621418       5.33144390       8.30133146      -0.00096230      -0.00912185      -0.00777888
Li       2.46674198       2.39689162       2.26070188      -0.00016232      -0.02199017      -0.04287617
Li       2.46615387       5.38902532       5.22537423      -0.00045282       0.00067801       0.00035954
Li       2.46685218       2.35643184       8.30435022       0.00087128       0.02079922       0.04409350
Ga       0.20899145       0.89622832       3.78719823       0.00032066       0.02490536      -0.02206922
Ga       0.20802524       3.85613884       6.77949204      -0.00009190      -0.02758345       0.02323646
Sn       0.20694181       3.89520346       0.64692142       0.00033425       0.01904291       0.02017206
Sn       0.20989803       0.77095515       6.89131707      -0.00032027      -0.01792393      -0.00064895
Sn       2.46714045       2.37671324       5.28268130       0.00002328      -0.00048398       0.00104524
Sn       0.20891252       0.88732208       0.79160918      -0.00019969      -0.01694403      -0.01868166
Sn       0.20758879       3.98107750       3.67728795      -0.00003562       0.01699683      -0.00341196
10
Lattice="3.014080836749769 0.0007509834970606488 -0.0004479349592930278 -0.0020798684577586126 7.91018088585468 -0.0003948976535576947 0.0011418017418588482 0.0003322723341295846 7.910942994133903" Properties=species:S:1:pos:R:3:forces:R:3 structure_index=1 total_energy=-28.909151077270508 stress="0.03889108821749687 5.421587047749199e-05 1.6204458006541245e-05 5.430135570350103e-05 0.020448777824640274 -0.00011741052003344521 1.639684705878608e-05 -0.00011723727220669389 0.0213452335447073" pbc="T T T"
Li       2.25660223       4.80705082       7.80418494       0.00073434       0.02101358       0.02401130
Li       2.25604121       5.93183410       3.84980905      -0.00005083      -0.02134688       0.02382932
Li       2.25764690       0.84807678       1.02657700      -0.00104509       0.02291206      -0.02343627
Li       2.25684056       1.97889606       4.98240300       0.00049728      -0.02284899      -0.02380959
Ga       0.74939101       4.31914036       5.46602742       0.00007318      -0.01115070       0.00968942
Ga       0.75026678       0.36350686       3.36778623       0.00022461      -0.01049873      -0.00968860
Ga       0.75048704       2.46374924       7.32334112      -0.00014133       0.01056528      -0.00981072
Ga       0.74904129       6.41741047       1.51099227      -0.00092090       0.01095263       0.01000819
Sn       0.74841802       7.34648352       6.39399364       0.00063397       0.00083782      -0.00137364
Sn       0.74949066       3.39067225       2.43732484      -0.00000519      -0.00043603       0.00058056
5
Lattice="4.3566443780877515 0.001416990028262885 1.5211449125513876 1.908426383615444 3.915959535113153 1.51788601493389 -0.10616002443552087 -0.06559722801926886 7.325673467572624" Properties=species:S:1:pos:R:3:forces:R:3 structure_index=2 total_energy=-15.564516067504883 stress="0.04469842463731766 -0.004323525819927454 0.019057823345065117 -0.00432346248999238 0.04837478697299957 0.011407147161662579 0.019057931378483772 0.011407156474888325 0.0012407959438860416" pbc="T T T"
Li       0.70340571       1.34743496       4.85634884      -0.00082806      -0.00026473       0.00159007
Ga       3.37301049       0.29412758       4.21025708      -0.00247811      -0.00127835       0.00314935
Ga       2.38522807       2.39934219       7.03724367       0.00413544       0.00223068      -0.00598395
Sn       4.26526555       3.57482464       8.65125669      -0.01240533      -0.00781068       0.03285009
Sn       3.40322365       3.03577505       4.10918256       0.01157608       0.00712308      -0.03160556
12
Lattice="4.37325043084799 0.0004560506651816761 1.280938033765922 0.9618057566277909 6.251222210595928 4.81356863447663 0.04551493500158069 0.24677295616785633 7.944556574347055" Properties=species:S:1:pos:R:3:forces:R:3 structure_index=3 total_energy=-34.17622756958008 stress="-0.008470174856483936 0.0011009384179487824 -0.0026950747705996037 0.0011009408626705408 0.0047911545261740685 -0.0062487381510436535 -0.0026952289044857025 -0.006248848047107458 -0.004412415437400341" pbc="T T T"
Li       2.93550074       5.30692554       7.49784479      -0.00755435      -0.00512626       0.02735101
Li       3.75796943       5.95044016      12.79199808      -0.00019587       0.01277148       0.00654409
Li       4.04445940       3.13445096       3.71644941       0.00659518       0.04436588      -0.01871208
Li       4.39234205       0.53469102       2.53315167      -0.01110014       0.00079712       0.03477210
Li       4.87567395       3.79496226       8.98119787       0.00337821      -0.00026409      -0.01330303
Li       0.83183919       1.26221811       6.57981365       0.00354039      -0.02793819      -0.01414322
Li       2.12812964       4.85669741      10.25394130       0.00225063       0.02902269      -0.01155493
Li       3.24094564       2.75884890       6.45821809       0.00799691      -0.03437207      -0.01957849
Ga       1.63369221       1.66499075       3.84414386      -0.00722127      -0.02394652       0.01694119
Sn       2.46089433       2.28771488       9.11921312       0.00085231      -0.01104098       0.00103153
Sn       3.58552232       0.13320386       5.28390954       0.00488090       0.02658343      -0.00923944
Sn       1.29554419       4.20357319       4.99766019      -0.00342288      -0.01085250      -0.00010862
10
Lattice="3.0705373154231648 0.0001293714605312615 -0.00019769213405460093 0.0003681500157575203 7.889172339502466 -0.005611790855221734 0.0013940425716640653 0.007812220934719233 7.934170398947313" Properties=species:S:1:pos:R:3:forces:R:3 structure_index=4 total_energy=-28.113378524780273 stress="0.006717358715832233 0.00025625579291954637 0.0007873295107856393 0.000256291008554399 -0.01061979029327631 0.0025538501795381308 0.0007874800940044224 0.002553949598222971 -0.03459470346570015" pbc="T T T"
Li       1.80558282       6.53161739       6.32201826       0.00074788      -0.02511457      -0.02652956
Li       1.80542544       7.77339733       2.35492239       0.00013498       0.02836247      -0.03094111
Li       1.80650152       2.58657183       7.57082438       0.00006685      -0.02480090       0.02653497
Li       1.80644626       3.83422303       3.60387219      -0.00060774       0.02655555       0.02532796
Ga       0.27029883       2.21448301       1.97952772      -0.00005976       0.01873552      -0.00037303
Ga       0.27135417       4.20311159       5.94370065      -0.00057781      -0.01996781       0.00226627
Ga       0.27034992       6.16386427       3.98292803       0.00023247       0.01731109       0.00363777
Ga       0.26940584       0.25181040       0.01908980      -0.00005200      -0.02060378       0.00252587
Sn       1.80648204       1.23699962       4.96489766       0.00046944       0.00083996      -0.00258713
Sn       1.80485144       5.17707108       0.99325293      -0.00035429      -0.00131754       0.00013796
10
Lattice="3.2990265967379635 -1.4097181451066413e-05 -0.0003680404275600667 4.346416026800796e-05 3.299056331357996 -0.0001541187019868833 0.003003254656765349 0.0013731493476301833 17.958705567314052" Properties=species:S:1:pos:R:3:forces:R:3 structure_index=5 total_energy=-30.938440322875977 stress="0.03531986102461815 9.64889841270633e-05 0.000624731823336333 9.65160143096e-05 0.03561202809214592 0.0003275706258136779 0.0006247839191928506 0.00032765258220024407 0.027892597019672394" pbc="T T T"
Li       1.95176045       1.11635672      17.90510747      -0.00005248       0.00005991       0.00223705
Li       1.95034673       1.11723732       7.42759126      -0.00043675      -0.00069330       0.00679050
Li       1.95087160       1.11644024      14.15014819       0.00002018      -0.00000152       0.00128044
Li       1.94946482       1.11556575       3.69355577       0.00011298       0.00029733      -0.00078154
Li       1.95019734       1.11703828      10.39616969       0.00020760      -0.00012833       0.00039790
Ga       0.30070513       2.76663239       8.91202426       0.00017867      -0.00000173       0.00278885
Sn       0.29957591       2.76473743       1.80442209       0.00009597       0.00013426       0.01248906
Sn       0.30052327       2.76593786       5.56663695      -0.00019401      -0.00000870       0.02371821
Sn       0.30094101       2.76618252      12.26740265       0.00016808       0.00015684      -0.02270721
Sn       0.30187839       2.76580132      16.04897955      -0.00010024       0.00018525      -0.02621327
10
Lattice="4.422509023980526 0.0006212612283369831 -0.0007516980200089397 -0.0007014640019533828 4.360817585191513 -0.9474667543963723 0.001240441482328775 0.20289955094234852 11.430839306064136" Properties=species:S:1:pos:R:3:forces:R:3 structure_index=6 total_energy=-31.730484008789062 stress="0.01875276118516922 0.00034315374796278775 -0.0002492571366019547 0.00034307167516089976 0.008674649521708488 0.001965738832950592 -0.00024929092614911497 0.001965596340596676 0.014173561707139015" pbc="T T T"
Li       2.80598245       3.54219273       2.55366680       0.00034614      -0.00405803      -0.01143282
Li       0.59599182       2.35867236       7.62032138       0.00015406       0.00206702       0.01018514
Ga       2.80749585       2.83218576       9.80027075       0.00002879       0.00720959       0.02948869
Ga       2.80641696       0.90976948       0.95257121       0.00034044      -0.00286953      -0.01305651
Ga       0.59691876       0.65594463      10.28418280      -0.00042565      -0.00348908      -0.01072233
Ga       0.59521960       1.36205363       3.03541025      -0.00028096       0.00016214      -0.00300914
Sn       0.59501673       3.08297745       0.44728874      -0.00049099      -0.00059588      -0.00508604
Sn       0.59467818       4.02755082       4.79155488       0.00083025      -0.01149022      -0.02393891
Sn       2.80651600       1.82987864       5.19453586      -0.00044916       0.01463854       0.03667076
Sn       2.80786951       0.21850002       8.28192902      -0.00005292      -0.00157454      -0.00909884
4
Lattice="4.550675982387875 0.0007791866966495221 -0.001513083643372901 -0.000453567137965014 4.54961417240477 0.0002666704511563951 0.0009704209698305885 -0.0001736774142342126 4.345726206577542" Properties=species:S:1:pos:R:3:forces:R:3 structure_index=7 total_energy=-13.074058532714844 stress="0.06779751181602478 0.0012907563941553235 -0.0018021489959210157 0.0012907738564535975 0.06428737193346024 0.0003098601009696722 -0.0018020904390141368 0.000309819559333846 -0.060143910348415375" pbc="T T T"
Li       2.48351422       3.84288746       1.44105000       0.00044479      -0.00037193       0.00005649
Ga       0.20879836       1.56718497       1.44100359      -0.00047706       0.00076677       0.00146094
Sn       2.48431209       1.56777570       3.61443060       0.00083157       0.00062420      -0.00179672
Sn       0.20907393       3.84247412       3.61389938      -0.00079929      -0.00101904       0.00027929
12
Lattice="4.533208598404626 0.0036359550360278523 -0.0027321011818786023 -0.0042603874346281625 5.732424363502099 0.03858510654058445 0.004759086891132186 0.023371222550170608 7.895266394598272" Properties=species:S:1:pos:R:3:forces:R:3 structure_index=8 total_energy=-32.625003814697266 stress="-0.0018115572165697813 0.0007895812741480768 9.10971502889879e-05 0.0007897114264778793 0.027226965874433517 0.005127573385834694 9.095860150409862e-05 0.005127397365868092 0.003845969447866082" pbc="T T T"
Li       2.05972067       1.80898310       2.75489155       0.00005900       0.03438432       0.01565747
Li       4.32665855       2.31166184       4.16366747       0.00070934      -0.03436585      -0.01413427
Li       4.32693141       4.68741011       6.71989669      -0.00093947       0.03398722       0.01500823
Li       2.05520506       5.16141051       0.23630187       0.00168372      -0.03401349      -0.01643278
Li       4.32426316       5.15366887       4.09493227       0.00063613      -0.02751214       0.01292226
Li       2.05756350       2.26949085       0.12959398      -0.00037318      -0.02266148       0.01440509
Li       4.32848621       1.84530900       6.78935831       0.00025414       0.02754169      -0.01541663
Li       2.05739094       4.70031197       2.86009142      -0.00058619       0.02466178      -0.00953835
Ga       2.06073025       3.49756075       5.44357551      -0.00105634      -0.00126682      -0.00092958
Ga       4.32728010       0.62154220       1.47460164      -0.00175541      -0.00085222       0.00025865
Sn       4.32355978       3.48775599       1.49410925       0.00158721      -0.00163643      -0.00051065
Sn       2.06204367       0.63101747       5.42427699      -0.00021894       0.00173341      -0.00128939
8
Lattice="4.713174078054155 0.00035191230257736 -0.00045414707003560786 -0.0006961344868007727 5.23424141430896 -3.005345450903015 0.0006714680669196156 -0.3551911072491634 6.025213358472591" Properties=species:S:1:pos:R:3:forces:R:3 structure_index=9 total_energy=-23.63445281982422 stress="0.038316529244184494 1.3824609595758375e-05 0.00018317520152777433 1.3974866305943578e-05 -0.01194141898304224 0.03285793215036392 0.0001831881672842428 0.03285796195268631 -0.044455621391534805" pbc="T T T"
Li       1.38800658       1.78567169      -0.84002809       0.00011595      -0.00469876       0.00570632
Li       3.74517815       2.23620305       3.88356208      -0.00017457       0.00340063      -0.00690641
Li       1.38805106       4.28705133       0.70822066      -0.00002665      -0.00319421       0.00648995
Li       3.74515583      -0.14104816       2.41179459      -0.00006809       0.00385024      -0.00580809
Ga       1.38839395       1.58601175       2.27715023       0.00001995       0.00630457      -0.00981012
Ga       3.74541738      -0.29717878       5.31961284       0.00007119      -0.00599312       0.01010094
Sn       3.74475440       2.46674508       0.85418065       0.00002417      -0.00773715       0.01305058
Sn       1.38770406       4.41156087      -2.28794169       0.00003807       0.00806778      -0.01282318
8
Lattice="2.9081432235644686 0.004924861775233846 -0.47912520596135466 -0.21694593027656142 5.010892376108364 -1.2432254403183196 0.12452079320379278 -0.18759757079024303 9.808350374183584" Properties=species:S:1:pos:R:3:forces:R:3 structure_index=10 total_energy=-23.05278205871582 stress="-0.03323320299386978 -0.006502798292785883 0.0002914505312219262 -0.00650282297283411 -0.04971066862344742 0.012651217170059681 0.00029169966001063585 0.012651115655899048 -0.05050916224718094" pbc="T T T"
Li       1.32451958       1.44044071       1.12656404      -0.00153853      -0.04077595      -0.01093773
Li       0.61378325       1.88146629       5.88587737       0.00189067       0.04141165       0.01084250
Li       0.92302028       4.07235450       7.78847481       0.00020638       0.00016453       0.00037972
Ga       2.68412984       4.05697634       0.35023650      -0.00437645      -0.02187708      -0.02267739
Ga       1.76030925       0.46574651       3.75946695      -0.00594879       0.01497175      -0.03860693
Ga       0.17825699       2.85755133       3.25287508       0.00565718      -0.01612789       0.03786560
Ga       1.94543485       4.28112733       4.93966332       0.00462025       0.02176433       0.02292605
Sn       2.48581299       1.56939944       8.17068982      -0.00051069       0.00046865       0.00020818
4
Lattice="4.282410997930935 0.0005886102879084596 -0.0008319899601673892 -0.001800431706192599 4.283812855080686 -0.001665530436551604 0.0005036139967548229 0.0010070894854894176 4.354994956609533" Properties=species:S:1:pos:R:3:forces:R:3 structure_index=11 total_energy=-12.1586332321167 stress="0.0691014751791954 -0.003568479558452964 -0.0016731079667806625 -0.003568334272131324 0.07931548357009888 -0.0033635201398283243 -0.0016731463838368654 -0.003363644005730748 0.05816507339477539" pbc="T T T"
Li       3.99365300       3.00156088       1.37684078      -0.00010638       0.00025816      -0.00043727
Ga       3.99485230       0.86036348       3.55491954      -0.00024228      -0.00043486       0.00135637
Ga       1.85268934       3.00156803       3.55459873       0.00005070       0.00074180       0.00111584
Sn       1.85327326       0.85943200       1.37856059       0.00029796      -0.00056510      -0.00203493
4
Lattice="4.550736920855449 0.0007069235645788359 -0.0006599125318288634 -0.0004207295968451726 4.549616227473786 -0.0009537150221920368 0.00042629149916480414 0.0006220414812885036 4.346872381114161" Properties=species:S:1:pos:R:3:forces:R:3 structure_index=12 total_energy=-13.074067115783691 stress="0.07543057203292847 0.001129873562604189 -0.0007753504905849695 0.0011299917241558433 0.07173395901918411 -0.0011036169016733766 -0.0007753485697321594 -0.0011035642819479108 -0.04417523369193077" pbc="T T T"
Li       1.55820778       2.20968087       2.41771019      -0.00001021       0.00036091      -0.00007486
Ga       3.83337107       4.48533699       2.41702066       0.00056153      -0.00084976      -0.00036754
Sn       3.83355804       2.20957267       0.24398595       0.00034464       0.00113318       0.00011420
Sn       1.55832010       4.48434927       0.24369280      -0.00089596      -0.00064434       0.00032819
14
Lattice="5.429167249100902 -0.01057136176491152 -2.254672764044521 -2.237923091738185 5.919942355801646 -1.5690682630527553 -0.04722467586423217 -0.018406362796206964 7.779147671046561" Properties=species:S:1:pos:R:3:forces:R:3 structure_index=13 total_energy=-40.140045166015625 stress="0.0071517908945679665 -0.02135741338133812 -0.0005523284780792892 -0.021357404068112373 -0.010707028210163116 0.002786117373034358 -0.00055214628810063 0.0027860288973897696 -0.008634117431938648" pbc="T T T"
Li      -0.20347809       1.51925181       3.00113686       0.00344295       0.01056920       0.00022941
Li       3.05660039       2.37990283      -0.84582166       0.00267909      -0.01229765       0.00744950
Li      -0.60754886       5.82168635      -1.85705335      -0.00052380       0.01637302       0.00827651
Li       3.40130968       3.29904372       4.12824528      -0.00716706       0.00102233       0.00603245
Li       4.81927907       0.64929241       3.66716607       0.00396474      -0.01285680      -0.00145065
Li       1.16989137       4.13179891       2.45632665      -0.00087275      -0.00346034       0.00264780
Ga      -1.55146323       4.27465841       3.55052386       0.00787238       0.00704719      -0.01934941
Ga       1.68546352       4.93131950      -0.24213506       0.00216667       0.00089284      -0.00530603
Ga       2.11845197       0.63723426       4.74834393       0.00422265       0.00953237      -0.00032356
Ga       2.14562382       5.85321502      -3.04087914      -0.01080651       0.00710139       0.00039431
Ga       0.19409302       2.43838975       0.30855571       0.00425748      -0.00535752       0.00515555
Ga      -1.10786683       4.83416798       0.85309389      -0.01188356      -0.01144952      -0.02391788
Sn       0.70868663       3.20079742       5.28388468      -0.00682202      -0.00341192       0.00827695
Sn       2.54554992       1.56130509       1.95759794       0.00946973      -0.00370458       0.01188507
14
Lattice="4.028318794347911 -0.0005702144387461338 1.0350672157130507 1.559363128158122 8.244621849904881 2.2818058685849896 -0.08995469132052566 0.07274985804267475 8.692383319277457" Properties=species:S:1:pos:R:3:forces:R:3 structure_index=14 total_energy=-40.51355743408203 stress="-0.00491735665127635 -0.003477717749774456 0.0005089771584607661 -0.0034774967934936285 -0.01290780771523714 0.014096603728830814 0.0005091889179311693 0.01409602165222168 -0.00683631794527173" pbc="T T T"
Li       0.75036072       1.49293158       3.50523092      -0.00017595      -0.00333390      -0.00067860
Li       3.72191723       4.87667161       8.60616777       0.00085325       0.00394726       0.00144101
Li       3.06228483       7.27432689       2.85015610      -0.00060887      -0.00046542       0.00110397
Ga       3.31339669       1.26614537       1.88003349       0.00574921       0.00235880      -0.01989847
Ga       1.43726905       2.70138524       9.16682834       0.00201276       0.00212353      -0.01064685
Ga       1.24979347       5.03299499       1.54300668      -0.00536485      -0.00381459       0.02117260
Ga       3.03592497       3.66988088       2.94975679      -0.00316882      -0.00081595       0.00706857
Ga       3.84305171       8.18612711       8.15189825       0.00000667       0.01129445       0.00141581
Ga       4.48851875       7.60937223       5.65490623       0.00082207      -0.02454479      -0.00411805
Ga       2.23607786       3.17972765       6.05914499       0.00067650       0.00620260      -0.00520820
Ga       1.54390480       7.00577183       8.74072767      -0.00127967       0.01493866       0.00200655
Ga       2.18925835       6.42783297       6.24295155       0.00138086      -0.01082516      -0.00251193
Sn       3.92963314       1.58938845       7.82220993      -0.00222991      -0.00389612       0.01098700
Sn       4.57111887       4.77600141       5.32860714       0.00132678       0.00683058      -0.00213339
12
Lattice="4.26886632310533 -0.021657298096131452 -0.5386190279277855 -0.05069358511758647 4.263625653879239 -0.5720152206642599 -0.4048532354965015 -0.3131733436972984 13.763385178422233" Properties=species:S:1:pos:R:3:forces:R:3 structure_index=15 total_energy=-37.06783676147461 stress="0.017251031473279 0.0004872077261097729 0.0005013672634959221 0.0004871621204074472 0.016374163329601288 0.00022315618116408587 0.0005014728521928191 0.0002231753896921873 0.01357815321534872" pbc="T T T"
Li       0.15487590       1.66153796       1.36223296      -0.00171232       0.00006240      -0.04261039
Li       2.92213989       0.15113165       5.79901624      -0.00196726       0.00364964       0.04585127
Li       3.72062754       3.17356824      12.12600219       0.00622232       0.00452913       0.04020224
Li       1.04811201       0.45683327       8.24823858      -0.00346829      -0.00802085      -0.04309319
Ga       2.60320759       1.96133665       3.30433282      -0.00956554       0.00441670      -0.00167317
Ga       0.42496673       4.11536770       3.28740782       0.00539430      -0.00276933      -0.00027693
Ga       3.46450908       0.74382289      10.19450628      -0.00272976       0.00174273      -0.00012842
Ga       1.30066242       2.88687178      10.17772811       0.00795987      -0.00379196       0.00036286
Sn       1.58746025       1.02645472      12.47903247      -0.00369721      -0.00314686      -0.00104023
Sn       0.73580676       2.26654125       5.58471453      -0.01111619      -0.00548236      -0.00044081
Sn       2.28976133       3.81140374       1.00718893       0.00843314       0.00695430       0.00105878
Sn       3.18058733       2.60314287       7.89243165       0.00624692       0.00185647       0.00178796
8
Lattice="4.194306756703182 0.006784849460793463 -0.9287158522627211 -0.22245594486211584 4.284194612607191 -0.9728742608336084 -0.07345413045266615 -0.0679907989202066 9.54889024816051" Properties=species:S:1:pos:R:3:forces:R:3 structure_index=16 total_energy=-25.225994110107422 stress="-0.01473382767289877 0.000373873976059258 -0.0005117078544571996 0.00037392633385024965 -0.013507266528904438 0.0007265459862537682 -0.0005117139662615955 0.0007266262546181679 -0.016580870375037193" pbc="T T T"
Li       1.77083928       0.59900308       2.21816613       0.01159263       0.01712196       0.04509582
Li       2.71395574       1.63451251       6.48135529      -0.01265736      -0.01718259      -0.04238325
Ga       3.37618959       0.08786112      -0.41741420       0.00580149      -0.00718880       0.00372909
Ga       2.13093156       3.25903762       3.86620646      -0.00029096      -0.00041167      -0.00264984
Ga       1.18160731       2.21353402      -0.42962446      -0.00642685       0.00652393      -0.00757888
Sn       0.14455960       1.11291701       4.81452017       0.00062854       0.00030563       0.00012940
Sn       3.71679798       2.70537630       1.07250665      -0.00431407      -0.00520569       0.00646733
Sn       0.54491095       3.81212912       6.65511772       0.00566661       0.00603723      -0.00280967
9
Lattice="2.8657503140247624 -0.00045954288598215153 0.0002063571461383183 0.001499654974003366 7.0947467818505405 -4.092738867653108 -0.0005945977139311397 -0.0003660106843695438 8.189547880183714" Properties=species:S:1:pos:R:3:forces:R:3 structure_index=17 total_energy=-26.377904891967773 stress="-0.0219788309186697 -3.615134482970461e-05 -1.3578758625953924e-05 -3.6311143048806116e-05 -0.004625201690942049 -0.0003013828827533871 -1.3709599443245679e-05 -0.00030154059641063213 -0.0045352536253631115" pbc="T T T"
Li       2.24800175       2.50588143      -0.91241696       0.00028458       0.04036781       0.02376715
Li       2.24885669       5.00013141       0.52918391      -0.00018364       0.00185901      -0.00094609
Li       2.24804929       5.00062528       3.41217768       0.00026481       0.00021311      -0.04729784
Li       2.24794211       0.40255808       3.18076378      -0.00028528      -0.03992979       0.02390941
Ga       0.81530192       2.92738692       1.72521268      -0.00005740       0.02555942      -0.01416868
Ga       0.81627382       5.00164944      -1.86541031      -0.00039561       0.00032817       0.03038978
Ga       0.81582406       7.07397524       1.72547992       0.00022468      -0.02632453      -0.01507080
Sn       0.81486383       0.27242552       0.52618523       0.00004862      -0.00109707       0.00118401
Sn       0.81493238       2.63559105       4.62370099       0.00009920      -0.00097615      -0.00176695
10
Lattice="2.987492263786226 -0.00024295891939621545 0.00028098872535758826 0.0006917248312811543 8.37390171925943 -0.0007658824806598452 -0.0007771933392203456 0.0007645391169059866 8.378081577004599" Properties=species:S:1:pos:R:3:forces:R:3 structure_index=18 total_energy=-30.956501007080078 stress="0.02356969751417637 2.545670895415242e-06 3.1844413115322823e-06 2.885846470235265e-06 0.027780156582593918 7.440421177307144e-05 3.4801664696715306e-06 7.460924098268151e-05 0.02743574231863022" pbc="T T T"
Li       1.51655118       8.14714692       5.67274438       0.00000807       0.03329197      -0.03258104
Li       1.51679383       5.89901118       1.48436559      -0.00002328      -0.03316614      -0.03268707
Li       1.51596548       3.96076933       7.92544889       0.00001964       0.03320158       0.03266858
Li       1.51620220       1.71265242       3.73700655      -0.00000514      -0.03328024       0.03260026
Ga       0.02263188       4.93006372       4.70475997       0.00000018      -0.00001993      -0.00000192
Ga       0.02267146       0.74272346       0.51607577       0.00000165      -0.00000831       0.00000120
Sn       0.02301556       7.59809264       3.18437479      -0.00001468      -0.02083158      -0.02106617
Sn       0.02275486       3.41052486       2.03564523      -0.00000442      -0.02018081       0.02082899
Sn       0.02224844       2.26199373       6.22508162       0.00001305       0.02082397       0.02109174
Sn       0.02250841       6.44955337       7.37389313       0.00000499       0.02016955      -0.02085463
10
Lattice="3.0126582783298157 0.002009379601203168 -0.0022449709320968266 -0.005523895994193274 7.902377083965163 -0.0004737629861052425 0.005739771813642715 0.00016487792847335185 7.907664477115564" Properties=species:S:1:pos:R:3:forces:R:3 structure_index=19 total_energy=-28.908849716186523 stress="-0.018878968432545662 -0.00045104071614332497 -0.0004493362212087959 -0.0004512881860136986 -0.031129518523812294 -5.496683115779888e-06 -0.00044956489000469446 -5.385718850448029e-06 -0.03146862983703613" pbc="T T T"
Li       0.35726038       3.48835506       3.69997611       0.00008557       0.01322768       0.01210084
Li       0.36045644       4.61628623       7.65071727      -0.00216004      -0.01200231       0.01386432
Li       0.35539293       7.44069796       4.82277455      -0.00014676       0.01221764      -0.00988707
Li       0.35652820       0.66541534       0.87299570       0.00103973      -0.01336396      -0.01452968
Ga       1.86503646       1.14808899       3.21375186      -0.00053604       0.03170116      -0.03077806
Ga       1.86340302       6.96120711       7.16743975       0.00071883      -0.03105281      -0.03272134
Ga       1.86208633       3.00950317       1.35414975       0.00082148      -0.03040693       0.03074277
Ga       1.86366887       5.09993757       5.30714730       0.00059651       0.03209834       0.03121394
Sn       1.86158619       6.02790727       2.28328218      -0.00082296       0.00074906      -0.00051937
Sn       1.86606705       2.07949094       6.23801294       0.00040362      -0.00316790       0.00051364
15