# Tetrahedron method
       -1.7048351170        0.0000000000
       -1.6369612974        0.0000000000
       -1.5690874779        0.0000000000
       -1.5012136584        0.0000000000
       -1.4333398388        0.0000000000
       -1.3654660193        0.0000000000
       -1.2975921998        0.0000000000
       -1.2297183802        0.0000000000
       -1.1618445607        0.0000000000
       -1.0939707411        0.0000000000
       -1.0260969216        0.0000000000
       -0.9582231021        0.0000000000
       -0.8903492825        0.0000000000
       -0.8224754630        0.0000000000
       -0.7546016435        0.0000000000
       -0.6867278239        0.0000000000
       -0.6188540044        0.0000000000
       -0.5509801849        0.1136064241
       -0.4831063653        0.4518702135
       -0.4152325458        0.5388803288
       -0.3473587262        0.4872158148
       -0.2794849067        0.4345725790
       -0.2116110872        0.3902435005
       -0.1437372676        0.3866505449
       -0.0758634481        0.3905650600
       -0.0079896286        0.4139525729
        0.0598841910        0.4562423278
        0.1277580105        0.5524602413
        0.1956318300        0.7109070766
        0.2635056496        0.9942860519
        0.3313794691        1.5826367976
        0.3992532887        2.0555390169
        0.4671271082        2.4823182972
        0.5350009277        2.3859546865
        0.6028747473        2.8878012112
        0.6707485668        2.9693714371
        0.7386223863        3.2189682757
        0.8064962059        3.4132265426
        0.8743700254        3.4206360951
        0.9422438449        3.9237155210
        1.0101176645        4.2832831705
        1.0779914840        4.4006276193
        1.1458653036        5.9250582963
        1.2137391231        7.3979062186
        1.2816129426        6.0555118476
        1.3494867622        4.0418218567
        1.4173605817        5.9549435392
        1.4852344012        7.4650989019
        1.5531082208        4.7143015448
        1.6209820403        8.4234076964
        1.6888558598        9.7895267777
        1.7567296794        9.2051200318
        1.8246034989        7.1228946948
        1.8924773185        5.4690518540
        1.9603511380        5.0959685787
        2.0282249575        8.4698985362
        2.0960987771        2.6258918366
        2.1639725966        1.3943304261
        2.2318464161        0.5468643932
        2.2997202357        0.3826300345
        2.3675940552        0.2735149517
        2.4354678748        0.1937232523
        2.5033416943        1.0512912078
        2.5712155138        2.7511865053
        2.6390893334        3.0032891987
        2.7069631529        2.5718025712
        2.7748369724        1.8540832582
        2.8427107920        1.2508958590
        2.9105846115        0.9005138082
        2.9784584310        0.6577439695
        3.0463322506        0.4794219144
        3.1142060701        0.3352307857
        3.1820798897        0.2097218429
        3.2499537092        0.0000000000
        3.3178275287        0.0000000000
        3.3857013483        0.0000000000
        3.4535751678        0.0000000000
        3.5214489873        0.0000000000
        3.5893228069        0.0000000000
        3.6571966264        0.0000000000
        3.7250704459        0.0000000000
        3.7929442655        0.0000000000
        3.8608180850        0.0000000000
        3.9286919046        0.0000000000
        3.9965657241        0.0000000000
        4.0644395436        0.0000000000
        4.1323133632        0.0000000000
        4.2001871827        0.0000000000
        4.2680610022        2.2997966101
        4.3359348218        6.0097570684
        4.4038086413        4.7697013113
        4.4716824608        2.0527584997
        4.5395562804        7.2929611534
        4.6074300999        3.9653207281
        4.6753039195        3.4215504961
        4.7431777390        6.3745462485
        4.8110515585        3.4048486230
        4.8789253781        1.2305556252
        4.9467991976        0.1130783579
        5.0146730171        0.0245083578
        5.0825468367        0.0000000000
        5.1504206562        0.0000000000
        5.2182944757        0.0000000000
        5.2861682953        0.0000000000
        5.3540421148        0.0000000000
        5.4219159344        0.0000000000
        5.4897897539        0.0000000000
        5.5576635734        0.0000000000
        5.6255373930        0.5316576737
        5.6934112125        6.0974707548
        5.7612850320        4.4829511309
        5.8291588516        2.1728191084
        5.8970326711        1.0330630114
        5.9649064906        1.1695893267
        6.0327803102        5.4199897416
        6.1006541297        6.3860353234
        6.1685279493        5.6038517898
        6.2364017688        4.3301158255
        6.3042755883        7.3755996390
        6.3721494079        6.7111033700
        6.4400232274        5.3986911820
        6.5078970469        4.2518195908
        6.5757708665        4.0992922115
        6.6436446860        3.1157410754
        6.7115185055        3.1813582430
        6.7793923251        2.1447180861
        6.8472661446        2.5399298049
        6.9151399642        3.9076412387
        6.9830137837        4.5335528121
        7.0508876032        4.6331181434
        7.1187614228        3.5029060998
        7.1866352423        2.6369029489
        7.2545090618        1.8589377297
        7.3223828814        2.5705665911
        7.3902567009        3.1414806333
        7.4581305205        2.6945682735
        7.5260043400        1.3180681355
        7.5938781595        3.4574975810
        7.6617519791        2.1233111564
        7.7296257986        1.8963048959
        7.7974996181        3.0490715483
        7.8653734377        2.6315287313
        7.9332472572        1.8743547964
        8.0011210767        2.1316501469
        8.0689948963        2.1314081082
        8.1368687158        2.9592808875
        8.2047425354        1.6414935245
        8.2726163549        0.9750920474
        8.3404901744        1.5113668963
        8.4083639940        1.5991849505
        8.4762378135        1.8837568551
        8.5441116330        4.0129737540
        8.6119854526        3.7447944699
        8.6798592721        1.6312678563
        8.7477330916        1.1942094197
        8.8156069112        1.3406850503
        8.8834807307        2.6961958783
        8.9513545503        3.2764655535
        9.0192283698        5.6897026419
        9.0871021893        5.1122124212
        9.1549760089        3.0951037668
        9.2228498284        5.1826864439
        9.2907236479        4.6915980563
        9.3585974675        9.6372697344
        9.4264712870        6.7198835377
        9.4943451065        4.9628873177
        9.5622189261        8.6036323375
        9.6300927456        5.6710194480
        9.6979665652        4.0964482524
        9.7658403847        3.0904181622
        9.8337142042        4.4121850838
        9.9015880238        5.8827266659
        9.9694618433        3.4707113118
       10.0373356628        4.2269126488
       10.1052094824        4.9978316578
       10.1730833019       10.6749628094
       10.2409571214        6.3727650332
       10.3088309410        4.3001939737
       10.3767047605        3.3942661137
       10.4445785801        2.8977452224
       10.5124523996        4.5217471702
       10.5803262191        1.7010512960
       10.6482000387        1.2379588585
       10.7160738582        1.0279071690
       10.7839476777        0.0000000000
       10.8518214973        0.0000000000
       10.9196953168        0.0000000000
       10.9875691363        0.0000000000
       11.0554429559        0.0000000000
       11.1233167754        0.0000000000
       11.1911905950        0.0000000000
       11.2590644145        0.0000000000
       11.3269382340        0.0000000000
       11.3948120536        0.0000000000
       11.4626858731        0.0000000000
       11.5305596926        0.0000000000
       11.5984335122        0.0000000000
       11.6663073317        0.0000000000
       11.7341811512        0.0000000000
       11.8020549708        0.0000000000
       11.8699287903        0.0000000000
