phonopy:
  version: "2.37.1"
  frequency_unit_conversion_factor: 15.633302
  symmetry_tolerance: 1.00000e-05

space_group:
  type: "P1"
  number: 1
  Hall_symbol: "P 1"

primitive_matrix:
- [  1.000000000000000,  1.000000000000000,  1.000000000000000 ]
- [  0.000000000000000,  1.000000000000000,  1.000000000000000 ]
- [  0.000000000000000,  0.000000000000000,  1.000000000000000 ]

supercell_matrix:
- [   3,   0,   0 ]
- [   0,   2,   0 ]
- [   0,   0,   1 ]

primitive_cell:
  lattice:
  - [     4.513547057049103,     0.000000000000000,     0.000000000000000 ] # a
  - [     2.255820910071248,     7.448878892880474,     0.000000000000000 ] # b
  - [     2.256375327001109,     1.578577429472644,     9.522251449995270 ] # c
  points:
  - symbol: Li # 1
    coordinates: [  0.775980544096161,  0.811752698658316,  0.873666331055794 ]
    mass: 6.940000
  - symbol: Li # 2
    coordinates: [  0.583474332509660,  0.591593115213411,  0.478589174786620 ]
    mass: 6.940000
  - symbol: Li # 3
    coordinates: [  0.575407400803722,  0.284039320120971,  0.803572492443522 ]
    mass: 6.940000
  - symbol: Li # 4
    coordinates: [  0.059561357918019,  0.471962852419304,  0.646242175275385 ]
    mass: 6.940000
  - symbol: Li # 5
    coordinates: [  0.232567168611663,  0.088142591874803,  0.683601592516604 ]
    mass: 6.940000
  - symbol: Li # 6
    coordinates: [  0.417427099095054,  0.980545073714595,  0.422290818988575 ]
    mass: 6.940000
  - symbol: Li # 7
    coordinates: [  0.118350150984914,  0.017491727108927,  0.983394600206061 ]
    mass: 6.940000
  - symbol: Li # 8
    coordinates: [  0.282861247349555,  0.628224294535605,  0.044520469511874 ]
    mass: 6.940000
  - symbol: Li # 9
    coordinates: [  0.769519394869679,  0.471082581682176,  0.227678598448311 ]
    mass: 6.940000
  - symbol: Li # 10
    coordinates: [  0.935941635372904,  0.094659162699998,  0.271729235770799 ]
    mass: 6.940000
  - symbol: Ga # 11
    coordinates: [  0.429673204331695,  0.250043416221118,  0.129073192336609 ]
    mass: 69.723000
  - symbol: Ga # 12
    coordinates: [  0.747603978450990,  0.221127960565447,  0.520979766239500 ]
    mass: 69.723000
  - symbol: Ga # 13
    coordinates: [  0.903951324165780,  0.862170941297511,  0.567590812178548 ]
    mass: 69.723000
  - symbol: Ga # 14
    coordinates: [  0.250635155518989,  0.350155968883067,  0.385758274166395 ]
    mass: 69.723000
  - symbol: Ga # 15
    coordinates: [  0.095847521055154,  0.711629654250409,  0.333842486013161 ]
    mass: 69.723000
  - symbol: Sn # 16
    coordinates: [  0.945164550339926,  0.392466743498265,  0.955658490544516 ]
    mass: 118.710000
  - symbol: Sn # 17
    coordinates: [  0.398931238807150,  0.703519359285496,  0.735926599864957 ]
    mass: 118.710000
  - symbol: Sn # 18
    coordinates: [  0.608050945215060,  0.860037981575664,  0.161346092484074 ]
    mass: 118.710000
  reciprocal_lattice: # without 2pi
  - [     0.221555239673027,    -0.067095860944652,    -0.041376324363706 ] # a*
  - [     0.000000000000000,     0.134248390177988,    -0.022255396193945 ] # b*
  - [     0.000000000000000,     0.000000000000000,     0.105017180574505 ] # c*

unit_cell:
  lattice:
  - [     4.513547057049103,     0.000000000000000,     0.000000000000000 ] # a
  - [    -2.257726146977856,     7.448878892880472,     0.000000000000000 ] # b
  - [     0.000554416929861,    -5.870301463407830,     9.522251449995270 ] # c
  points:
  - symbol: Li # 1
    coordinates: [  0.461399573810271,  0.685419029714109,  0.873666331055794 ]
    mass: 6.940000
    reduced_to: 1
  - symbol: Li # 2
    coordinates: [  0.653656622509691,  0.070182290000031,  0.478589174786620 ]
    mass: 6.940000
    reduced_to: 2
  - symbol: Li # 3
    coordinates: [  0.663019213368215,  0.087611812564493,  0.803572492443522 ]
    mass: 6.940000
    reduced_to: 3
  - symbol: Li # 4
    coordinates: [  0.177766385612708,  0.118205027694690,  0.646242175275385 ]
    mass: 6.940000
    reduced_to: 4
  - symbol: Li # 5
    coordinates: [  0.004311353003070,  0.771744184391407,  0.683601592516604 ]
    mass: 6.940000
    reduced_to: 5
  - symbol: Li # 6
    coordinates: [  0.820262991798224,  0.402835892703170,  0.422290818988575 ]
    mass: 6.940000
    reduced_to: 6
  - symbol: Li # 7
    coordinates: [  0.119236478299902,  0.000886327314988,  0.983394600206061 ]
    mass: 6.940000
    reduced_to: 7
  - symbol: Li # 8
    coordinates: [  0.955606011397034,  0.672744764047478,  0.044520469511874 ]
    mass: 6.940000
    reduced_to: 8
  - symbol: Li # 9
    coordinates: [  0.468280575000166,  0.698761180130488,  0.227678598448311 ]
    mass: 6.940000
    reduced_to: 9
  - symbol: Li # 10
    coordinates: [  0.302330033843700,  0.366388398470796,  0.271729235770799 ]
    mass: 6.940000
    reduced_to: 10
  - symbol: Ga # 11
    coordinates: [  0.808789812889422,  0.379116608557727,  0.129073192336609 ]
    mass: 69.723000
    reduced_to: 11
  - symbol: Ga # 12
    coordinates: [  0.489711705255937,  0.742107726804947,  0.520979766239500 ]
    mass: 69.723000
    reduced_to: 12
  - symbol: Ga # 13
    coordinates: [  0.333713077641839,  0.429761753476060,  0.567590812178548 ]
    mass: 69.723000
    reduced_to: 13
  - symbol: Ga # 14
    coordinates: [  0.986549398568452,  0.735914243049463,  0.385758274166395 ]
    mass: 69.723000
    reduced_to: 14
  - symbol: Ga # 15
    coordinates: [  0.141319661318724,  0.045472140263570,  0.333842486013161 ]
    mass: 69.723000
    reduced_to: 15
  - symbol: Sn # 16
    coordinates: [  0.293289784382708,  0.348125234042782,  0.955658490544516 ]
    mass: 118.710000
    reduced_to: 16
  - symbol: Sn # 17
    coordinates: [  0.838377197957604,  0.439445959150454,  0.735926599864957 ]
    mass: 118.710000
    reduced_to: 17
  - symbol: Sn # 18
    coordinates: [  0.629435019274797,  0.021384074059737,  0.161346092484074 ]
    mass: 118.710000
    reduced_to: 18

supercell:
  lattice:
  - [    13.540641171147310,     0.000000000000000,     0.000000000000000 ] # a
  - [    -4.515452293955711,    14.897757785760945,     0.000000000000000 ] # b
  - [     0.000554416929861,    -5.870301463407830,     9.522251449995270 ] # c
  points:
  - symbol: Li # 1
    coordinates: [  0.153799857936757,  0.342709514857055,  0.873666331055794 ]
    mass: 6.940000
    reduced_to: 1
  - symbol: Li # 2
    coordinates: [  0.487133191270090,  0.342709514857055,  0.873666331055794 ]
    mass: 6.940000
    reduced_to: 1
  - symbol: Li # 3
    coordinates: [  0.820466524603424,  0.342709514857055,  0.873666331055794 ]
    mass: 6.940000
    reduced_to: 1
  - symbol: Li # 4
    coordinates: [  0.153799857936757,  0.842709514857055,  0.873666331055794 ]
    mass: 6.940000
    reduced_to: 1
  - symbol: Li # 5
    coordinates: [  0.487133191270090,  0.842709514857055,  0.873666331055794 ]
    mass: 6.940000
    reduced_to: 1
  - symbol: Li # 6
    coordinates: [  0.820466524603424,  0.842709514857055,  0.873666331055794 ]
    mass: 6.940000
    reduced_to: 1
  - symbol: Li # 7
    coordinates: [  0.217885540836564,  0.035091145000015,  0.478589174786620 ]
    mass: 6.940000
    reduced_to: 7
  - symbol: Li # 8
    coordinates: [  0.551218874169897,  0.035091145000015,  0.478589174786620 ]
    mass: 6.940000
    reduced_to: 7
  - symbol: Li # 9
    coordinates: [  0.884552207503230,  0.035091145000015,  0.478589174786620 ]
    mass: 6.940000
    reduced_to: 7
  - symbol: Li # 10
    coordinates: [  0.217885540836564,  0.535091145000016,  0.478589174786620 ]
    mass: 6.940000
    reduced_to: 7
  - symbol: Li # 11
    coordinates: [  0.551218874169897,  0.535091145000016,  0.478589174786620 ]
    mass: 6.940000
    reduced_to: 7
  - symbol: Li # 12
    coordinates: [  0.884552207503230,  0.535091145000016,  0.478589174786620 ]
    mass: 6.940000
    reduced_to: 7
  - symbol: Li # 13
    coordinates: [  0.221006404456072,  0.043805906282247,  0.803572492443522 ]
    mass: 6.940000
    reduced_to: 13
  - symbol: Li # 14
    coordinates: [  0.554339737789405,  0.043805906282247,  0.803572492443522 ]
    mass: 6.940000
    reduced_to: 13
  - symbol: Li # 15
    coordinates: [  0.887673071122738,  0.043805906282247,  0.803572492443522 ]
    mass: 6.940000
    reduced_to: 13
  - symbol: Li # 16
    coordinates: [  0.221006404456072,  0.543805906282246,  0.803572492443522 ]
    mass: 6.940000
    reduced_to: 13
  - symbol: Li # 17
    coordinates: [  0.554339737789405,  0.543805906282246,  0.803572492443522 ]
    mass: 6.940000
    reduced_to: 13
  - symbol: Li # 18
    coordinates: [  0.887673071122738,  0.543805906282246,  0.803572492443522 ]
    mass: 6.940000
    reduced_to: 13
  - symbol: Li # 19
    coordinates: [  0.059255461870903,  0.059102513847345,  0.646242175275385 ]
    mass: 6.940000
    reduced_to: 19
  - symbol: Li # 20
    coordinates: [  0.392588795204236,  0.059102513847345,  0.646242175275385 ]
    mass: 6.940000
    reduced_to: 19
  - symbol: Li # 21
    coordinates: [  0.725922128537569,  0.059102513847345,  0.646242175275385 ]
    mass: 6.940000
    reduced_to: 19
  - symbol: Li # 22
    coordinates: [  0.059255461870903,  0.559102513847345,  0.646242175275385 ]
    mass: 6.940000
    reduced_to: 19
  - symbol: Li # 23
    coordinates: [  0.392588795204236,  0.559102513847345,  0.646242175275385 ]
    mass: 6.940000
    reduced_to: 19
  - symbol: Li # 24
    coordinates: [  0.725922128537569,  0.559102513847345,  0.646242175275385 ]
    mass: 6.940000
    reduced_to: 19
  - symbol: Li # 25
    coordinates: [  0.001437117667690,  0.385872092195704,  0.683601592516604 ]
    mass: 6.940000
    reduced_to: 25
  - symbol: Li # 26
    coordinates: [  0.334770451001023,  0.385872092195704,  0.683601592516604 ]
    mass: 6.940000
    reduced_to: 25
  - symbol: Li # 27
    coordinates: [  0.668103784334357,  0.385872092195704,  0.683601592516604 ]
    mass: 6.940000
    reduced_to: 25
  - symbol: Li # 28
    coordinates: [  0.001437117667690,  0.885872092195704,  0.683601592516604 ]
    mass: 6.940000
    reduced_to: 25
  - symbol: Li # 29
    coordinates: [  0.334770451001023,  0.885872092195704,  0.683601592516604 ]
    mass: 6.940000
    reduced_to: 25
  - symbol: Li # 30
    coordinates: [  0.668103784334357,  0.885872092195704,  0.683601592516604 ]
    mass: 6.940000
    reduced_to: 25
  - symbol: Li # 31
    coordinates: [  0.273420997266075,  0.201417946351585,  0.422290818988575 ]
    mass: 6.940000
    reduced_to: 31
  - symbol: Li # 32
    coordinates: [  0.606754330599408,  0.201417946351585,  0.422290818988575 ]
    mass: 6.940000
    reduced_to: 31
  - symbol: Li # 33
    coordinates: [  0.940087663932741,  0.201417946351585,  0.422290818988575 ]
    mass: 6.940000
    reduced_to: 31
  - symbol: Li # 34
    coordinates: [  0.273420997266075,  0.701417946351585,  0.422290818988575 ]
    mass: 6.940000
    reduced_to: 31
  - symbol: Li # 35
    coordinates: [  0.606754330599408,  0.701417946351585,  0.422290818988575 ]
    mass: 6.940000
    reduced_to: 31
  - symbol: Li # 36
    coordinates: [  0.940087663932741,  0.701417946351585,  0.422290818988575 ]
    mass: 6.940000
    reduced_to: 31
  - symbol: Li # 37
    coordinates: [  0.039745492766634,  0.000443163657494,  0.983394600206061 ]
    mass: 6.940000
    reduced_to: 37
  - symbol: Li # 38
    coordinates: [  0.373078826099967,  0.000443163657494,  0.983394600206061 ]
    mass: 6.940000
    reduced_to: 37
  - symbol: Li # 39
    coordinates: [  0.706412159433301,  0.000443163657494,  0.983394600206061 ]
    mass: 6.940000
    reduced_to: 37
  - symbol: Li # 40
    coordinates: [  0.039745492766634,  0.500443163657494,  0.983394600206061 ]
    mass: 6.940000
    reduced_to: 37
  - symbol: Li # 41
    coordinates: [  0.373078826099967,  0.500443163657494,  0.983394600206061 ]
    mass: 6.940000
    reduced_to: 37
  - symbol: Li # 42
    coordinates: [  0.706412159433301,  0.500443163657494,  0.983394600206061 ]
    mass: 6.940000
    reduced_to: 37
  - symbol: Li # 43
    coordinates: [  0.318535337132344,  0.336372382023739,  0.044520469511874 ]
    mass: 6.940000
    reduced_to: 43
  - symbol: Li # 44
    coordinates: [  0.651868670465678,  0.336372382023739,  0.044520469511874 ]
    mass: 6.940000
    reduced_to: 43
  - symbol: Li # 45
    coordinates: [  0.985202003799011,  0.336372382023739,  0.044520469511874 ]
    mass: 6.940000
    reduced_to: 43
  - symbol: Li # 46
    coordinates: [  0.318535337132344,  0.836372382023739,  0.044520469511874 ]
    mass: 6.940000
    reduced_to: 43
  - symbol: Li # 47
    coordinates: [  0.651868670465678,  0.836372382023739,  0.044520469511874 ]
    mass: 6.940000
    reduced_to: 43
  - symbol: Li # 48
    coordinates: [  0.985202003799011,  0.836372382023739,  0.044520469511874 ]
    mass: 6.940000
    reduced_to: 43
  - symbol: Li # 49
    coordinates: [  0.156093525000055,  0.349380590065244,  0.227678598448311 ]
    mass: 6.940000
    reduced_to: 49
  - symbol: Li # 50
    coordinates: [  0.489426858333389,  0.349380590065244,  0.227678598448311 ]
    mass: 6.940000
    reduced_to: 49
  - symbol: Li # 51
    coordinates: [  0.822760191666722,  0.349380590065244,  0.227678598448311 ]
    mass: 6.940000
    reduced_to: 49
  - symbol: Li # 52
    coordinates: [  0.156093525000055,  0.849380590065244,  0.227678598448311 ]
    mass: 6.940000
    reduced_to: 49
  - symbol: Li # 53
    coordinates: [  0.489426858333389,  0.849380590065244,  0.227678598448311 ]
    mass: 6.940000
    reduced_to: 49
  - symbol: Li # 54
    coordinates: [  0.822760191666722,  0.849380590065244,  0.227678598448311 ]
    mass: 6.940000
    reduced_to: 49
  - symbol: Li # 55
    coordinates: [  0.100776677947900,  0.183194199235398,  0.271729235770799 ]
    mass: 6.940000
    reduced_to: 55
  - symbol: Li # 56
    coordinates: [  0.434110011281233,  0.183194199235398,  0.271729235770799 ]
    mass: 6.940000
    reduced_to: 55
  - symbol: Li # 57
    coordinates: [  0.767443344614567,  0.183194199235398,  0.271729235770799 ]
    mass: 6.940000
    reduced_to: 55
  - symbol: Li # 58
    coordinates: [  0.100776677947900,  0.683194199235398,  0.271729235770799 ]
    mass: 6.940000
    reduced_to: 55
  - symbol: Li # 59
    coordinates: [  0.434110011281233,  0.683194199235398,  0.271729235770799 ]
    mass: 6.940000
    reduced_to: 55
  - symbol: Li # 60
    coordinates: [  0.767443344614567,  0.683194199235398,  0.271729235770799 ]
    mass: 6.940000
    reduced_to: 55
  - symbol: Ga # 61
    coordinates: [  0.269596604296474,  0.189558304278863,  0.129073192336609 ]
    mass: 69.723000
    reduced_to: 61
  - symbol: Ga # 62
    coordinates: [  0.602929937629807,  0.189558304278863,  0.129073192336609 ]
    mass: 69.723000
    reduced_to: 61
  - symbol: Ga # 63
    coordinates: [  0.936263270963141,  0.189558304278863,  0.129073192336609 ]
    mass: 69.723000
    reduced_to: 61
  - symbol: Ga # 64
    coordinates: [  0.269596604296474,  0.689558304278863,  0.129073192336609 ]
    mass: 69.723000
    reduced_to: 61
  - symbol: Ga # 65
    coordinates: [  0.602929937629807,  0.689558304278863,  0.129073192336609 ]
    mass: 69.723000
    reduced_to: 61
  - symbol: Ga # 66
    coordinates: [  0.936263270963141,  0.689558304278863,  0.129073192336609 ]
    mass: 69.723000
    reduced_to: 61
  - symbol: Ga # 67
    coordinates: [  0.163237235085312,  0.371053863402474,  0.520979766239500 ]
    mass: 69.723000
    reduced_to: 67
  - symbol: Ga # 68
    coordinates: [  0.496570568418646,  0.371053863402474,  0.520979766239500 ]
    mass: 69.723000
    reduced_to: 67
  - symbol: Ga # 69
    coordinates: [  0.829903901751979,  0.371053863402474,  0.520979766239500 ]
    mass: 69.723000
    reduced_to: 67
  - symbol: Ga # 70
    coordinates: [  0.163237235085312,  0.871053863402474,  0.520979766239500 ]
    mass: 69.723000
    reduced_to: 67
  - symbol: Ga # 71
    coordinates: [  0.496570568418646,  0.871053863402474,  0.520979766239500 ]
    mass: 69.723000
    reduced_to: 67
  - symbol: Ga # 72
    coordinates: [  0.829903901751979,  0.871053863402474,  0.520979766239500 ]
    mass: 69.723000
    reduced_to: 67
  - symbol: Ga # 73
    coordinates: [  0.111237692547280,  0.214880876738030,  0.567590812178548 ]
    mass: 69.723000
    reduced_to: 73
  - symbol: Ga # 74
    coordinates: [  0.444571025880613,  0.214880876738030,  0.567590812178548 ]
    mass: 69.723000
    reduced_to: 73
  - symbol: Ga # 75
    coordinates: [  0.777904359213946,  0.214880876738030,  0.567590812178548 ]
    mass: 69.723000
    reduced_to: 73
  - symbol: Ga # 76
    coordinates: [  0.111237692547280,  0.714880876738030,  0.567590812178548 ]
    mass: 69.723000
    reduced_to: 73
  - symbol: Ga # 77
    coordinates: [  0.444571025880613,  0.714880876738030,  0.567590812178548 ]
    mass: 69.723000
    reduced_to: 73
  - symbol: Ga # 78
    coordinates: [  0.777904359213946,  0.714880876738030,  0.567590812178548 ]
    mass: 69.723000
    reduced_to: 73
  - symbol: Ga # 79
    coordinates: [  0.328849799522817,  0.367957121524731,  0.385758274166395 ]
    mass: 69.723000
    reduced_to: 79
  - symbol: Ga # 80
    coordinates: [  0.662183132856150,  0.367957121524731,  0.385758274166395 ]
    mass: 69.723000
    reduced_to: 79
  - symbol: Ga # 81
    coordinates: [  0.995516466189484,  0.367957121524731,  0.385758274166395 ]
    mass: 69.723000
    reduced_to: 79
  - symbol: Ga # 82
    coordinates: [  0.328849799522817,  0.867957121524731,  0.385758274166395 ]
    mass: 69.723000
    reduced_to: 79
  - symbol: Ga # 83
    coordinates: [  0.662183132856150,  0.867957121524731,  0.385758274166395 ]
    mass: 69.723000
    reduced_to: 79
  - symbol: Ga # 84
    coordinates: [  0.995516466189484,  0.867957121524731,  0.385758274166395 ]
    mass: 69.723000
    reduced_to: 79
  - symbol: Ga # 85
    coordinates: [  0.047106553772908,  0.022736070131785,  0.333842486013161 ]
    mass: 69.723000
    reduced_to: 85
  - symbol: Ga # 86
    coordinates: [  0.380439887106241,  0.022736070131785,  0.333842486013161 ]
    mass: 69.723000
    reduced_to: 85
  - symbol: Ga # 87
    coordinates: [  0.713773220439574,  0.022736070131785,  0.333842486013161 ]
    mass: 69.723000
    reduced_to: 85
  - symbol: Ga # 88
    coordinates: [  0.047106553772908,  0.522736070131785,  0.333842486013161 ]
    mass: 69.723000
    reduced_to: 85
  - symbol: Ga # 89
    coordinates: [  0.380439887106241,  0.522736070131785,  0.333842486013161 ]
    mass: 69.723000
    reduced_to: 85
  - symbol: Ga # 90
    coordinates: [  0.713773220439574,  0.522736070131785,  0.333842486013161 ]
    mass: 69.723000
    reduced_to: 85
  - symbol: Sn # 91
    coordinates: [  0.097763261460903,  0.174062617021391,  0.955658490544516 ]
    mass: 118.710000
    reduced_to: 91
  - symbol: Sn # 92
    coordinates: [  0.431096594794236,  0.174062617021391,  0.955658490544516 ]
    mass: 118.710000
    reduced_to: 91
  - symbol: Sn # 93
    coordinates: [  0.764429928127569,  0.174062617021391,  0.955658490544516 ]
    mass: 118.710000
    reduced_to: 91
  - symbol: Sn # 94
    coordinates: [  0.097763261460903,  0.674062617021391,  0.955658490544516 ]
    mass: 118.710000
    reduced_to: 91
  - symbol: Sn # 95
    coordinates: [  0.431096594794236,  0.674062617021391,  0.955658490544516 ]
    mass: 118.710000
    reduced_to: 91
  - symbol: Sn # 96
    coordinates: [  0.764429928127569,  0.674062617021391,  0.955658490544516 ]
    mass: 118.710000
    reduced_to: 91
  - symbol: Sn # 97
    coordinates: [  0.279459065985868,  0.219722979575227,  0.735926599864957 ]
    mass: 118.710000
    reduced_to: 97
  - symbol: Sn # 98
    coordinates: [  0.612792399319201,  0.219722979575227,  0.735926599864957 ]
    mass: 118.710000
    reduced_to: 97
  - symbol: Sn # 99
    coordinates: [  0.946125732652535,  0.219722979575227,  0.735926599864957 ]
    mass: 118.710000
    reduced_to: 97
  - symbol: Sn # 100
    coordinates: [  0.279459065985868,  0.719722979575227,  0.735926599864957 ]
    mass: 118.710000
    reduced_to: 97
  - symbol: Sn # 101
    coordinates: [  0.612792399319201,  0.719722979575227,  0.735926599864957 ]
    mass: 118.710000
    reduced_to: 97
  - symbol: Sn # 102
    coordinates: [  0.946125732652535,  0.719722979575227,  0.735926599864957 ]
    mass: 118.710000
    reduced_to: 97
  - symbol: Sn # 103
    coordinates: [  0.209811673091599,  0.010692037029869,  0.161346092484074 ]
    mass: 118.710000
    reduced_to: 103
  - symbol: Sn # 104
    coordinates: [  0.543145006424932,  0.010692037029869,  0.161346092484074 ]
    mass: 118.710000
    reduced_to: 103
  - symbol: Sn # 105
    coordinates: [  0.876478339758266,  0.010692037029869,  0.161346092484074 ]
    mass: 118.710000
    reduced_to: 103
  - symbol: Sn # 106
    coordinates: [  0.209811673091599,  0.510692037029869,  0.161346092484074 ]
    mass: 118.710000
    reduced_to: 103
  - symbol: Sn # 107
    coordinates: [  0.543145006424932,  0.510692037029869,  0.161346092484074 ]
    mass: 118.710000
    reduced_to: 103
  - symbol: Sn # 108
    coordinates: [  0.876478339758266,  0.510692037029869,  0.161346092484074 ]
    mass: 118.710000
    reduced_to: 103

displacements:
- atom:    1
  displacement:
    [   0.0100000000000000,  0.0000000000000000,  0.0000000000000000 ]
  forces:
  - [  -0.0248160585761070, -0.0535454414784908, -0.0019726157188416 ]
  - [   0.0004659745900426, -0.0534057691693306, -0.0018881037831306 ]
  - [   0.0004377224831842, -0.0538501404225826, -0.0023717060685158 ]
  - [   0.0002137814590242, -0.0536096021533012, -0.0021256357431412 ]
  - [   0.0002133974339813, -0.0536486357450485, -0.0021302476525307 ]
  - [   0.0002132548543159, -0.0536402836441994, -0.0021387487649918 ]
  - [   0.0004188936727587, -0.0573546513915062, -0.0077641978859901 ]
  - [   0.0001593236083863, -0.0571823753416538, -0.0075650140643120 ]
  - [   0.0004182195116300, -0.0570061802864075, -0.0073662623763084 ]
  - [   0.0002096529788105, -0.0571807175874710, -0.0075635313987732 ]
  - [   0.0002082925348077, -0.0571904331445694, -0.0075497478246689 ]
  - [   0.0002077562094200, -0.0571730881929398, -0.0075840614736080 ]
  - [  -0.0029673685785383,  0.0835450962185860, -0.0047254264354706 ]
  - [  -0.0027821706607938,  0.0832959488034248, -0.0047485306859016 ]
  - [  -0.0029687487985939,  0.0830484405159950, -0.0047741010785103 ]
  - [  -0.0025647708680481,  0.0832908749580383, -0.0047497600317001 ]
  - [  -0.0028074276633561,  0.0833004936575890, -0.0047755762934685 ]
  - [  -0.0028037670999765,  0.0833001360297203, -0.0047233849763870 ]
  - [   0.0001887900289148,  0.0818775668740273, -0.0109415883198380 ]
  - [   0.0002657107543200,  0.0819689929485321, -0.0109299169853330 ]
  - [   0.0002687681699172,  0.0817883387207985, -0.0109585523605347 ]
  - [   0.0003173872828484,  0.0818968340754509, -0.0109475618228316 ]
  - [   0.0003192028962076,  0.0818569734692574, -0.0109388129785657 ]
  - [   0.0002995012328029,  0.0818774476647377, -0.0109437312930822 ]
  - [   0.0027070727664977, -0.0103704109787941, -0.1295215189456940 ]
  - [   0.0027297236956656, -0.0090058073401451, -0.1300090253353119 ]
  - [   0.0022059124894440, -0.0096989348530769, -0.1297533810138702 ]
  - [   0.0022176026832312, -0.0096943527460098, -0.1297508180141449 ]
  - [   0.0022005257196724, -0.0096866041421890, -0.1297593414783478 ]
  - [   0.0021989196538925, -0.0097092911601067, -0.1297482252120972 ]
  - [   0.0015132052358240,  0.0014931112527847,  0.1038580834865570 ]
  - [   0.0016711553325877,  0.0014094132930040,  0.1040040850639343 ]
  - [   0.0015109616797417,  0.0013258205726743,  0.1041547581553459 ]
  - [   0.0015803268179297,  0.0014102747663856,  0.1040052622556686 ]
  - [   0.0015665738610551,  0.0014069490134716,  0.1040015816688538 ]
  - [   0.0015704929828644,  0.0014109462499619,  0.1040057912468910 ]
  - [   0.0001396844745614, -0.0213523991405964,  0.0457548126578331 ]
  - [   0.0001519508659840, -0.0213739573955536,  0.0457466170191765 ]
  - [   0.0001527250860818, -0.0213254578411579,  0.0457616597414017 ]
  - [   0.0021981755271554, -0.0231023244559765,  0.0443575307726860 ]
  - [   0.0022274842485785, -0.0195602402091026,  0.0471812188625336 ]
  - [   0.0001209927722812, -0.0213522426784039,  0.0457553714513779 ]
  - [   0.0003702957183123, -0.0121463034301996,  0.0353169739246368 ]
  - [  -0.0011962130665779, -0.0109928883612156,  0.0338334776461124 ]
  - [   0.0003534778952599, -0.0098556093871593,  0.0323690734803677 ]
  - [  -0.0012336601503193, -0.0109866224229336,  0.0338438563048840 ]
  - [  -0.0012513529509306, -0.0110066793859005,  0.0338186398148537 ]
  - [  -0.0012431652285159, -0.0109882336109877,  0.0338332355022430 ]
  - [  -0.0003441668814048, -0.0058987662196159,  0.0737528055906296 ]
  - [  -0.0007319083088078, -0.0058371867053211,  0.0736604928970337 ]
  - [  -0.0007325256592594, -0.0059634959325194,  0.0738438218832016 ]
  - [  -0.0005661884788424, -0.0058799730613828,  0.0738109722733498 ]
  - [  -0.0005713792052120, -0.0058867633342743,  0.0737568289041519 ]
  - [  -0.0005734061705880, -0.0059339497238398,  0.0736941099166870 ]
  - [  -0.0008128935005516, -0.0445121005177498, -0.0595953688025475 ]
  - [  -0.0009162226924673, -0.0445409677922726, -0.0595712810754776 ]
  - [  -0.0009165945230052, -0.0444815196096897, -0.0596208199858665 ]
  - [  -0.0009222952648997, -0.0445038601756096, -0.0595299415290356 ]
  - [  -0.0009216670878232, -0.0445110723376274, -0.0596523210406303 ]
  - [  -0.0008899178355932, -0.0445180684328079, -0.0596048496663570 ]
  - [  -0.0020762286148965,  0.0249732285737991, -0.0802267119288445 ]
  - [  -0.0021304418332875,  0.0250471979379654, -0.0802945718169212 ]
  - [  -0.0020746740046889,  0.0251217409968376, -0.0803648829460144 ]
  - [  -0.0020418660715222,  0.0250428244471550, -0.0802999585866928 ]
  - [  -0.0021239824127406,  0.0250252969563007, -0.0802938342094421 ]
  - [  -0.0021277032792568,  0.0250777546316385, -0.0802958160638809 ]
  - [  -0.0014933698112145,  0.0393634699285030,  0.0667656958103180 ]
  - [  -0.0016302103176713,  0.0391115695238113,  0.0668481662869453 ]
  - [  -0.0016315870452672,  0.0396124720573425,  0.0666844993829727 ]
  - [  -0.0015649298438802,  0.0393347740173340,  0.0667317211627960 ]
  - [  -0.0015383050777018,  0.0393587537109852,  0.0667592585086823 ]
  - [  -0.0015660262433812,  0.0394015274941921,  0.0668072402477264 ]
  - [  -0.0026383390650153,  0.0171544961631298, -0.0532794371247292 ]
  - [  -0.0009701475501060,  0.0170425847172737, -0.0531967841088772 ]
  - [  -0.0009659081697464,  0.0172599814832211, -0.0533707886934280 ]
  - [  -0.0009672222658992,  0.0171555131673813, -0.0532949231564999 ]
  - [  -0.0009629577398300,  0.0171609278768301, -0.0532818213105202 ]
  - [  -0.0009539611637592,  0.0171422995626926, -0.0532784573733807 ]
  - [   0.0022242050617933, -0.0218068268150091, -0.0122587271034718 ]
  - [   0.0022670659236610, -0.0218159630894661, -0.0122069865465164 ]
  - [   0.0022252076305449, -0.0218255799263716, -0.0121551603078842 ]
  - [   0.0022230651229620, -0.0218262467533350, -0.0121933259069920 ]
  - [   0.0022270965855569, -0.0218022856861353, -0.0122100804001093 ]
  - [   0.0022867019288242, -0.0218232590705156, -0.0122173298150301 ]
  - [   0.0010950975120068, -0.0231011155992746,  0.0677326545119286 ]
  - [   0.0009456984698772, -0.0229554325342178,  0.0679625347256660 ]
  - [   0.0009473469108343, -0.0232464633882046,  0.0675097703933716 ]
  - [   0.0010197442024946, -0.0232334360480309,  0.0676290541887283 ]
  - [   0.0010199816897511, -0.0229698698967695,  0.0678430125117302 ]
  - [   0.0008648987859488, -0.0231015924364328,  0.0677342042326927 ]
  - [   0.0015993241686374,  0.1557007580995560, -0.0892498940229416 ]
  - [   0.0018111425451934,  0.1560594588518143, -0.0896483659744263 ]
  - [   0.0018046367913485,  0.1553449481725693, -0.0888581573963165 ]
  - [   0.0022629140876234,  0.1558074951171875, -0.0892627388238907 ]
  - [   0.0022585168480873,  0.1556008458137512, -0.0892484933137894 ]
  - [   0.0022650067694485,  0.1557070314884186, -0.0892566442489624 ]
  - [   0.0092947371304035, -0.1651727408170700,  0.0626649856567383 ]
  - [  -0.0003196443431079, -0.1611544936895370,  0.0671680346131325 ]
  - [   0.0090803727507591, -0.1572487503290176,  0.0714865773916245 ]
  - [   0.0000453041866422, -0.1611569374799728,  0.0671677216887474 ]
  - [   0.0000268772710115, -0.1611555218696594,  0.0671742931008339 ]
  - [   0.0000242484820774, -0.1611517965793610,  0.0671710222959518 ]
  - [   0.0000020265579224,  0.0054956302046776, -0.0092382803559303 ]
  - [   0.0000778026878834,  0.0054869800806046, -0.0092331171035767 ]
  - [  -0.0000000745058060,  0.0054736733436584, -0.0092259421944618 ]
  - [   0.0009672036394477,  0.0054773092269897, -0.0092628672719002 ]
  - [   0.0001166430301964,  0.0055441185832024, -0.0091491863131523 ]
  - [   0.0001157061196864,  0.0054234862327576, -0.0093145892024040 ]
- atom:    1
  displacement:
    [  -0.0100000000000000,  0.0000000000000000,  0.0000000000000000 ]
  forces:
  - [   0.0252452082931995, -0.0535319186747074, -0.0020278766751289 ]
  - [  -0.0000081458711065, -0.0538504570722580, -0.0023717209696770 ]
  - [  -0.0000365669839084, -0.0534070171415806, -0.0018892064690590 ]
  - [   0.0002124630846083, -0.0536609292030334, -0.0021363720297813 ]
  - [   0.0002140355063602, -0.0536128133535385, -0.0021337941288948 ]
  - [   0.0002138186537195, -0.0536254048347473, -0.0021247789263725 ]
  - [  -0.0000052132818382, -0.0570072643458843, -0.0073673352599144 ]
  - [   0.0002552793885116, -0.0571801513433456, -0.0075629912316799 ]
  - [  -0.0000045321066864, -0.0573550648987293, -0.0077637024223804 ]
  - [   0.0002031529293163, -0.0571803487837315, -0.0075636692345142 ]
  - [   0.0002047074376605, -0.0571707449853420, -0.0075792968273163 ]
  - [   0.0002050327020697, -0.0571930333971977, -0.0075546260923147 ]
  - [  -0.0026181666180491,  0.0830434113740921, -0.0047738701105118 ]