phonopy:
  version: "2.37.1"
  frequency_unit_conversion_factor: 15.633302
  symmetry_tolerance: 1.00000e-05

space_group:
  type: "Fm-3m"
  number: 225
  Hall_symbol: "-F 4 2 3"

primitive_matrix:
- [  0.000000000000000,  1.000000000000000,  0.000000000000000 ]
- [  0.000000000000000,  0.000000000000000,  1.000000000000000 ]
- [  1.000000000000000,  0.000000000000000,  0.000000000000000 ]

supercell_matrix:
- [   3,   0,   0 ]
- [   0,   3,   0 ]
- [   0,   0,   3 ]

primitive_cell:
  lattice:
  - [     2.330030135950000,     1.345243526210673,     3.804923278923479 ] # a
  - [     4.660060271899999,     0.000000000000000,     0.000000000000000 ] # b
  - [     2.330030135950000,     4.035730578632018,     0.000000000000000 ] # c
  points:
  - symbol: Li # 1
    coordinates: [  0.000000000000000,  0.000000000000000,  0.000000000000000 ]
    mass: 6.940000
  - symbol: Li # 2
    coordinates: [  0.750000000000000,  0.750000000000000,  0.750000000000000 ]
    mass: 6.940000
  - symbol: Li # 3
    coordinates: [  0.500000000000000,  0.500000000000000,  0.500000000000000 ]
    mass: 6.940000
  - symbol: Sn # 4
    coordinates: [  0.250000000000000,  0.250000000000000,  0.250000000000000 ]
    mass: 118.710000
  reciprocal_lattice: # without 2pi
  - [     0.000000000000000,     0.000000000000000,     0.262817388602623 ] # a*
  - [     0.214589499202396,    -0.123893305129770,    -0.087605796200875 ] # b*
  - [     0.000000000000000,     0.247786610259540,    -0.087605796200874 ] # c*

unit_cell:
  lattice:
  - [     4.660060271900000,     0.000000000000000,     0.000000000000000 ] # a
  - [     2.330030135950000,     4.035730578632018,     0.000000000000000 ] # b
  - [     2.330030135950000,     1.345243526210673,     3.804923278923479 ] # c
  points:
  - symbol: Li # 1
    coordinates: [  0.000000000000000,  0.000000000000000,  0.000000000000000 ]
    mass: 6.940000
    reduced_to: 1
  - symbol: Li # 2
    coordinates: [  0.750000000000000,  0.750000000000000,  0.750000000000000 ]
    mass: 6.940000
    reduced_to: 2
  - symbol: Li # 3
    coordinates: [  0.500000000000000,  0.500000000000000,  0.500000000000000 ]
    mass: 6.940000
    reduced_to: 3
  - symbol: Sn # 4
    coordinates: [  0.250000000000000,  0.250000000000000,  0.250000000000000 ]
    mass: 118.710000
    reduced_to: 4

supercell:
  lattice:
  - [    13.980180815699999,     0.000000000000000,     0.000000000000000 ] # a
  - [     6.990090407850001,    12.107191735896054,     0.000000000000000 ] # b
  - [     6.990090407850001,     4.035730578632019,    11.414769836770436 ] # c
  points:
  - symbol: Li # 1
    coordinates: [  0.000000000000000,  0.000000000000000,  0.000000000000000 ]
    mass: 6.940000
    reduced_to: 1
  - symbol: Li # 2
    coordinates: [  0.333333333333333,  0.000000000000000,  0.000000000000000 ]
    mass: 6.940000
    reduced_to: 1
  - symbol: Li # 3
    coordinates: [  0.666666666666667,  0.000000000000000,  0.000000000000000 ]
    mass: 6.940000
    reduced_to: 1
  - symbol: Li # 4
    coordinates: [  0.000000000000000,  0.333333333333333,  0.000000000000000 ]
    mass: 6.940000
    reduced_to: 1
  - symbol: Li # 5
    coordinates: [  0.333333333333333,  0.333333333333333,  0.000000000000000 ]
    mass: 6.940000
    reduced_to: 1
  - symbol: Li # 6
    coordinates: [  0.666666666666667,  0.333333333333333,  0.000000000000000 ]
    mass: 6.940000
    reduced_to: 1
  - symbol: Li # 7
    coordinates: [  0.000000000000000,  0.666666666666667,  0.000000000000000 ]
    mass: 6.940000
    reduced_to: 1
  - symbol: Li # 8
    coordinates: [  0.333333333333333,  0.666666666666667,  0.000000000000000 ]
    mass: 6.940000
    reduced_to: 1
  - symbol: Li # 9
    coordinates: [  0.666666666666667,  0.666666666666667,  0.000000000000000 ]
    mass: 6.940000
    reduced_to: 1
  - symbol: Li # 10
    coordinates: [  0.000000000000000,  0.000000000000000,  0.333333333333333 ]
    mass: 6.940000
    reduced_to: 1
  - symbol: Li # 11
    coordinates: [  0.333333333333333,  0.000000000000000,  0.333333333333333 ]
    mass: 6.940000
    reduced_to: 1
  - symbol: Li # 12
    coordinates: [  0.666666666666667,  0.000000000000000,  0.333333333333333 ]
    mass: 6.940000
    reduced_to: 1
  - symbol: Li # 13
    coordinates: [  0.000000000000000,  0.333333333333333,  0.333333333333333 ]
    mass: 6.940000
    reduced_to: 1
  - symbol: Li # 14
    coordinates: [  0.333333333333333,  0.333333333333333,  0.333333333333333 ]
    mass: 6.940000
    reduced_to: 1
  - symbol: Li # 15
    coordinates: [  0.666666666666667,  0.333333333333333,  0.333333333333333 ]
    mass: 6.940000
    reduced_to: 1
  - symbol: Li # 16
    coordinates: [  0.000000000000000,  0.666666666666667,  0.333333333333333 ]
    mass: 6.940000
    reduced_to: 1
  - symbol: Li # 17
    coordinates: [  0.333333333333333,  0.666666666666667,  0.333333333333333 ]
    mass: 6.940000
    reduced_to: 1
  - symbol: Li # 18
    coordinates: [  0.666666666666667,  0.666666666666667,  0.333333333333333 ]
    mass: 6.940000
    reduced_to: 1
  - symbol: Li # 19
    coordinates: [  0.000000000000000,  0.000000000000000,  0.666666666666667 ]
    mass: 6.940000
    reduced_to: 1
  - symbol: Li # 20
    coordinates: [  0.333333333333333,  0.000000000000000,  0.666666666666667 ]
    mass: 6.940000
    reduced_to: 1
  - symbol: Li # 21
    coordinates: [  0.666666666666667,  0.000000000000000,  0.666666666666667 ]
    mass: 6.940000
    reduced_to: 1
  - symbol: Li # 22
    coordinates: [  0.000000000000000,  0.333333333333333,  0.666666666666667 ]
    mass: 6.940000
    reduced_to: 1
  - symbol: Li # 23
    coordinates: [  0.333333333333333,  0.333333333333333,  0.666666666666667 ]
    mass: 6.940000
    reduced_to: 1
  - symbol: Li # 24
    coordinates: [  0.666666666666667,  0.333333333333333,  0.666666666666667 ]
    mass: 6.940000
    reduced_to: 1
  - symbol: Li # 25
    coordinates: [  0.000000000000000,  0.666666666666667,  0.666666666666667 ]
    mass: 6.940000
    reduced_to: 1
  - symbol: Li # 26
    coordinates: [  0.333333333333333,  0.666666666666667,  0.666666666666667 ]
    mass: 6.940000
    reduced_to: 1
  - symbol: Li # 27
    coordinates: [  0.666666666666667,  0.666666666666667,  0.666666666666667 ]
    mass: 6.940000
    reduced_to: 1
  - symbol: Li # 28
    coordinates: [  0.250000000000000,  0.250000000000000,  0.250000000000000 ]
    mass: 6.940000
    reduced_to: 28
  - symbol: Li # 29
    coordinates: [  0.583333333333333,  0.250000000000000,  0.250000000000000 ]
    mass: 6.940000
    reduced_to: 28
  - symbol: Li # 30
    coordinates: [  0.916666666666667,  0.250000000000000,  0.250000000000000 ]
    mass: 6.940000
    reduced_to: 28
  - symbol: Li # 31
    coordinates: [  0.250000000000000,  0.583333333333333,  0.250000000000000 ]
    mass: 6.940000
    reduced_to: 28
  - symbol: Li # 32
    coordinates: [  0.583333333333333,  0.583333333333333,  0.250000000000000 ]
    mass: 6.940000
    reduced_to: 28
  - symbol: Li # 33
    coordinates: [  0.916666666666667,  0.583333333333333,  0.250000000000000 ]
    mass: 6.940000
    reduced_to: 28
  - symbol: Li # 34
    coordinates: [  0.250000000000000,  0.916666666666667,  0.250000000000000 ]
    mass: 6.940000
    reduced_to: 28
  - symbol: Li # 35
    coordinates: [  0.583333333333333,  0.916666666666667,  0.250000000000000 ]
    mass: 6.940000
    reduced_to: 28
  - symbol: Li # 36
    coordinates: [  0.916666666666667,  0.916666666666667,  0.250000000000000 ]
    mass: 6.940000
    reduced_to: 28
  - symbol: Li # 37
    coordinates: [  0.250000000000000,  0.250000000000000,  0.583333333333333 ]
    mass: 6.940000
    reduced_to: 28
  - symbol: Li # 38
    coordinates: [  0.583333333333333,  0.250000000000000,  0.583333333333333 ]
    mass: 6.940000
    reduced_to: 28
  - symbol: Li # 39
    coordinates: [  0.916666666666667,  0.250000000000000,  0.583333333333333 ]
    mass: 6.940000
    reduced_to: 28
  - symbol: Li # 40
    coordinates: [  0.250000000000000,  0.583333333333333,  0.583333333333333 ]
    mass: 6.940000
    reduced_to: 28
  - symbol: Li # 41
    coordinates: [  0.583333333333333,  0.583333333333333,  0.583333333333333 ]
    mass: 6.940000
    reduced_to: 28
  - symbol: Li # 42
    coordinates: [  0.916666666666667,  0.583333333333333,  0.583333333333333 ]
    mass: 6.940000
    reduced_to: 28
  - symbol: Li # 43
    coordinates: [  0.250000000000000,  0.916666666666667,  0.583333333333333 ]
    mass: 6.940000
    reduced_to: 28
  - symbol: Li # 44
    coordinates: [  0.583333333333333,  0.916666666666667,  0.583333333333333 ]
    mass: 6.940000
    reduced_to: 28
  - symbol: Li # 45
    coordinates: [  0.916666666666667,  0.916666666666667,  0.583333333333333 ]
    mass: 6.940000
    reduced_to: 28
  - symbol: Li # 46
    coordinates: [  0.250000000000000,  0.250000000000000,  0.916666666666667 ]
    mass: 6.940000
    reduced_to: 28
  - symbol: Li # 47
    coordinates: [  0.583333333333333,  0.250000000000000,  0.916666666666667 ]
    mass: 6.940000
    reduced_to: 28
  - symbol: Li # 48
    coordinates: [  0.916666666666667,  0.250000000000000,  0.916666666666667 ]
    mass: 6.940000
    reduced_to: 28
  - symbol: Li # 49
    coordinates: [  0.250000000000000,  0.583333333333333,  0.916666666666667 ]
    mass: 6.940000
    reduced_to: 28
  - symbol: Li # 50
    coordinates: [  0.583333333333333,  0.583333333333333,  0.916666666666667 ]
    mass: 6.940000
    reduced_to: 28
  - symbol: Li # 51
    coordinates: [  0.916666666666667,  0.583333333333333,  0.916666666666667 ]
    mass: 6.940000
    reduced_to: 28
  - symbol: Li # 52
    coordinates: [  0.250000000000000,  0.916666666666667,  0.916666666666667 ]
    mass: 6.940000
    reduced_to: 28
  - symbol: Li # 53
    coordinates: [  0.583333333333333,  0.916666666666667,  0.916666666666667 ]
    mass: 6.940000
    reduced_to: 28
  - symbol: Li # 54
    coordinates: [  0.916666666666667,  0.916666666666667,  0.916666666666667 ]
    mass: 6.940000
    reduced_to: 28
  - symbol: Li # 55
    coordinates: [  0.166666666666667,  0.166666666666667,  0.166666666666667 ]
    mass: 6.940000
    reduced_to: 55
  - symbol: Li # 56
    coordinates: [  0.500000000000000,  0.166666666666667,  0.166666666666667 ]
    mass: 6.940000
    reduced_to: 55
  - symbol: Li # 57
    coordinates: [  0.833333333333333,  0.166666666666667,  0.166666666666667 ]
    mass: 6.940000
    reduced_to: 55
  - symbol: Li # 58
    coordinates: [  0.166666666666667,  0.500000000000000,  0.166666666666667 ]
    mass: 6.940000
    reduced_to: 55
  - symbol: Li # 59
    coordinates: [  0.500000000000000,  0.500000000000000,  0.166666666666667 ]
    mass: 6.940000
    reduced_to: 55
  - symbol: Li # 60
    coordinates: [  0.833333333333333,  0.500000000000000,  0.166666666666667 ]
    mass: 6.940000
    reduced_to: 55
  - symbol: Li # 61
    coordinates: [  0.166666666666667,  0.833333333333333,  0.166666666666667 ]
    mass: 6.940000
    reduced_to: 55
  - symbol: Li # 62
    coordinates: [  0.500000000000000,  0.833333333333333,  0.166666666666667 ]
    mass: 6.940000
    reduced_to: 55
  - symbol: Li # 63
    coordinates: [  0.833333333333333,  0.833333333333333,  0.166666666666667 ]
    mass: 6.940000
    reduced_to: 55
  - symbol: Li # 64
    coordinates: [  0.166666666666667,  0.166666666666667,  0.500000000000000 ]
    mass: 6.940000
    reduced_to: 55
  - symbol: Li # 65
    coordinates: [  0.500000000000000,  0.166666666666667,  0.500000000000000 ]
    mass: 6.940000
    reduced_to: 55
  - symbol: Li # 66
    coordinates: [  0.833333333333333,  0.166666666666667,  0.500000000000000 ]
    mass: 6.940000
    reduced_to: 55
  - symbol: Li # 67
    coordinates: [  0.166666666666667,  0.500000000000000,  0.500000000000000 ]
    mass: 6.940000
    reduced_to: 55
  - symbol: Li # 68
    coordinates: [  0.500000000000000,  0.500000000000000,  0.500000000000000 ]
    mass: 6.940000
    reduced_to: 55
  - symbol: Li # 69
    coordinates: [  0.833333333333333,  0.500000000000000,  0.500000000000000 ]
    mass: 6.940000
    reduced_to: 55
  - symbol: Li # 70
    coordinates: [  0.166666666666667,  0.833333333333333,  0.500000000000000 ]
    mass: 6.940000
    reduced_to: 55
  - symbol: Li # 71
    coordinates: [  0.500000000000000,  0.833333333333333,  0.500000000000000 ]
    mass: 6.940000
    reduced_to: 55
  - symbol: Li # 72
    coordinates: [  0.833333333333333,  0.833333333333333,  0.500000000000000 ]
    mass: 6.940000
    reduced_to: 55
  - symbol: Li # 73
    coordinates: [  0.166666666666667,  0.166666666666667,  0.833333333333333 ]
    mass: 6.940000
    reduced_to: 55
  - symbol: Li # 74
    coordinates: [  0.500000000000000,  0.166666666666667,  0.833333333333333 ]
    mass: 6.940000
    reduced_to: 55
  - symbol: Li # 75
    coordinates: [  0.833333333333333,  0.166666666666667,  0.833333333333333 ]
    mass: 6.940000
    reduced_to: 55
  - symbol: Li # 76
    coordinates: [  0.166666666666667,  0.500000000000000,  0.833333333333333 ]
    mass: 6.940000
    reduced_to: 55
  - symbol: Li # 77
    coordinates: [  0.500000000000000,  0.500000000000000,  0.833333333333333 ]
    mass: 6.940000
    reduced_to: 55
  - symbol: Li # 78
    coordinates: [  0.833333333333333,  0.500000000000000,  0.833333333333333 ]
    mass: 6.940000
    reduced_to: 55
  - symbol: Li # 79
    coordinates: [  0.166666666666667,  0.833333333333333,  0.833333333333333 ]
    mass: 6.940000
    reduced_to: 55
  - symbol: Li # 80
    coordinates: [  0.500000000000000,  0.833333333333333,  0.833333333333333 ]
    mass: 6.940000
    reduced_to: 55
  - symbol: Li # 81
    coordinates: [  0.833333333333333,  0.833333333333333,  0.833333333333333 ]
    mass: 6.940000
    reduced_to: 55
  - symbol: Sn # 82
    coordinates: [  0.083333333333333,  0.083333333333333,  0.083333333333333 ]
    mass: 118.710000
    reduced_to: 82
  - symbol: Sn # 83
    coordinates: [  0.416666666666667,  0.083333333333333,  0.083333333333333 ]
    mass: 118.710000
    reduced_to: 82
  - symbol: Sn # 84
    coordinates: [  0.750000000000000,  0.083333333333333,  0.083333333333333 ]
    mass: 118.710000
    reduced_to: 82
  - symbol: Sn # 85
    coordinates: [  0.083333333333333,  0.416666666666667,  0.083333333333333 ]
    mass: 118.710000
    reduced_to: 82
  - symbol: Sn # 86
    coordinates: [  0.416666666666667,  0.416666666666667,  0.083333333333333 ]
    mass: 118.710000
    reduced_to: 82
  - symbol: Sn # 87
    coordinates: [  0.750000000000000,  0.416666666666667,  0.083333333333333 ]
    mass: 118.710000
    reduced_to: 82
  - symbol: Sn # 88
    coordinates: [  0.083333333333333,  0.750000000000000,  0.083333333333333 ]
    mass: 118.710000
    reduced_to: 82
  - symbol: Sn # 89
    coordinates: [  0.416666666666667,  0.750000000000000,  0.083333333333333 ]
    mass: 118.710000
    reduced_to: 82
  - symbol: Sn # 90
    coordinates: [  0.750000000000000,  0.750000000000000,  0.083333333333333 ]
    mass: 118.710000
    reduced_to: 82
  - symbol: Sn # 91
    coordinates: [  0.083333333333333,  0.083333333333333,  0.416666666666667 ]
    mass: 118.710000
    reduced_to: 82
  - symbol: Sn # 92
    coordinates: [  0.416666666666667,  0.083333333333333,  0.416666666666667 ]
    mass: 118.710000
    reduced_to: 82
  - symbol: Sn # 93
    coordinates: [  0.750000000000000,  0.083333333333333,  0.416666666666667 ]
    mass: 118.710000
    reduced_to: 82
  - symbol: Sn # 94
    coordinates: [  0.083333333333333,  0.416666666666667,  0.416666666666667 ]
    mass: 118.710000
    reduced_to: 82
  - symbol: Sn # 95
    coordinates: [  0.416666666666667,  0.416666666666667,  0.416666666666667 ]
    mass: 118.710000
    reduced_to: 82
  - symbol: Sn # 96
    coordinates: [  0.750000000000000,  0.416666666666667,  0.416666666666667 ]
    mass: 118.710000
    reduced_to: 82
  - symbol: Sn # 97
    coordinates: [  0.083333333333333,  0.750000000000000,  0.416666666666667 ]
    mass: 118.710000
    reduced_to: 82
  - symbol: Sn # 98
    coordinates: [  0.416666666666667,  0.750000000000000,  0.416666666666667 ]
    mass: 118.710000
    reduced_to: 82
  - symbol: Sn # 99
    coordinates: [  0.750000000000000,  0.750000000000000,  0.416666666666667 ]
    mass: 118.710000
    reduced_to: 82
  - symbol: Sn # 100
    coordinates: [  0.083333333333333,  0.083333333333333,  0.750000000000000 ]
    mass: 118.710000
    reduced_to: 82
  - symbol: Sn # 101
    coordinates: [  0.416666666666667,  0.083333333333333,  0.750000000000000 ]
    mass: 118.710000
    reduced_to: 82
  - symbol: Sn # 102
    coordinates: [  0.750000000000000,  0.083333333333333,  0.750000000000000 ]
    mass: 118.710000
    reduced_to: 82
  - symbol: Sn # 103
    coordinates: [  0.083333333333333,  0.416666666666667,  0.750000000000000 ]
    mass: 118.710000
    reduced_to: 82
  - symbol: Sn # 104
    coordinates: [  0.416666666666667,  0.416666666666667,  0.750000000000000 ]
    mass: 118.710000
    reduced_to: 82
  - symbol: Sn # 105
    coordinates: [  0.750000000000000,  0.416666666666667,  0.750000000000000 ]
    mass: 118.710000
    reduced_to: 82
  - symbol: Sn # 106
    coordinates: [  0.083333333333333,  0.750000000000000,  0.750000000000000 ]
    mass: 118.710000
    reduced_to: 82
  - symbol: Sn # 107
    coordinates: [  0.416666666666667,  0.750000000000000,  0.750000000000000 ]
    mass: 118.710000
    reduced_to: 82
  - symbol: Sn # 108
    coordinates: [  0.750000000000000,  0.750000000000000,  0.750000000000000 ]
    mass: 118.710000
    reduced_to: 82

displacements:
- atom:    1
  displacement:
    [   0.0100000000000000,  0.0000000000000000,  0.0000000000000000 ]
  forces:
  - [  -0.0260432492941618, -0.0001407183299307, -0.0001008340623230 ]
  - [  -0.0001990508753806,  0.0001132792676799,  0.0000805498566478 ]
  - [  -0.0001984675182030, -0.0001135895145126, -0.0000806937459856 ]
  - [   0.0000738058879506, -0.0002739087212831,  0.0001897448673844 ]
  - [  -0.0000144143996295,  0.0000001044536475, -0.0000006395857781 ]
  - [   0.0000767205128795,  0.0002683281200007, -0.0001886604586616 ]
  - [   0.0000730754109100, -0.0000426427068305,  0.0001083237584680 ]
  - [   0.0000732951448299,  0.0000454864784842, -0.0001090881414711 ]
  - [  -0.0000158812326845,  0.0000016994702037,  0.0000004005851224 ]
  - [   0.0000743138371035,  0.0000886581838131, -0.0003232043236494 ]
  - [  -0.0000145836966112,  0.0000001495936885, -0.0000004786998034 ]
  - [   0.0000766379889683, -0.0000876080011949,  0.0003153542056680 ]
  - [   0.0000035988632590, -0.0000124141224660, -0.0000084423227236 ]
  - [   0.0000035223201849,  0.0000105274957605,  0.0000066972570494 ]
  - [  -0.0000087895896286, -0.0000004234025255, -0.0000011614756659 ]
  - [  -0.0000775330699980,  0.0000004759640433,  0.0000004859175533 ]
  - [  -0.0000309696188197,  0.0000128448009491, -0.0000189981656149 ]
  - [  -0.0000309752067551, -0.0000132031273097,  0.0000177009496838 ]
  - [   0.0000732957269065,  0.0000878984574229, -0.0000777343520895 ]
  - [   0.0000736792571843, -0.0000878244172782,  0.0000765044242144 ]
  - [  -0.0000150800915435,  0.0000003984896466, -0.0000009911600500 ]
  - [  -0.0000776543747634, -0.0000004796311259,  0.0000006705522537 ]
  - [  -0.0000308390008286, -0.0000146706588566,  0.0000188872218132 ]
  - [  -0.0000309433089569,  0.0000121754128486, -0.0000178385525942 ]
  - [   0.0000064523192123, -0.0000116098672152, -0.0000079647870734 ]
  - [  -0.0000088823726401, -0.0000006961636245,  0.0000007074559107 ]
  - [   0.0000041081802920,  0.0000105159124359,  0.0000087847001851 ]
  - [  -0.0000620307400823,  0.0000004894682206,  0.0000007397029549 ]
  - [   0.0001309526851401,  0.0002320002822671,  0.0001643294235691 ]
  - [   0.0001305279438384, -0.0002388651773799, -0.0001688868505880 ]
  - [   0.0001410135882907, -0.0000439995201305,  0.0001232138602063 ]
  - [   0.0000020946608856,  0.0000012824311852,  0.0000003618188202 ]
  - [   0.0001412274432369,  0.0000467376084998, -0.0001235099043697 ]
  - [  -0.0000300561077893,  0.0001312447711825, -0.0000450677471235 ]
  - [  -0.0000272113829851, -0.0001305504702032,  0.0000417012488469 ]
  - [  -0.0003181579522789, -0.0000007119961083, -0.0000114261638373 ]
  - [   0.0001407975796610,  0.0001011203567032, -0.0000833632657304 ]
  - [   0.0000022416934371, -0.0000000131840352,  0.0000003034947440 ]
  - [   0.0001410163822584, -0.0001012491411529,  0.0000846517505124 ]
  - [   0.0000046114437282, -0.0000009071372915, -0.0000007625203580 ]
  - [   0.0000041486928239, -0.0000000322179403,  0.0000002500601113 ]
  - [  -0.0000096288276836, -0.0000006271875463, -0.0000001095468178 ]
  - [  -0.0000327645684592, -0.0000014054821804,  0.0000005045440048 ]
  - [   0.0000047572539188, -0.0000088892411441, -0.0000169882550836 ]
  - [   0.0000063257757574,  0.0000074559357017,  0.0000196261098608 ]
  - [  -0.0000291320029646,  0.0000029078219086,  0.0001388620585203 ]
  - [  -0.0000276931095868, -0.0000039350707084, -0.0001359861344099 ]
  - [  -0.0003174534067512, -0.0000113197602332,  0.0000038249418139 ]
  - [  -0.0000330084003508, -0.0000001558801159, -0.0000008400529623 ]
  - [   0.0000050717499107, -0.0000191836152226, -0.0000017024576664 ]
  - [   0.0000066602369770,  0.0000197326298803,  0.0000006156042218 ]
  - [   0.0036321743391454, -0.0022903615608811, -0.0016192450420931 ]
  - [   0.0000375977833755, -0.0000005142355803,  0.0000001103617251 ]
  - [   0.0035887656267732,  0.0022448759991676,  0.0015879408456385 ]
  - [  -0.0010286304168403, -0.0004982834798284, -0.0003509988309816 ]
  - [  -0.0010348747018725,  0.0005040242103860,  0.0003560294862837 ]
  - [   0.0000075446441770,  0.0000023558968678,  0.0000007904600352 ]
  - [  -0.0001621173578314, -0.0000024471664801,  0.0000007821945474 ]
  - [   0.0000072535476647, -0.0000199863570742,  0.0000015514669940 ]
  - [   0.0000059091253206,  0.0000189893180504, -0.0000019740546122 ]
  - [   0.0006023706519045, -0.0003448309726082,  0.0003534930292517 ]
  - [   0.0000393699156120, -0.0000005625188351,  0.0000000308500603 ]
  - [   0.0005859567318112,  0.0003338988753967, -0.0003362147836015 ]
  - [  -0.0001625917211641,  0.0000005357433110, -0.0000030435621738 ]
  - [   0.0000067040673457, -0.0000043498585001, -0.0000193230807781 ]
  - [   0.0000054112169892,  0.0000055123819038,  0.0000178879126906 ]
  - [   0.0000055492855608, -0.0000033235992305, -0.0000050980597734 ]
  - [  -0.0000111669069156,  0.0000018616556190, -0.0000008326023817 ]
  - [   0.0000055544660427,  0.0000066214706749,  0.0000026030465961 ]
  - [   0.0000150006380863,  0.0000000867294148,  0.0000147270038724 ]
  - [   0.0000139900366776,  0.0000009370851330, -0.0000163288787007 ]
  - [  -0.0000443547614850,  0.0000014955294318, -0.0000008037313819 ]
  - [   0.0006020168657415,  0.0002175346016884, -0.0004430850967765 ]
  - [   0.0000394384260289, -0.0000014416873455, -0.0000001387670636 ]
  - [   0.0005861914251000, -0.0002070963382721,  0.0004269676283002 ]
  - [   0.0000144822115544,  0.0000140033662319, -0.0000051539391279 ]
  - [   0.0000138254836202, -0.0000149756669998,  0.0000044070184231 ]
  - [  -0.0000446581398137, -0.0000005401670933,  0.0000001639127731 ]
  - [   0.0002270555123687,  0.0000044298358262,  0.0000051641836762 ]
  - [  -0.0000303364358842, -0.0000088040251285, -0.0000043381005526 ]
  - [  -0.0000327437883243,  0.0000035914126784,  0.0000039543956518 ]
  - [   0.0090208910405636,  0.0049747908487916,  0.0035180263221264 ]
  - [   0.0001611039042473,  0.0000007320195436, -0.0000003725290298 ]
  - [   0.0087853530421853, -0.0047984384000301, -0.0033933389931917 ]
  - [   0.0000154916197062,  0.0000814050436020, -0.0000199899077415 ]
  - [   0.0000151507556438, -0.0000850129872561,  0.0000206492841244 ]
  - [  -0.0000316724181175, -0.0000006416812539, -0.0000007729977369 ]
  - [   0.0004406031221151,  0.0000274376943707, -0.0000125486403704 ]
  - [  -0.0000419532880187,  0.0000062836334109,  0.0000429525971413 ]
  - [  -0.0000452017411590, -0.0000078594312072, -0.0000455006957054 ]
  - [   0.0000156611204147,  0.0000087274238467,  0.0000835321843624 ]
  - [   0.0000145258381963, -0.0000094277784228, -0.0000858530402184 ]
  - [  -0.0000313064083457, -0.0000012814998627,  0.0000000931322575 ]
  - [   0.0000018086284399, -0.0000005248002708, -0.0000007040798664 ]
  - [   0.0000005019828677,  0.0000104140490294,  0.0000074021518230 ]
  - [  -0.0000008028000593, -0.0000114259310067, -0.0000082310289145 ]
  - [   0.0000241249799728, -0.0000333115458488, -0.0000435616821051 ]
  - [  -0.0000199414789677, -0.0000007073394954,  0.0000004749745131 ]
  - [   0.0000231005251408,  0.0000313217751682,  0.0000456096604466 ]
  - [   0.0004406534135342,  0.0000007394701242,  0.0000322815030813 ]
  - [  -0.0000414578244090,  0.0000457912683487, -0.0000070221722126 ]
  - [  -0.0000452287495136, -0.0000423658639193,  0.0000093691051006 ]
  - [   0.0000239117071033, -0.0000509936362505, -0.0000136587768793 ]
  - [  -0.0000201091170311,  0.0000028070062399,  0.0000014286488295 ]
  - [   0.0000234469771385,  0.0000563226640224,  0.0000167395919561 ]
  - [  -0.0000024996697903, -0.0000111460685730, -0.0000056438148022 ]
  - [  -0.0000021196901798,  0.0000095628201962,  0.0000086277723312 ]
  - [  -0.0000042878091335, -0.0000002570450306,  0.0000015199184418 ]
- atom:   28
  displacement:
    [   0.0100000000000000,  0.0000000000000000,  0.0000000000000000 ]
  forces:
  - [  -0.0000620380742475,  0.0000005857727956, -0.0000002384185791 ]
  - [   0.0001299186260439,  0.0000390344648622,  0.0000278475927189 ]
  - [   0.0001301566953771, -0.0000377110263798, -0.0000268619041890 ]
  - [  -0.0000272593752015, -0.0001418402971467,  0.0000532999401912 ]
  - [  -0.0003160296473652, -0.0000040737068048,  0.0000072545371950 ]
  - [  -0.0000275133152172,  0.0001448254770366, -0.0000537690939382 ]
  - [   0.0001399430620950,  0.0002245272626169,  0.0000266735441983 ]
  - [   0.0001413766294718, -0.0002321354404557, -0.0000258220825344 ]
  - [   0.0000020661391318,  0.0000015920187479,  0.0000003098975867 ]
  - [  -0.0000266572460532,  0.0000039268052205, -0.0001531802117825 ]
  - [  -0.0003160738851875,  0.0000056984135881, -0.0000069541856647 ]
  - [  -0.0000276340597338, -0.0000016700942069,  0.0001538759097457 ]
  - [   0.0035836433526129, -0.0022446126677096, -0.0015870849601924 ]
  - [   0.0036357855424285,  0.0022905296646059,  0.0016187949804589 ]
  - [   0.0000385802704841, -0.0000003226450644, -0.0000011837109923 ]
  - [  -0.0000325595028698, -0.0000001139706001, -0.0000004336470738 ]
  - [   0.0000058744335547,  0.0000186240649782,  0.0000010762596503 ]
  - [   0.0000047005014494, -0.0000200862414204, -0.0000012743985280 ]
  - [   0.0001404564827681,  0.0000999603653327,  0.0002012104960158 ]
  - [   0.0001416864106432, -0.0001017596805468, -0.0002127286279574 ]
  - [   0.0000027536298148,  0.0000003250315785, -0.0000010167714208 ]
  - [  -0.0000325620640069, -0.0000014445977286,  0.0000004097819328 ]
  - [   0.0000058814184740,  0.0000061118043959,  0.0000178227201104 ]
  - [   0.0000045866472647, -0.0000080253230408, -0.0000180546194315 ]
  - [   0.0000064430059865, -0.0000013611279428, -0.0000005691545084 ]
  - [  -0.0000081452308223, -0.0000008083297871,  0.0000005593756214 ]
  - [   0.0000042311148718,  0.0000001876032911,  0.0000015109544620 ]
  - [  -0.0143572799861431,  0.0000003945606295,  0.0000003788154572 ]
  - [  -0.0001754774129950,  0.0000006603950169,  0.0000007750932127 ]
  - [  -0.0001646355376579,  0.0000005336187314,  0.0000004263129085 ]
  - [  -0.0000745279248804, -0.0000569055555388,  0.0000696567585692 ]
  - [   0.0000295547652058,  0.0000015760306269,  0.0000002540182322 ]
  - [  -0.0000733567867428,  0.0000555991427973, -0.0000701500102878 ]
  - [  -0.0000723700504750, -0.0000540742184967,  0.0000694887712598 ]
  - [  -0.0000742266420275,  0.0000572628341615, -0.0000700189266354 ]
  - [   0.0000285399146378,  0.0000000013969839,  0.0000002004671842 ]
  - [  -0.0000741340918466,  0.0000464920885861, -0.0000772370258346 ]
  - [   0.0000295935897157, -0.0000001888256520,  0.0000005197944120 ]
  - [  -0.0000731618492864, -0.0000479143345729,  0.0000747571466491 ]
  - [   0.0000108001404442,  0.0000110861146823,  0.0000080403406173 ]
  - [   0.0000108168460429, -0.0000119219766930, -0.0000080132158473 ]
  - [  -0.0000384414452128,  0.0000008620554581,  0.0000010422663763 ]
  - [  -0.0001545270788483, -0.0000008023343980,  0.0000002355081961 ]
  - [  -0.0003464905894361,  0.0001766588538885, -0.0002510559279472 ]
  - [  -0.0003391818609089, -0.0001755054108799,  0.0002502199495211 ]
  - [  -0.0000718813389540,  0.0000486485660076, -0.0000742357224226 ]
  - [  -0.0000740303657949, -0.0000463703181595,  0.0000779498368502 ]
  - [   0.0000294882338494,  0.0000004629837349,  0.0000009518116713 ]
  - [  -0.0001537811476737, -0.0000003015156835, -0.0000002048909664 ]
  - [  -0.0003458557184786, -0.0001776817953214,  0.0002506989985704 ]
  - [  -0.0003383589209989,  0.0001757624559104, -0.0002484783763066 ]
  - [   0.0000104940263554,  0.0000107822706923,  0.0000080356840044 ]
  - [  -0.0000383217702620, -0.0000015689874999, -0.0000005763722584 ]
  - [   0.0000101706245914, -0.0000123839708976, -0.0000081849284470 ]
  - [   0.0035842950455844,  0.0022435602732003,  0.0015876828692853 ]
  - [   0.0036345911212265, -0.0022910111583769, -0.0016202450497076 ]
  - [   0.0000385046587326, -0.0000000116415322, -0.0000009062932804 ]
  - [  -0.0003157867467962, -0.0000061085447669,  0.0000066290376708 ]
  - [  -0.0000285343267024,  0.0000015366240405, -0.0001540904631838 ]
  - [  -0.0000263686524704, -0.0000039307633415,  0.0001524549443275 ]
  - [   0.0000040096347220,  0.0000193077139556,  0.0000004933681339 ]
  - [  -0.0000331100309268, -0.0000011153751984,  0.0000003799796104 ]
  - [   0.0000040922313929, -0.0000193729065359, -0.0000007597263902 ]
  - [  -0.0003162556386087,  0.0000048032961786, -0.0000081351026893 ]