phonopy:
  version: "2.37.1"
  frequency_unit_conversion_factor: 15.633302
  symmetry_tolerance: 1.00000e-05

space_group:
  type: "P1"
  number: 1
  Hall_symbol: "P 1"

primitive_matrix:
- [  0.000000000000000, -1.000000000000000,  0.000000000000000 ]
- [ -1.000000000000000,  0.000000000000000, -0.000000000000000 ]
- [  0.000000000000000,  0.000000000000000, -1.000000000000000 ]

supercell_matrix:
- [   3,   0,   0 ]
- [   0,   3,   0 ]
- [   0,   0,   2 ]

primitive_cell:
  lattice:
  - [     0.000011369994798,    -4.586332409759933,     0.000000000000000 ] # a
  - [    -4.586348358611071,     0.000000000000000,     0.000000000000000 ] # b
  - [     0.008074971694656,     0.013369784354847,    -6.655889520704942 ] # c
  points:
  - symbol: Li # 1
    coordinates: [  0.377775730802919,  0.902665897900126,  0.203385172871736 ]
    mass: 6.940000
  - symbol: Li # 2
    coordinates: [  0.878042829106956,  0.402895520244373,  0.203380299075629 ]
    mass: 6.940000
  - symbol: Sn # 3
    coordinates: [  0.878977474630474,  0.903492073237350,  0.488528159723682 ]
    mass: 118.710000
  - symbol: Sn # 4
    coordinates: [  0.376773943833600,  0.401961269994109,  0.918217944452558 ]
    mass: 118.710000
  - symbol: Sn # 5
    coordinates: [  0.876570707338412,  0.902078664361455,  0.919582568757940 ]
    mass: 118.710000
  - symbol: Sn # 6
    coordinates: [  0.379066146986602,  0.403393843407438,  0.487135257276292 ]
    mass: 118.710000
  reciprocal_lattice: # without 2pi
  - [    -0.000000000000000,    -0.218039145586559,    -0.000437978477308 ] # a*
  - [    -0.218038387363763,    -0.000000540539828,    -0.000264526781542 ] # b*
  - [    -0.000000000000000,    -0.000000000000000,    -0.150242878414557 ] # c*

unit_cell:
  lattice:
  - [     4.586348358611070,     0.000000000000000,     0.000000000000000 ] # a
  - [    -0.000011369994798,     4.586332409759933,     0.000000000000000 ] # b
  - [    -0.008074971694656,    -0.013369784354847,     6.655889520704942 ] # c
  points:
  - symbol: Li # 1
    coordinates: [  0.097334102099874,  0.622224269197081,  0.796614827128264 ]
    mass: 6.940000
    reduced_to: 1
  - symbol: Li # 2
    coordinates: [  0.597104479755627,  0.121957170893044,  0.796619700924371 ]
    mass: 6.940000
    reduced_to: 2
  - symbol: Sn # 3
    coordinates: [  0.096507926762650,  0.121022525369526,  0.511471840276318 ]
    mass: 118.710000
    reduced_to: 3
  - symbol: Sn # 4
    coordinates: [  0.598038730005891,  0.623226056166400,  0.081782055547442 ]
    mass: 118.710000
    reduced_to: 4
  - symbol: Sn # 5
    coordinates: [  0.097921335638545,  0.123429292661588,  0.080417431242060 ]
    mass: 118.710000
    reduced_to: 5
  - symbol: Sn # 6
    coordinates: [  0.596606156592562,  0.620933853013398,  0.512864742723708 ]
    mass: 118.710000
    reduced_to: 6

supercell:
  lattice:
  - [    13.759045075833210,     0.000000000000000,     0.000000000000000 ] # a
  - [    -0.000034109984395,    13.758997229279800,     0.000000000000000 ] # b
  - [    -0.016149943389311,    -0.026739568709693,    13.311779041409885 ] # c
  points:
  - symbol: Li # 1
    coordinates: [  0.032444700699958,  0.207408089732360,  0.398307413564132 ]
    mass: 6.940000
    reduced_to: 1
  - symbol: Li # 2
    coordinates: [  0.365778034033291,  0.207408089732360,  0.398307413564132 ]
    mass: 6.940000
    reduced_to: 1
  - symbol: Li # 3
    coordinates: [  0.699111367366625,  0.207408089732360,  0.398307413564132 ]
    mass: 6.940000
    reduced_to: 1
  - symbol: Li # 4
    coordinates: [  0.032444700699958,  0.540741423065694,  0.398307413564132 ]
    mass: 6.940000
    reduced_to: 1
  - symbol: Li # 5
    coordinates: [  0.365778034033291,  0.540741423065694,  0.398307413564132 ]
    mass: 6.940000
    reduced_to: 1
  - symbol: Li # 6
    coordinates: [  0.699111367366625,  0.540741423065694,  0.398307413564132 ]
    mass: 6.940000
    reduced_to: 1
  - symbol: Li # 7
    coordinates: [  0.032444700699958,  0.874074756399027,  0.398307413564132 ]
    mass: 6.940000
    reduced_to: 1
  - symbol: Li # 8
    coordinates: [  0.365778034033291,  0.874074756399027,  0.398307413564132 ]
    mass: 6.940000
    reduced_to: 1
  - symbol: Li # 9
    coordinates: [  0.699111367366625,  0.874074756399027,  0.398307413564132 ]
    mass: 6.940000
    reduced_to: 1
  - symbol: Li # 10
    coordinates: [  0.032444700699958,  0.207408089732360,  0.898307413564132 ]
    mass: 6.940000
    reduced_to: 1
  - symbol: Li # 11
    coordinates: [  0.365778034033291,  0.207408089732360,  0.898307413564132 ]
    mass: 6.940000
    reduced_to: 1
  - symbol: Li # 12
    coordinates: [  0.699111367366625,  0.207408089732360,  0.898307413564132 ]
    mass: 6.940000
    reduced_to: 1
  - symbol: Li # 13
    coordinates: [  0.032444700699958,  0.540741423065694,  0.898307413564132 ]
    mass: 6.940000
    reduced_to: 1
  - symbol: Li # 14
    coordinates: [  0.365778034033291,  0.540741423065694,  0.898307413564132 ]
    mass: 6.940000
    reduced_to: 1
  - symbol: Li # 15
    coordinates: [  0.699111367366625,  0.540741423065694,  0.898307413564132 ]
    mass: 6.940000
    reduced_to: 1
  - symbol: Li # 16
    coordinates: [  0.032444700699958,  0.874074756399027,  0.898307413564132 ]
    mass: 6.940000
    reduced_to: 1
  - symbol: Li # 17
    coordinates: [  0.365778034033291,  0.874074756399027,  0.898307413564132 ]
    mass: 6.940000
    reduced_to: 1
  - symbol: Li # 18
    coordinates: [  0.699111367366625,  0.874074756399027,  0.898307413564132 ]
    mass: 6.940000
    reduced_to: 1
  - symbol: Li # 19
    coordinates: [  0.199034826585209,  0.040652390297681,  0.398309850462186 ]
    mass: 6.940000
    reduced_to: 19
  - symbol: Li # 20
    coordinates: [  0.532368159918542,  0.040652390297681,  0.398309850462186 ]
    mass: 6.940000
    reduced_to: 19
  - symbol: Li # 21
    coordinates: [  0.865701493251876,  0.040652390297681,  0.398309850462186 ]
    mass: 6.940000
    reduced_to: 19
  - symbol: Li # 22
    coordinates: [  0.199034826585209,  0.373985723631015,  0.398309850462186 ]
    mass: 6.940000
    reduced_to: 19
  - symbol: Li # 23
    coordinates: [  0.532368159918542,  0.373985723631015,  0.398309850462186 ]
    mass: 6.940000
    reduced_to: 19
  - symbol: Li # 24
    coordinates: [  0.865701493251876,  0.373985723631015,  0.398309850462186 ]
    mass: 6.940000
    reduced_to: 19
  - symbol: Li # 25
    coordinates: [  0.199034826585209,  0.707319056964348,  0.398309850462186 ]
    mass: 6.940000
    reduced_to: 19
  - symbol: Li # 26
    coordinates: [  0.532368159918542,  0.707319056964348,  0.398309850462186 ]
    mass: 6.940000
    reduced_to: 19
  - symbol: Li # 27
    coordinates: [  0.865701493251876,  0.707319056964348,  0.398309850462186 ]
    mass: 6.940000
    reduced_to: 19
  - symbol: Li # 28
    coordinates: [  0.199034826585209,  0.040652390297681,  0.898309850462186 ]
    mass: 6.940000
    reduced_to: 19
  - symbol: Li # 29
    coordinates: [  0.532368159918542,  0.040652390297681,  0.898309850462186 ]
    mass: 6.940000
    reduced_to: 19
  - symbol: Li # 30
    coordinates: [  0.865701493251876,  0.040652390297681,  0.898309850462186 ]
    mass: 6.940000
    reduced_to: 19
  - symbol: Li # 31
    coordinates: [  0.199034826585209,  0.373985723631015,  0.898309850462186 ]
    mass: 6.940000
    reduced_to: 19
  - symbol: Li # 32
    coordinates: [  0.532368159918542,  0.373985723631015,  0.898309850462186 ]
    mass: 6.940000
    reduced_to: 19
  - symbol: Li # 33
    coordinates: [  0.865701493251876,  0.373985723631015,  0.898309850462186 ]
    mass: 6.940000
    reduced_to: 19
  - symbol: Li # 34
    coordinates: [  0.199034826585209,  0.707319056964348,  0.898309850462186 ]
    mass: 6.940000
    reduced_to: 19
  - symbol: Li # 35
    coordinates: [  0.532368159918542,  0.707319056964348,  0.898309850462186 ]
    mass: 6.940000
    reduced_to: 19
  - symbol: Li # 36
    coordinates: [  0.865701493251876,  0.707319056964348,  0.898309850462186 ]
    mass: 6.940000
    reduced_to: 19
  - symbol: Sn # 37
    coordinates: [  0.032169308920883,  0.040340841789842,  0.255735920138159 ]
    mass: 118.710000
    reduced_to: 37
  - symbol: Sn # 38
    coordinates: [  0.365502642254217,  0.040340841789842,  0.255735920138159 ]
    mass: 118.710000
    reduced_to: 37
  - symbol: Sn # 39
    coordinates: [  0.698835975587550,  0.040340841789842,  0.255735920138159 ]
    mass: 118.710000
    reduced_to: 37
  - symbol: Sn # 40
    coordinates: [  0.032169308920883,  0.373674175123175,  0.255735920138159 ]
    mass: 118.710000
    reduced_to: 37
  - symbol: Sn # 41
    coordinates: [  0.365502642254217,  0.373674175123175,  0.255735920138159 ]
    mass: 118.710000
    reduced_to: 37
  - symbol: Sn # 42
    coordinates: [  0.698835975587550,  0.373674175123175,  0.255735920138159 ]
    mass: 118.710000
    reduced_to: 37
  - symbol: Sn # 43
    coordinates: [  0.032169308920883,  0.707007508456509,  0.255735920138159 ]
    mass: 118.710000
    reduced_to: 37
  - symbol: Sn # 44
    coordinates: [  0.365502642254217,  0.707007508456509,  0.255735920138159 ]
    mass: 118.710000
    reduced_to: 37
  - symbol: Sn # 45
    coordinates: [  0.698835975587550,  0.707007508456509,  0.255735920138159 ]
    mass: 118.710000
    reduced_to: 37
  - symbol: Sn # 46
    coordinates: [  0.032169308920883,  0.040340841789842,  0.755735920138159 ]
    mass: 118.710000
    reduced_to: 37
  - symbol: Sn # 47
    coordinates: [  0.365502642254217,  0.040340841789842,  0.755735920138159 ]
    mass: 118.710000
    reduced_to: 37
  - symbol: Sn # 48
    coordinates: [  0.698835975587550,  0.040340841789842,  0.755735920138159 ]
    mass: 118.710000
    reduced_to: 37
  - symbol: Sn # 49
    coordinates: [  0.032169308920883,  0.373674175123175,  0.755735920138159 ]
    mass: 118.710000
    reduced_to: 37
  - symbol: Sn # 50
    coordinates: [  0.365502642254217,  0.373674175123175,  0.755735920138159 ]
    mass: 118.710000
    reduced_to: 37
  - symbol: Sn # 51
    coordinates: [  0.698835975587550,  0.373674175123175,  0.755735920138159 ]
    mass: 118.710000
    reduced_to: 37
  - symbol: Sn # 52
    coordinates: [  0.032169308920883,  0.707007508456509,  0.755735920138159 ]
    mass: 118.710000
    reduced_to: 37
  - symbol: Sn # 53
    coordinates: [  0.365502642254217,  0.707007508456509,  0.755735920138159 ]
    mass: 118.710000
    reduced_to: 37
  - symbol: Sn # 54
    coordinates: [  0.698835975587550,  0.707007508456509,  0.755735920138159 ]
    mass: 118.710000
    reduced_to: 37
  - symbol: Sn # 55
    coordinates: [  0.199346243335297,  0.207742018722133,  0.040891027773721 ]
    mass: 118.710000
    reduced_to: 55
  - symbol: Sn # 56
    coordinates: [  0.532679576668630,  0.207742018722133,  0.040891027773721 ]
    mass: 118.710000
    reduced_to: 55
  - symbol: Sn # 57
    coordinates: [  0.866012910001964,  0.207742018722133,  0.040891027773721 ]
    mass: 118.710000
    reduced_to: 55
  - symbol: Sn # 58
    coordinates: [  0.199346243335297,  0.541075352055467,  0.040891027773721 ]
    mass: 118.710000
    reduced_to: 55
  - symbol: Sn # 59
    coordinates: [  0.532679576668630,  0.541075352055467,  0.040891027773721 ]
    mass: 118.710000
    reduced_to: 55
  - symbol: Sn # 60
    coordinates: [  0.866012910001964,  0.541075352055467,  0.040891027773721 ]
    mass: 118.710000
    reduced_to: 55
  - symbol: Sn # 61
    coordinates: [  0.199346243335297,  0.874408685388800,  0.040891027773721 ]
    mass: 118.710000
    reduced_to: 55
  - symbol: Sn # 62
    coordinates: [  0.532679576668630,  0.874408685388800,  0.040891027773721 ]
    mass: 118.710000
    reduced_to: 55
  - symbol: Sn # 63
    coordinates: [  0.866012910001964,  0.874408685388800,  0.040891027773721 ]
    mass: 118.710000
    reduced_to: 55
  - symbol: Sn # 64
    coordinates: [  0.199346243335297,  0.207742018722133,  0.540891027773721 ]
    mass: 118.710000
    reduced_to: 55
  - symbol: Sn # 65
    coordinates: [  0.532679576668630,  0.207742018722133,  0.540891027773721 ]
    mass: 118.710000
    reduced_to: 55
  - symbol: Sn # 66
    coordinates: [  0.866012910001964,  0.207742018722133,  0.540891027773721 ]
    mass: 118.710000
    reduced_to: 55
  - symbol: Sn # 67
    coordinates: [  0.199346243335297,  0.541075352055467,  0.540891027773721 ]
    mass: 118.710000
    reduced_to: 55
  - symbol: Sn # 68
    coordinates: [  0.532679576668630,  0.541075352055467,  0.540891027773721 ]
    mass: 118.710000
    reduced_to: 55
  - symbol: Sn # 69
    coordinates: [  0.866012910001964,  0.541075352055467,  0.540891027773721 ]
    mass: 118.710000
    reduced_to: 55
  - symbol: Sn # 70
    coordinates: [  0.199346243335297,  0.874408685388800,  0.540891027773721 ]
    mass: 118.710000
    reduced_to: 55
  - symbol: Sn # 71
    coordinates: [  0.532679576668630,  0.874408685388800,  0.540891027773721 ]
    mass: 118.710000
    reduced_to: 55
  - symbol: Sn # 72
    coordinates: [  0.866012910001964,  0.874408685388800,  0.540891027773721 ]
    mass: 118.710000
    reduced_to: 55
  - symbol: Sn # 73
    coordinates: [  0.032640445212848,  0.041143097553863,  0.040208715621030 ]
    mass: 118.710000
    reduced_to: 73
  - symbol: Sn # 74
    coordinates: [  0.365973778546182,  0.041143097553863,  0.040208715621030 ]
    mass: 118.710000
    reduced_to: 73
  - symbol: Sn # 75
    coordinates: [  0.699307111879515,  0.041143097553863,  0.040208715621030 ]
    mass: 118.710000
    reduced_to: 73
  - symbol: Sn # 76
    coordinates: [  0.032640445212848,  0.374476430887196,  0.040208715621030 ]
    mass: 118.710000
    reduced_to: 73
  - symbol: Sn # 77
    coordinates: [  0.365973778546182,  0.374476430887196,  0.040208715621030 ]
    mass: 118.710000
    reduced_to: 73
  - symbol: Sn # 78
    coordinates: [  0.699307111879515,  0.374476430887196,  0.040208715621030 ]
    mass: 118.710000
    reduced_to: 73
  - symbol: Sn # 79
    coordinates: [  0.032640445212848,  0.707809764220529,  0.040208715621030 ]
    mass: 118.710000
    reduced_to: 73
  - symbol: Sn # 80
    coordinates: [  0.365973778546182,  0.707809764220529,  0.040208715621030 ]
    mass: 118.710000
    reduced_to: 73
  - symbol: Sn # 81
    coordinates: [  0.699307111879515,  0.707809764220529,  0.040208715621030 ]
    mass: 118.710000
    reduced_to: 73
  - symbol: Sn # 82
    coordinates: [  0.032640445212848,  0.041143097553863,  0.540208715621030 ]
    mass: 118.710000
    reduced_to: 73
  - symbol: Sn # 83
    coordinates: [  0.365973778546182,  0.041143097553863,  0.540208715621030 ]
    mass: 118.710000
    reduced_to: 73
  - symbol: Sn # 84
    coordinates: [  0.699307111879515,  0.041143097553863,  0.540208715621030 ]
    mass: 118.710000
    reduced_to: 73
  - symbol: Sn # 85
    coordinates: [  0.032640445212848,  0.374476430887196,  0.540208715621030 ]
    mass: 118.710000
    reduced_to: 73
  - symbol: Sn # 86
    coordinates: [  0.365973778546182,  0.374476430887196,  0.540208715621030 ]
    mass: 118.710000
    reduced_to: 73
  - symbol: Sn # 87
    coordinates: [  0.699307111879515,  0.374476430887196,  0.540208715621030 ]
    mass: 118.710000
    reduced_to: 73
  - symbol: Sn # 88
    coordinates: [  0.032640445212848,  0.707809764220529,  0.540208715621030 ]
    mass: 118.710000
    reduced_to: 73
  - symbol: Sn # 89
    coordinates: [  0.365973778546182,  0.707809764220529,  0.540208715621030 ]
    mass: 118.710000
    reduced_to: 73
  - symbol: Sn # 90
    coordinates: [  0.699307111879515,  0.707809764220529,  0.540208715621030 ]
    mass: 118.710000
    reduced_to: 73
  - symbol: Sn # 91
    coordinates: [  0.198868718864187,  0.206977951004466,  0.256432371361854 ]
    mass: 118.710000
    reduced_to: 91
  - symbol: Sn # 92
    coordinates: [  0.532202052197521,  0.206977951004466,  0.256432371361854 ]
    mass: 118.710000
    reduced_to: 91
  - symbol: Sn # 93
    coordinates: [  0.865535385530854,  0.206977951004466,  0.256432371361854 ]
    mass: 118.710000
    reduced_to: 91
  - symbol: Sn # 94
    coordinates: [  0.198868718864187,  0.540311284337799,  0.256432371361854 ]
    mass: 118.710000
    reduced_to: 91
  - symbol: Sn # 95
    coordinates: [  0.532202052197521,  0.540311284337799,  0.256432371361854 ]
    mass: 118.710000
    reduced_to: 91
  - symbol: Sn # 96
    coordinates: [  0.865535385530854,  0.540311284337799,  0.256432371361854 ]
    mass: 118.710000
    reduced_to: 91
  - symbol: Sn # 97
    coordinates: [  0.198868718864187,  0.873644617671133,  0.256432371361854 ]
    mass: 118.710000
    reduced_to: 91
  - symbol: Sn # 98
    coordinates: [  0.532202052197521,  0.873644617671133,  0.256432371361854 ]
    mass: 118.710000
    reduced_to: 91
  - symbol: Sn # 99
    coordinates: [  0.865535385530854,  0.873644617671133,  0.256432371361854 ]
    mass: 118.710000
    reduced_to: 91
  - symbol: Sn # 100
    coordinates: [  0.198868718864187,  0.206977951004466,  0.756432371361854 ]
    mass: 118.710000
    reduced_to: 91
  - symbol: Sn # 101
    coordinates: [  0.532202052197521,  0.206977951004466,  0.756432371361854 ]
    mass: 118.710000
    reduced_to: 91
  - symbol: Sn # 102
    coordinates: [  0.865535385530854,  0.206977951004466,  0.756432371361854 ]
    mass: 118.710000
    reduced_to: 91
  - symbol: Sn # 103
    coordinates: [  0.198868718864187,  0.540311284337799,  0.756432371361854 ]
    mass: 118.710000
    reduced_to: 91
  - symbol: Sn # 104
    coordinates: [  0.532202052197521,  0.540311284337799,  0.756432371361854 ]
    mass: 118.710000
    reduced_to: 91
  - symbol: Sn # 105
    coordinates: [  0.865535385530854,  0.540311284337799,  0.756432371361854 ]
    mass: 118.710000
    reduced_to: 91
  - symbol: Sn # 106
    coordinates: [  0.198868718864187,  0.873644617671133,  0.756432371361854 ]
    mass: 118.710000
    reduced_to: 91
  - symbol: Sn # 107
    coordinates: [  0.532202052197521,  0.873644617671133,  0.756432371361854 ]
    mass: 118.710000
    reduced_to: 91
  - symbol: Sn # 108
    coordinates: [  0.865535385530854,  0.873644617671133,  0.756432371361854 ]
    mass: 118.710000
    reduced_to: 91

displacements:
- atom:    1
  displacement:
    [   0.0100000000000000,  0.0000000000000000,  0.0000000000000000 ]
  forces:
  - [  -0.0204755999147892, -0.0001469707640354,  0.0004014549776912 ]
  - [   0.0010725087486207, -0.0001463823718950,  0.0003871568478644 ]
  - [   0.0010489756241441, -0.0001463325461373,  0.0003724829293787 ]
  - [  -0.0000482395698782, -0.0001501851947978,  0.0003796671517193 ]
  - [  -0.0004058801569045, -0.0002325042878510,  0.0003804825246334 ]
  - [  -0.0004032375290990, -0.0000626298860880,  0.0003800271078944 ]
  - [  -0.0000475026026834, -0.0001423673820682,  0.0003790422342718 ]
  - [  -0.0004059090279043, -0.0000595139281359,  0.0003801938146353 ]
  - [  -0.0004025804810226, -0.0002299015759490,  0.0003797733224928 ]
  - [  -0.0003054461558349, -0.0001455866149627,  0.0003799742553383 ]
  - [  -0.0001983279362321, -0.0001463681110181,  0.0003775180375669 ]
  - [  -0.0001985002309084, -0.0001462953514419,  0.0003779370454140 ]
  - [  -0.0002240905014332, -0.0001460787898395,  0.0003794123185799 ]
  - [  -0.0002389913424850, -0.0001613640051801,  0.0003790973278228 ]
  - [  -0.0002397065982223, -0.0001310849329457,  0.0003793344367296 ]
  - [  -0.0002239768800791, -0.0001464670349378,  0.0003781076520681 ]
  - [  -0.0002394709736109, -0.0001313371758442,  0.0003775744698942 ]
  - [  -0.0002387650310993, -0.0001598130620550,  0.0003785062581301 ]
  - [   0.0011567086912692,  0.0005047270096838,  0.0002555209212005 ]
  - [   0.0011498905951157,  0.0011251769028604,  0.0002625565975904 ]
  - [   0.0011414715554565,  0.0017240713350475,  0.0002666446380317 ]
  - [   0.0011590939247981,  0.0017465893179178,  0.0002517276443541 ]
  - [   0.0011497345985845,  0.0011258418671787,  0.0002627829089761 ]
  - [   0.0011432258179411,  0.0005237376317382,  0.0002695615403354 ]
  - [   0.0010052656289190,  0.0011232127435505,  0.0002625430934131 ]
  - [   0.0010062819346786,  0.0011243922635913,  0.0002622669562697 ]
  - [   0.0010040535125881,  0.0011236481368542,  0.0002615931443870 ]
  - [   0.0010202636476606,  0.0010841665789485,  0.0002621008316055 ]
  - [   0.0009744741255417,  0.0011250292882323,  0.0002611102536321 ]
  - [   0.0010193912312388,  0.0011664489284158,  0.0002598892897367 ]
  - [   0.0010196708608419,  0.0011645052582026,  0.0002602050080895 ]
  - [   0.0009739332599565,  0.0011236062273383,  0.0002611543750390 ]
  - [   0.0010201882105321,  0.0010829274542630,  0.0002631032839417 ]
  - [   0.0010044365189970,  0.0011254474520683,  0.0002603890898172 ]
  - [   0.0010035284794867,  0.0011244695633650,  0.0002602286403999 ]
  - [   0.0010055992752314,  0.0011253994889557,  0.0002615428529680 ]
  - [   0.0017469903687015,  0.0024669882841408,  0.0378358736634254 ]
  - [   0.0014203917235136,  0.0024244834203273,  0.0378337316215038 ]
  - [   0.0014217025600374,  0.0024585339706391,  0.0378013178706169 ]
  - [   0.0017456939676777,  0.0024116851855069,  0.0378362387418747 ]
  - [   0.0014199895085767,  0.0024510361254215,  0.0378309860825539 ]
  - [   0.0014216690324247,  0.0024208880495280,  0.0378012955188751 ]
  - [   0.0015369910979643,  0.0024393887724727,  0.0378194972872734 ]
  - [   0.0014227168867365,  0.0024391754996032,  0.0378196388483047 ]
  - [   0.0014251563698053,  0.0024404944851995,  0.0378195494413376 ]
  - [   0.0014756972668692,  0.0024437233805656,  0.0378230772912502 ]
  - [   0.0014661913737655,  0.0024445394519717,  0.0379405915737152 ]
  - [   0.0014668917283416,  0.0024347910657525,  0.0377062521874905 ]
  - [   0.0014662744943053,  0.0024351309984922,  0.0378232784569263 ]
  - [   0.0014689872041345,  0.0024379310198128,  0.0379431843757629 ]
  - [   0.0014692270196974,  0.0024418500252068,  0.0377041473984718 ]
  - [   0.0014370466815308,  0.0024389615282416,  0.0378242954611778 ]
  - [   0.0014739085454494,  0.0024398872628808,  0.0378324389457703 ]
  - [   0.0014735462609679,  0.0024393377825618,  0.0378117561340332 ]
  - [  -0.0018651227001101, -0.0026031802408397, -0.0362228676676750 ]
  - [  -0.0019136187620461, -0.0025977184996009, -0.0371445715427399 ]
  - [  -0.0018659464549273, -0.0025919699110091, -0.0380667373538017 ]
  - [  -0.0018977656727657, -0.0026011175941676, -0.0370685271918774 ]
  - [  -0.0019108374835923, -0.0025979478377849, -0.0371449552476406 ]
  - [  -0.0018963856855407, -0.0025954802986234, -0.0372206270694733 ]
  - [  -0.0018970648525283, -0.0025936125312001, -0.0370707996189594 ]
  - [  -0.0019126235274598, -0.0025980267673731, -0.0371442176401615 ]
  - [  -0.0018973069963977, -0.0026010428555310, -0.0372190587222576 ]
  - [   0.0025225700810552, -0.0026036205235869, -0.0328470990061760 ]
  - [  -0.0018086440395564, -0.0025985524989665, -0.0371441394090652 ]
  - [   0.0024603882338852, -0.0025912530254573, -0.0413338169455528 ]
  - [  -0.0022046349477023, -0.0027679079212248, -0.0369949564337730 ]
  - [  -0.0017663823673502, -0.0025982928927988, -0.0371449887752533 ]
  - [  -0.0022058307658881, -0.0024245919194072, -0.0372908487915993 ]
  - [  -0.0022041611373425, -0.0024265821557492, -0.0369954220950603 ]
  - [  -0.0017679057782516, -0.0025972691364586, -0.0371461212635040 ]
  - [  -0.0022086510434747, -0.0027704332023859, -0.0372903645038605 ]
  - [  -0.0017441269010305, -0.0032592276111245, -0.0277999173849821 ]
  - [  -0.0017533290665597, -0.0032494023907930, -0.0279211513698101 ]
  - [  -0.0017518609529361, -0.0032612830400467, -0.0276753157377243 ]
  - [  -0.0017342038918287, -0.0032519507221878, -0.0278024189174175 ]
  - [  -0.0017533283680677, -0.0032636818941683, -0.0279181003570557 ]
  - [  -0.0017538638785481, -0.0032488312572241, -0.0276764184236526 ]
  - [  -0.0017792708240449, -0.0032561917323619, -0.0277985204011202 ]
  - [  -0.0017424339894205, -0.0032562476117164, -0.0278065614402294 ]
  - [  -0.0017426681006327, -0.0032563817221671, -0.0277879871428013 ]
  - [  -0.0014683557674289, -0.0032333973795176, -0.0278249736875296 ]
  - [  -0.0017919606762007, -0.0032698041759431, -0.0278153587132692 ]
  - [  -0.0017973721260205, -0.0032398761250079, -0.0277884881943464 ]
  - [  -0.0014610467478633, -0.0032768526580185, -0.0278246533125639 ]
  - [  -0.0017912135226652, -0.0032377503812313, -0.0278185829520226 ]
  - [  -0.0017956477822736, -0.0032758647575974, -0.0277873836457729 ]
  - [  -0.0016798330470920, -0.0032570334151387, -0.0278041306883097 ]
  - [  -0.0017946726875380, -0.0032563647255301, -0.0278040058910847 ]
  - [  -0.0017918789526448, -0.0032563072163612, -0.0278026796877384 ]
  - [   0.0059534925967455,  0.0024422849528491,  0.0221072398126125 ]
  - [   0.0015205800300464,  0.0024354713968933,  0.0264831595122814 ]
  - [   0.0058524375781417,  0.0024307342246175,  0.0307484865188599 ]
  - [   0.0011266713263467,  0.0022704955190420,  0.0263323243707418 ]
  - [   0.0015611430862918,  0.0024350367020816,  0.0264834947884083 ]
  - [   0.0011237405706197,  0.0026057420764118,  0.0266333110630512 ]
  - [   0.0011280811158940,  0.0026037006173283,  0.0263333637267351 ]
  - [   0.0015610669506714,  0.0024353712797165,  0.0264831930398941 ]
  - [   0.0011239773593843,  0.0022653539199382,  0.0266306810081005 ]
  - [   0.0014627980999649,  0.0024392807390541,  0.0255655571818352 ]
  - [   0.0014130400959402,  0.0024359493982047,  0.0264841038733721 ]
  - [   0.0014443811960518,  0.0024307530838996,  0.0274017490446568 ]
  - [   0.0014315922744572,  0.0024315277114511,  0.0264064744114876 ]
  - [   0.0014156592078507,  0.0024363386910409,  0.0264847129583359 ]
  - [   0.0014292058767751,  0.0024401980917901,  0.0265571288764477 ]
  - [   0.0014314060099423,  0.0024388895835727,  0.0264098457992077 ]
  - [   0.0014178103301674,  0.0024370036553591,  0.0264855865389109 ]
  - [   0.0014283527852967,  0.0024298757780343,  0.0265565998852253 ]
- atom:    1
  displacement:
    [  -0.0100000000000000,  0.0000000000000000,  0.0000000000000000 ]
  forces:
  - [   0.0200063418596983, -0.0001472948206356,  0.0003635790199041 ]
  - [  -0.0015183067880571, -0.0001461614156142,  0.0003723348490894 ]
  - [  -0.0015415721572936, -0.0001466175745009,  0.0003857789561152 ]
  - [  -0.0004199569521006, -0.0001499824429629,  0.0003806292079389 ]
  - [  -0.0000667115673423, -0.0000621507497272,  0.0003797262907028 ]
  - [  -0.0000641727820039, -0.0002331798750674,  0.0003792182542384 ]
  - [  -0.0004193824715912, -0.0001419970067218,  0.0003797183744609 ]
  - [  -0.0000668554566801, -0.0002297511528013,  0.0003796564415097 ]
  - [  -0.0000634891912341, -0.0000598286424065,  0.0003791451454163 ]
  - [  -0.0001622031559236, -0.0001454173179809,  0.0003782841959037 ]
  - [  -0.0002700295299292, -0.0001464778906666,  0.0003811747301370 ]
  - [  -0.0002701794728637, -0.0001464483502787,  0.0003802178543992 ]
  - [  -0.0002434331399854, -0.0001460139319533,  0.0003793334763031 ]
  - [  -0.0002293288707733, -0.0001322526222793,  0.0003795324882958 ]
  - [  -0.0002300674095750, -0.0001604000863153,  0.0003793401992880 ]
  - [  -0.0002435164933559, -0.0001465096429456,  0.0003779581747949 ]
  - [  -0.0002297614701092, -0.0001607889134903,  0.0003778031095862 ]
  - [  -0.0002290746197104, -0.0001305982877966,  0.0003784564323723 ]
  - [   0.0008649733499624,  0.0017267172224820,  0.0002699070610106 ]
  - [   0.0008609936339781,  0.0011250036768615,  0.0002615810371935 ]
  - [   0.0008560470305383,  0.0005070739425719,  0.0002572936937213 ]
  - [   0.0008627103525214,  0.0005211085081100,  0.0002726493403316 ]
  - [   0.0008613596437499,  0.0011261752806604,  0.0002616960555315 ]
  - [   0.0008538135443814,  0.0017441511154175,  0.0002535274252295 ]
  - [   0.0010069007985294,  0.0011234804987907,  0.0002624224871397 ]
  - [   0.0010028914548457,  0.0011242269538343,  0.0002621500752866 ]
  - [   0.0010056041646749,  0.0011232774704695,  0.0002619824372232 ]
  - [   0.0009898496791720,  0.0011656647548079,  0.0002607440401334 ]
  - [   0.0010357694700360,  0.0011252146214247,  0.0002614150289446 ]
  - [   0.0009886829648167,  0.0010842848569155,  0.0002629924565554 ]
  - [   0.0009888750500977,  0.0010836217552423,  0.0002644709602464 ]
  - [   0.0010351303499192,  0.0011236416175961,  0.0002615684643388 ]
  - [   0.0009896662086248,  0.0011642044410110,  0.0002603600732982 ]
  - [   0.0010031058918685,  0.0011252760887146,  0.0002602181630209 ]
  - [   0.0010063234949484,  0.0011243959888816,  0.0002603413595352 ]
  - [   0.0010041397763416,  0.0011252891272306,  0.0002611801028252 ]
  - [   0.0011797723127529,  0.0024561586324126,  0.0378375276923180 ]
  - [   0.0015035485848784,  0.0024559621233493,  0.0378016829490662 ]
  - [   0.0015006773173809,  0.0024229714181274,  0.0378366895020008 ]
  - [   0.0011778315529227,  0.0024229732807726,  0.0378356352448463 ]
  - [   0.0015026686014608,  0.0024217469617724,  0.0378013551235199 ]
  - [   0.0014997526304796,  0.0024555963464081,  0.0378342717885971 ]
  - [   0.0013850476825610,  0.0024400108959526,  0.0378198847174644 ]
  - [   0.0014989310875535,  0.0024392292834818,  0.0378182865679264 ]
  - [   0.0015012023504823,  0.0024398579262197,  0.0378200374543667 ]
  - [   0.0014499361859635,  0.0024358052760363,  0.0378249511122704 ]
  - [   0.0014569759368896,  0.0024368262384087,  0.0377030819654465 ]
  - [   0.0014558043330908,  0.0024439811240882,  0.0379398278892040 ]
  - [   0.0014602610608563,  0.0024433974176645,  0.0378253236413002 ]
  - [   0.0014534464571625,  0.0024422572460026,  0.0377013981342316 ]
  - [   0.0014533828943968,  0.0024357910733670,  0.0379419326782227 ]
  - [   0.0014877724461257,  0.0024392027407885,  0.0378245078027248 ]
  - [   0.0014491225592792,  0.0024402872659266,  0.0378116145730019 ]
  - [   0.0014484077692032,  0.0024395810905844,  0.0378320217132568 ]
  - [  -0.0019310112111270, -0.0025926695670933, -0.0380643382668495 ]