phonopy:
  version: "2.37.1"
  frequency_unit_conversion_factor: 15.633302
  symmetry_tolerance: 1.00000e-05

space_group:
  type: "P1"
  number: 1
  Hall_symbol: "P 1"

primitive_matrix:
- [ -1.000000000000000,  0.000000000000000,  0.000000000000000 ]
- [  0.000000000000000,  0.000000000000000, -1.000000000000000 ]
- [  0.000000000000000, -1.000000000000000,  0.000000000000000 ]

supercell_matrix:
- [   3,   0,   0 ]
- [   0,   2,   0 ]
- [   0,   0,   2 ]

primitive_cell:
  lattice:
  - [    -4.719510192571079,     0.000000000000000,     0.000000000000000 ] # a
  - [     0.000155259010464,     2.027332661867954,    -5.408849197461423 ] # b
  - [     0.000235083113208,    -5.777764336339571,     0.000000000000000 ] # c
  points:
  - symbol: Li # 1
    coordinates: [  0.291167034288942,  0.757793547749764,  0.114627063816549 ]
    mass: 6.940000
  - symbol: Li # 2
    coordinates: [  0.290899000140433,  0.257695849734411,  0.614540378011738 ]
    mass: 6.940000
  - symbol: Li # 3
    coordinates: [  0.791042721081191,  0.972011085999857,  0.399986139600228 ]
    mass: 6.940000
  - symbol: Li # 4
    coordinates: [  0.291048646790515,  0.257486419856471,  0.114759001239568 ]
    mass: 6.940000
  - symbol: Li # 5
    coordinates: [  0.791010672558710,  0.543133751358727,  0.829346906513272 ]
    mass: 6.940000
  - symbol: Li # 6
    coordinates: [  0.790898186051616,  0.494592493096953,  0.352250495094451 ]
    mass: 6.940000
  - symbol: Li # 7
    coordinates: [  0.791099464849526,  0.020643127569691,  0.877328450438157 ]
    mass: 6.940000
  - symbol: Sn # 8
    coordinates: [  0.290999209572983,  0.757637783341182,  0.614665518185447 ]
    mass: 118.710000
  reciprocal_lattice: # without 2pi
  - [    -0.211886394815735,    -0.000008621139673,    -0.000009313476526 ] # a*
  - [    -0.000000000000000,    -0.000000000000000,    -0.184882211260269 ] # b*
  - [    -0.000000000000000,    -0.173077325724492,    -0.064872453022855 ] # c*

unit_cell:
  lattice:
  - [     4.719510192571079,     0.000000000000000,     0.000000000000000 ] # a
  - [    -0.000235083113208,     5.777764336339571,     0.000000000000000 ] # b
  - [    -0.000155259010464,    -2.027332661867954,     5.408849197461423 ] # c
  points:
  - symbol: Li # 1
    coordinates: [  0.708832965711058,  0.885372936183451,  0.242206452250236 ]
    mass: 6.940000
    reduced_to: 1
  - symbol: Li # 2
    coordinates: [  0.709100999859567,  0.385459621988262,  0.742304150265589 ]
    mass: 6.940000
    reduced_to: 2
  - symbol: Li # 3
    coordinates: [  0.208957278918809,  0.600013860399772,  0.027988914000143 ]
    mass: 6.940000
    reduced_to: 3
  - symbol: Li # 4
    coordinates: [  0.708951353209485,  0.885240998760432,  0.742513580143529 ]
    mass: 6.940000
    reduced_to: 4
  - symbol: Li # 5
    coordinates: [  0.208989327441290,  0.170653093486728,  0.456866248641273 ]
    mass: 6.940000
    reduced_to: 5
  - symbol: Li # 6
    coordinates: [  0.209101813948384,  0.647749504905549,  0.505407506903047 ]
    mass: 6.940000
    reduced_to: 6
  - symbol: Li # 7
    coordinates: [  0.208900535150474,  0.122671549561843,  0.979356872430309 ]
    mass: 6.940000
    reduced_to: 7
  - symbol: Sn # 8
    coordinates: [  0.709000790427017,  0.385334481814553,  0.242362216658818 ]
    mass: 118.710000
    reduced_to: 8

supercell:
  lattice:
  - [    14.158530577713236,     0.000000000000000,     0.000000000000000 ] # a
  - [    -0.000470166226416,    11.555528672679142,     0.000000000000000 ] # b
  - [    -0.000310518020928,    -4.054665323735907,    10.817698394922846 ] # c
  points:
  - symbol: Li # 1
    coordinates: [  0.236277655237019,  0.442686468091725,  0.121103226125118 ]
    mass: 6.940000
    reduced_to: 1
  - symbol: Li # 2
    coordinates: [  0.569610988570352,  0.442686468091725,  0.121103226125118 ]
    mass: 6.940000
    reduced_to: 1
  - symbol: Li # 3
    coordinates: [  0.902944321903686,  0.442686468091725,  0.121103226125118 ]
    mass: 6.940000
    reduced_to: 1
  - symbol: Li # 4
    coordinates: [  0.236277655237019,  0.942686468091725,  0.121103226125118 ]
    mass: 6.940000
    reduced_to: 1
  - symbol: Li # 5
    coordinates: [  0.569610988570352,  0.942686468091725,  0.121103226125118 ]
    mass: 6.940000
    reduced_to: 1
  - symbol: Li # 6
    coordinates: [  0.902944321903686,  0.942686468091725,  0.121103226125118 ]
    mass: 6.940000
    reduced_to: 1
  - symbol: Li # 7
    coordinates: [  0.236277655237019,  0.442686468091725,  0.621103226125118 ]
    mass: 6.940000
    reduced_to: 1
  - symbol: Li # 8
    coordinates: [  0.569610988570352,  0.442686468091725,  0.621103226125118 ]
    mass: 6.940000
    reduced_to: 1
  - symbol: Li # 9
    coordinates: [  0.902944321903686,  0.442686468091725,  0.621103226125118 ]
    mass: 6.940000
    reduced_to: 1
  - symbol: Li # 10
    coordinates: [  0.236277655237019,  0.942686468091725,  0.621103226125118 ]
    mass: 6.940000
    reduced_to: 1
  - symbol: Li # 11
    coordinates: [  0.569610988570352,  0.942686468091725,  0.621103226125118 ]
    mass: 6.940000
    reduced_to: 1
  - symbol: Li # 12
    coordinates: [  0.902944321903686,  0.942686468091725,  0.621103226125118 ]
    mass: 6.940000
    reduced_to: 1
  - symbol: Li # 13
    coordinates: [  0.236366999953189,  0.192729810994131,  0.371152075132794 ]
    mass: 6.940000
    reduced_to: 13
  - symbol: Li # 14
    coordinates: [  0.569700333286522,  0.192729810994131,  0.371152075132794 ]
    mass: 6.940000
    reduced_to: 13
  - symbol: Li # 15
    coordinates: [  0.903033666619856,  0.192729810994131,  0.371152075132794 ]
    mass: 6.940000
    reduced_to: 13
  - symbol: Li # 16
    coordinates: [  0.236366999953189,  0.692729810994131,  0.371152075132794 ]
    mass: 6.940000
    reduced_to: 13
  - symbol: Li # 17
    coordinates: [  0.569700333286522,  0.692729810994131,  0.371152075132794 ]
    mass: 6.940000
    reduced_to: 13
  - symbol: Li # 18
    coordinates: [  0.903033666619856,  0.692729810994131,  0.371152075132794 ]
    mass: 6.940000
    reduced_to: 13
  - symbol: Li # 19
    coordinates: [  0.236366999953189,  0.192729810994131,  0.871152075132794 ]
    mass: 6.940000
    reduced_to: 13
  - symbol: Li # 20
    coordinates: [  0.569700333286522,  0.192729810994131,  0.871152075132794 ]
    mass: 6.940000
    reduced_to: 13
  - symbol: Li # 21
    coordinates: [  0.903033666619856,  0.192729810994131,  0.871152075132794 ]
    mass: 6.940000
    reduced_to: 13
  - symbol: Li # 22
    coordinates: [  0.236366999953189,  0.692729810994131,  0.871152075132794 ]
    mass: 6.940000
    reduced_to: 13
  - symbol: Li # 23
    coordinates: [  0.569700333286522,  0.692729810994131,  0.871152075132794 ]
    mass: 6.940000
    reduced_to: 13
  - symbol: Li # 24
    coordinates: [  0.903033666619856,  0.692729810994131,  0.871152075132794 ]
    mass: 6.940000
    reduced_to: 13
  - symbol: Li # 25
    coordinates: [  0.069652426306270,  0.300006930199886,  0.013994457000072 ]
    mass: 6.940000
    reduced_to: 25
  - symbol: Li # 26
    coordinates: [  0.402985759639603,  0.300006930199886,  0.013994457000072 ]
    mass: 6.940000
    reduced_to: 25
  - symbol: Li # 27
    coordinates: [  0.736319092972936,  0.300006930199886,  0.013994457000072 ]
    mass: 6.940000
    reduced_to: 25
  - symbol: Li # 28
    coordinates: [  0.069652426306270,  0.800006930199886,  0.013994457000072 ]
    mass: 6.940000
    reduced_to: 25
  - symbol: Li # 29
    coordinates: [  0.402985759639603,  0.800006930199886,  0.013994457000072 ]
    mass: 6.940000
    reduced_to: 25
  - symbol: Li # 30
    coordinates: [  0.736319092972936,  0.800006930199886,  0.013994457000072 ]
    mass: 6.940000
    reduced_to: 25
  - symbol: Li # 31
    coordinates: [  0.069652426306270,  0.300006930199886,  0.513994457000072 ]
    mass: 6.940000
    reduced_to: 25
  - symbol: Li # 32
    coordinates: [  0.402985759639603,  0.300006930199886,  0.513994457000072 ]
    mass: 6.940000
    reduced_to: 25
  - symbol: Li # 33
    coordinates: [  0.736319092972936,  0.300006930199886,  0.513994457000072 ]
    mass: 6.940000
    reduced_to: 25
  - symbol: Li # 34
    coordinates: [  0.069652426306270,  0.800006930199886,  0.513994457000072 ]
    mass: 6.940000
    reduced_to: 25
  - symbol: Li # 35
    coordinates: [  0.402985759639603,  0.800006930199886,  0.513994457000072 ]
    mass: 6.940000
    reduced_to: 25
  - symbol: Li # 36
    coordinates: [  0.736319092972936,  0.800006930199886,  0.513994457000072 ]
    mass: 6.940000
    reduced_to: 25
  - symbol: Li # 37
    coordinates: [  0.236317117736495,  0.442620499380216,  0.371256790071764 ]
    mass: 6.940000
    reduced_to: 37
  - symbol: Li # 38
    coordinates: [  0.569650451069828,  0.442620499380216,  0.371256790071764 ]
    mass: 6.940000
    reduced_to: 37
  - symbol: Li # 39
    coordinates: [  0.902983784403162,  0.442620499380216,  0.371256790071764 ]
    mass: 6.940000
    reduced_to: 37
  - symbol: Li # 40
    coordinates: [  0.236317117736495,  0.942620499380216,  0.371256790071764 ]
    mass: 6.940000
    reduced_to: 37
  - symbol: Li # 41
    coordinates: [  0.569650451069828,  0.942620499380216,  0.371256790071764 ]
    mass: 6.940000
    reduced_to: 37
  - symbol: Li # 42
    coordinates: [  0.902983784403162,  0.942620499380216,  0.371256790071764 ]
    mass: 6.940000
    reduced_to: 37
  - symbol: Li # 43
    coordinates: [  0.236317117736495,  0.442620499380216,  0.871256790071764 ]
    mass: 6.940000
    reduced_to: 37
  - symbol: Li # 44
    coordinates: [  0.569650451069828,  0.442620499380216,  0.871256790071764 ]
    mass: 6.940000
    reduced_to: 37
  - symbol: Li # 45
    coordinates: [  0.902983784403162,  0.442620499380216,  0.871256790071764 ]
    mass: 6.940000
    reduced_to: 37
  - symbol: Li # 46
    coordinates: [  0.236317117736495,  0.942620499380216,  0.871256790071764 ]
    mass: 6.940000
    reduced_to: 37
  - symbol: Li # 47
    coordinates: [  0.569650451069828,  0.942620499380216,  0.871256790071764 ]
    mass: 6.940000
    reduced_to: 37
  - symbol: Li # 48
    coordinates: [  0.902983784403162,  0.942620499380216,  0.871256790071764 ]
    mass: 6.940000
    reduced_to: 37
  - symbol: Li # 49
    coordinates: [  0.069663109147097,  0.085326546743364,  0.228433124320637 ]
    mass: 6.940000
    reduced_to: 49
  - symbol: Li # 50
    coordinates: [  0.402996442480430,  0.085326546743364,  0.228433124320637 ]
    mass: 6.940000
    reduced_to: 49
  - symbol: Li # 51
    coordinates: [  0.736329775813763,  0.085326546743364,  0.228433124320637 ]
    mass: 6.940000
    reduced_to: 49
  - symbol: Li # 52
    coordinates: [  0.069663109147097,  0.585326546743364,  0.228433124320637 ]
    mass: 6.940000
    reduced_to: 49
  - symbol: Li # 53
    coordinates: [  0.402996442480430,  0.585326546743364,  0.228433124320637 ]
    mass: 6.940000
    reduced_to: 49
  - symbol: Li # 54
    coordinates: [  0.736329775813763,  0.585326546743364,  0.228433124320637 ]
    mass: 6.940000
    reduced_to: 49
  - symbol: Li # 55
    coordinates: [  0.069663109147097,  0.085326546743364,  0.728433124320637 ]
    mass: 6.940000
    reduced_to: 49
  - symbol: Li # 56
    coordinates: [  0.402996442480430,  0.085326546743364,  0.728433124320637 ]
    mass: 6.940000
    reduced_to: 49
  - symbol: Li # 57
    coordinates: [  0.736329775813763,  0.085326546743364,  0.728433124320637 ]
    mass: 6.940000
    reduced_to: 49
  - symbol: Li # 58
    coordinates: [  0.069663109147097,  0.585326546743364,  0.728433124320637 ]
    mass: 6.940000
    reduced_to: 49
  - symbol: Li # 59
    coordinates: [  0.402996442480430,  0.585326546743364,  0.728433124320637 ]
    mass: 6.940000
    reduced_to: 49
  - symbol: Li # 60
    coordinates: [  0.736329775813763,  0.585326546743364,  0.728433124320637 ]
    mass: 6.940000
    reduced_to: 49
  - symbol: Li # 61
    coordinates: [  0.069700604649461,  0.323874752452775,  0.252703753451524 ]
    mass: 6.940000
    reduced_to: 61
  - symbol: Li # 62
    coordinates: [  0.403033937982795,  0.323874752452775,  0.252703753451524 ]
    mass: 6.940000
    reduced_to: 61
  - symbol: Li # 63
    coordinates: [  0.736367271316128,  0.323874752452775,  0.252703753451524 ]
    mass: 6.940000
    reduced_to: 61
  - symbol: Li # 64
    coordinates: [  0.069700604649461,  0.823874752452775,  0.252703753451524 ]
    mass: 6.940000
    reduced_to: 61
  - symbol: Li # 65
    coordinates: [  0.403033937982795,  0.823874752452775,  0.252703753451524 ]
    mass: 6.940000
    reduced_to: 61
  - symbol: Li # 66
    coordinates: [  0.736367271316128,  0.823874752452775,  0.252703753451524 ]
    mass: 6.940000
    reduced_to: 61
  - symbol: Li # 67
    coordinates: [  0.069700604649461,  0.323874752452775,  0.752703753451524 ]
    mass: 6.940000
    reduced_to: 61
  - symbol: Li # 68
    coordinates: [  0.403033937982795,  0.323874752452775,  0.752703753451524 ]
    mass: 6.940000
    reduced_to: 61
  - symbol: Li # 69
    coordinates: [  0.736367271316128,  0.323874752452775,  0.752703753451524 ]
    mass: 6.940000
    reduced_to: 61
  - symbol: Li # 70
    coordinates: [  0.069700604649461,  0.823874752452775,  0.752703753451524 ]
    mass: 6.940000
    reduced_to: 61
  - symbol: Li # 71
    coordinates: [  0.403033937982795,  0.823874752452775,  0.752703753451524 ]
    mass: 6.940000
    reduced_to: 61
  - symbol: Li # 72
    coordinates: [  0.736367271316128,  0.823874752452775,  0.752703753451524 ]
    mass: 6.940000
    reduced_to: 61
  - symbol: Li # 73
    coordinates: [  0.069633511716825,  0.061335774780922,  0.489678436215155 ]
    mass: 6.940000
    reduced_to: 73
  - symbol: Li # 74
    coordinates: [  0.402966845050158,  0.061335774780922,  0.489678436215155 ]
    mass: 6.940000
    reduced_to: 73
  - symbol: Li # 75
    coordinates: [  0.736300178383491,  0.061335774780922,  0.489678436215155 ]
    mass: 6.940000
    reduced_to: 73
  - symbol: Li # 76
    coordinates: [  0.069633511716825,  0.561335774780922,  0.489678436215155 ]
    mass: 6.940000
    reduced_to: 73
  - symbol: Li # 77
    coordinates: [  0.402966845050158,  0.561335774780922,  0.489678436215155 ]
    mass: 6.940000
    reduced_to: 73
  - symbol: Li # 78
    coordinates: [  0.736300178383491,  0.561335774780922,  0.489678436215155 ]
    mass: 6.940000
    reduced_to: 73
  - symbol: Li # 79
    coordinates: [  0.069633511716825,  0.061335774780922,  0.989678436215155 ]
    mass: 6.940000
    reduced_to: 73
  - symbol: Li # 80
    coordinates: [  0.402966845050158,  0.061335774780922,  0.989678436215155 ]
    mass: 6.940000
    reduced_to: 73
  - symbol: Li # 81
    coordinates: [  0.736300178383491,  0.061335774780922,  0.989678436215155 ]
    mass: 6.940000
    reduced_to: 73
  - symbol: Li # 82
    coordinates: [  0.069633511716825,  0.561335774780922,  0.989678436215155 ]
    mass: 6.940000
    reduced_to: 73
  - symbol: Li # 83
    coordinates: [  0.402966845050158,  0.561335774780922,  0.989678436215155 ]
    mass: 6.940000
    reduced_to: 73
  - symbol: Li # 84
    coordinates: [  0.736300178383491,  0.561335774780922,  0.989678436215155 ]
    mass: 6.940000
    reduced_to: 73
  - symbol: Sn # 85
    coordinates: [  0.236333596809006,  0.192667240907277,  0.121181108329409 ]
    mass: 118.710000
    reduced_to: 85
  - symbol: Sn # 86
    coordinates: [  0.569666930142339,  0.192667240907277,  0.121181108329409 ]
    mass: 118.710000
    reduced_to: 85
  - symbol: Sn # 87
    coordinates: [  0.903000263475672,  0.192667240907277,  0.121181108329409 ]
    mass: 118.710000
    reduced_to: 85
  - symbol: Sn # 88
    coordinates: [  0.236333596809006,  0.692667240907276,  0.121181108329409 ]
    mass: 118.710000
    reduced_to: 85
  - symbol: Sn # 89
    coordinates: [  0.569666930142339,  0.692667240907276,  0.121181108329409 ]
    mass: 118.710000
    reduced_to: 85
  - symbol: Sn # 90
    coordinates: [  0.903000263475672,  0.692667240907276,  0.121181108329409 ]
    mass: 118.710000
    reduced_to: 85
  - symbol: Sn # 91
    coordinates: [  0.236333596809006,  0.192667240907277,  0.621181108329409 ]
    mass: 118.710000
    reduced_to: 85
  - symbol: Sn # 92
    coordinates: [  0.569666930142339,  0.192667240907277,  0.621181108329409 ]
    mass: 118.710000
    reduced_to: 85
  - symbol: Sn # 93
    coordinates: [  0.903000263475672,  0.192667240907277,  0.621181108329409 ]
    mass: 118.710000
    reduced_to: 85
  - symbol: Sn # 94
    coordinates: [  0.236333596809006,  0.692667240907276,  0.621181108329409 ]
    mass: 118.710000
    reduced_to: 85
  - symbol: Sn # 95
    coordinates: [  0.569666930142339,  0.692667240907276,  0.621181108329409 ]
    mass: 118.710000
    reduced_to: 85
  - symbol: Sn # 96
    coordinates: [  0.903000263475672,  0.692667240907276,  0.621181108329409 ]
    mass: 118.710000
    reduced_to: 85

displacements:
- atom:    1
  displacement:
    [   0.0100000000000000,  0.0000000000000000,  0.0000000000000000 ]
  forces:
  - [  -0.0123295756056905, -0.0017968597821891,  0.0022650077007711 ]
  - [   0.0003927905636374, -0.0017950341571122,  0.0022618281655014 ]
  - [   0.0003974420833401, -0.0017950907349586,  0.0022611480671912 ]
  - [   0.0007872236310504, -0.0017949114553630,  0.0022616195492446 ]
  - [   0.0010737576521933, -0.0017948159947991,  0.0022616758942604 ]
  - [   0.0010732165537775, -0.0017949906177819,  0.0022618793882430 ]
  - [   0.0010451797861606, -0.0017954115755856,  0.0022617531940341 ]
  - [   0.0010591170284897, -0.0017951353220269,  0.0022614747285843 ]
  - [   0.0010574420448393, -0.0017952853813767,  0.0022609555162489 ]
  - [   0.0010322779417038, -0.0017957175150514,  0.0022615678608418 ]
  - [   0.0010641568806022, -0.0017958981916308,  0.0022616144269705 ]
  - [   0.0010640996042639, -0.0017960055265576,  0.0022611950989813 ]
  - [  -0.0009621425415389, -0.0021417615935206,  0.0012593674473464 ]
  - [  -0.0008852003957145, -0.0021433290094137,  0.0012526251375675 ]
  - [  -0.0008854495827109, -0.0021388246677816,  0.0012635854072869 ]
  - [  -0.0007720598368905, -0.0021145362406969,  0.0012683873064816 ]
  - [  -0.0007778235594742, -0.0020645242184401,  0.0013161348178983 ]
  - [  -0.0007786644855514, -0.0021602250635624,  0.0012226053513587 ]
  - [  -0.0007929151179269, -0.0021396405063570,  0.0012577795423567 ]
  - [  -0.0007993320468813, -0.0021894597448409,  0.0012106165522709 ]
  - [  -0.0008005218696781, -0.0020942161791027,  0.0013050044653937 ]
  - [  -0.0009586092783138, -0.0021375431679189,  0.0012580053880811 ]
  - [  -0.0008805491379462, -0.0021355105563998,  0.0012651485158131 ]
  - [  -0.0008810624713078, -0.0021396386437118,  0.0012543183984235 ]
  - [   0.0028670371975750, -0.0020740404725075,  0.0045111663639545 ]
  - [   0.0028974087908864, -0.0060688331723213,  0.0020674839615822 ]
  - [   0.0001088521094061, -0.0040552057325840,  0.0032981410622597 ]
  - [   0.0003052597166970, -0.0041433423757553,  0.0034323912113905 ]
  - [   0.0003039369476028, -0.0039708446711302,  0.0031705945730209 ]
  - [   0.0000717735383660, -0.0040568895637989,  0.0033029150217772 ]
  - [   0.0001091791200452, -0.0040448252111673,  0.0032862611114979 ]
  - [   0.0001086131087504, -0.0040653236210346,  0.0033090896904469 ]
  - [   0.0001067657140084, -0.0040546506643295,  0.0032977834343910 ]
  - [   0.0000943914055824, -0.0040607191622257,  0.0032711513340473 ]
  - [   0.0000931061804295, -0.0040490925312042,  0.0033263973891735 ]
  - [   0.0001079216599464, -0.0040553677827120,  0.0033026561141014 ]
  - [   0.0001375205465592,  0.0023180060088634, -0.0022314463276416 ]
  - [   0.0003188911359757,  0.0023064827546477, -0.0022012498229742 ]
  - [   0.0003195710305590,  0.0023241946473718, -0.0022504129447043 ]
  - [   0.0002305191155756,  0.0023150288034230, -0.0022255382500589 ]
  - [   0.0002769093553070,  0.0023127894382924, -0.0022275766823441 ]
  - [   0.0002770430874079,  0.0023180684074759, -0.0022245661821216 ]
  - [   0.0001324248441961,  0.0023134935181588, -0.0022212686017156 ]
  - [   0.0003196877660230,  0.0023244216572493, -0.0022508706897497 ]
  - [   0.0003199652419426,  0.0023059099912643, -0.0022017853334546 ]
  - [   0.0002309468982276,  0.0023158341646194, -0.0022270120680332 ]
  - [   0.0002774188469630,  0.0023178495466709, -0.0022240802645683 ]
  - [   0.0002762172371149,  0.0023132748901844, -0.0022276379168034 ]
  - [   0.0000995593945845,  0.0025035701692104, -0.0036991667002439 ]
  - [   0.0000983417849056,  0.0023295339196920, -0.0034369844943285 ]
  - [  -0.0001328728976659,  0.0024157557636499, -0.0035689696669579 ]
  - [   0.0026597515679896,  0.0004373602569103, -0.0047792047262192 ]
  - [   0.0026902758982033,  0.0044263582676649, -0.0023322068154812 ]
  - [  -0.0000980807817541,  0.0024142377078533, -0.0035643782466650 ]
  - [  -0.0001119072985603,  0.0024214778095484, -0.0035408698022366 ]
  - [  -0.0001121797831729,  0.0024092942476273, -0.0035983510315418 ]
  - [  -0.0000965669169091,  0.0024151448160410, -0.0035692937672138 ]
  - [  -0.0000983455902315,  0.0024049095809460, -0.0035549886524677 ]
  - [  -0.0000964882783592,  0.0024256408214569, -0.0035790633410215 ]
  - [  -0.0000996123999357,  0.0024154596030712, -0.0035677719861269 ]
  - [  -0.0004203221760690, -0.0055915340781212, -0.0136180482804775 ]
  - [  -0.0004112974274904, -0.0063779633492231, -0.0134400948882103 ]
  - [  -0.0010227144230157, -0.0059799365699291, -0.0135324671864510 ]
  - [  -0.0009356059599668, -0.0057888906449080, -0.0136008579283953 ]
  - [  -0.0009328164160252, -0.0061687715351582, -0.0134638901799917 ]
  - [  -0.0010293337982148, -0.0059793628752232, -0.0135327633470297 ]
  - [  -0.0012020632857457, -0.0060026720166206, -0.0138873569667339 ]
  - [  -0.0012016287073493, -0.0059619620442390, -0.0131731387227774 ]
  - [  -0.0009998092427850, -0.0059794764965773, -0.0135313533246517 ]
  - [  -0.0010146051645279, -0.0059848353266716, -0.0135291703045368 ]
  - [  -0.0010128132998943, -0.0059810485690832, -0.0135329365730286 ]
  - [  -0.0010232590138912, -0.0059794783592224, -0.0135318469256163 ]
  - [   0.0007329984800890,  0.0082172378897667,  0.0137283224612474 ]
  - [   0.0007319094147533,  0.0082133505493402,  0.0137315131723881 ]
  - [   0.0007233223877847,  0.0082178562879562,  0.0137289762496948 ]
  - [   0.0005473102210090,  0.0082343891263008,  0.0140837952494621 ]
  - [   0.0005449521122500,  0.0081949178129435,  0.0133731197565794 ]
  - [   0.0007460981141776,  0.0082173440605402,  0.0137287564575672 ]
  - [   0.0008092317730188,  0.0080280303955078,  0.0137963872402906 ]
  - [   0.0008115391246974,  0.0084076728671789,  0.0136592406779528 ]
  - [   0.0007173496996984,  0.0082184989005327,  0.0137279517948627 ]
  - [   0.0013296520337462,  0.0078267175704241,  0.0138163696974516 ]
  - [   0.0013409378007054,  0.0086230486631393,  0.0136317778378725 ]
  - [   0.0007228322792798,  0.0082188621163368,  0.0137283746153116 ]
  - [  -0.0000016763806343,  0.0010344758629799, -0.0012241965159774 ]
  - [  -0.0000205561518669,  0.0008680224418640, -0.0012217098847032 ]
  - [  -0.0000219121575356,  0.0011750366538763, -0.0012166542001069 ]
  - [  -0.0000134706497192,  0.0009948301594704, -0.0012244136305526 ]
  - [  -0.0000297129154205,  0.0011670067906380, -0.0012300467351452 ]
  - [  -0.0000296682119370,  0.0008577341213822, -0.0012346170842648 ]
  - [  -0.0001982226967812,  0.0010344572365284, -0.0012219501659274 ]
  - [  -0.0001314580440521,  0.0010130219161510, -0.0012327884323895 ]
  - [  -0.0001314505934715,  0.0010327771306038, -0.0012049102224410 ]
  - [  -0.0002136528491974,  0.0010139346122742, -0.0012300815433264 ]
  - [  -0.0001496672630310,  0.0010118894279003, -0.0012164739891887 ]
  - [  -0.0001463890075684,  0.0009942390024662, -0.0012494437396526 ]
- atom:    1
  displacement:
    [  -0.0100000000000000,  0.0000000000000000,  0.0000000000000000 ]
  forces:
  - [   0.0144385425373912, -0.0017927899025381,  0.0022598584182560 ]
  - [   0.0017117395764217, -0.0017954374197870,  0.0022611659951508 ]
  - [   0.0017164193559438, -0.0017946008592844,  0.0022618563380092 ]
  - [   0.0013213051715866, -0.0017947545275092,  0.0022616307251155 ]
  - [   0.0010350422235206, -0.0017946788575500,  0.0022615790367126 ]
  - [   0.0010345290647820, -0.0017950427718461,  0.0022619264200330 ]
  - [   0.0010640996042639, -0.0017955027287826,  0.0022618570365012 ]
  - [   0.0010514310561121, -0.0017949762986973,  0.0022615324705839 ]
  - [   0.0010499407071620, -0.0017952494090423,  0.0022610267624259 ]
  - [   0.0010770674562082, -0.0017956546507776,  0.0022616486530751 ]
  - [   0.0010445708176121, -0.0017960467375815,  0.0022615538910031 ]
  - [   0.0010445083025843, -0.0017959072720259,  0.0022611585445702 ]
  - [  -0.0008225791971199, -0.0021417285315692,  0.0012596389278769 ]
  - [  -0.0009007794433273, -0.0021391683258116,  0.0012630561832339 ]
  - [  -0.0009009281639010, -0.0021428912878036,  0.0012530914973468 ]
  - [  -0.0009689137223177, -0.0021151313558221,  0.0012684324756265 ]
  - [  -0.0009621211211197, -0.0021596332080662,  0.0012230779975653 ]
  - [  -0.0009637178736739, -0.0020648650825024,  0.0013162004761398 ]
  - [  -0.0009918797295541, -0.0021388502791524,  0.0012585254153237 ]
  - [  -0.0009838722180575, -0.0020945556461811,  0.0013043599901721 ]
  - [  -0.0009864952880889, -0.0021895729005337,  0.0012104635825381 ]
  - [  -0.0008192890090868, -0.0021371580660343,  0.0012577943271026 ]
  - [  -0.0008959388360381, -0.0021394900977612,  0.0012545203790069 ]
  - [  -0.0008964648004621, -0.0021357005462050,  0.0012649249983951 ]
  - [  -0.0026910589076579, -0.0060741640627384,  0.0020618792623281 ]
  - [  -0.0026518460363150, -0.0020786393433809,  0.0045096911489964 ]
  - [   0.0001013725996017, -0.0040552169084549,  0.0032981783151627 ]
  - [  -0.0000937939621508, -0.0039703659713268,  0.0031675659120083 ]
  - [  -0.0000948234810494, -0.0041442289948463,  0.0034353695809841 ]
  - [   0.0001356328139082, -0.0040569640696049,  0.0033028628677130 ]
  - [   0.0001015908201225, -0.0040652230381966,  0.0033094510436058 ]
  - [   0.0001009395928122, -0.0040450729429722,  0.0032858997583389 ]
  - [   0.0001041459036060, -0.0040545295923948,  0.0032977517694235 ]
  - [   0.0001168809831142, -0.0040486585348845,  0.0033284537494183 ]
  - [   0.0001157112419605, -0.0040609613060951,  0.0032691676169634 ]
  - [   0.0000996701419353, -0.0040554217994213,  0.0033027585595846 ]
  - [   0.0004038537153974,  0.0023181624710560, -0.0022324845194817 ]
  - [   0.0002212946274085,  0.0023248558863997, -0.0022503845393658 ]
  - [   0.0002222634648206,  0.0023061134852469, -0.0022015387658030 ]
  - [   0.0003110478864983,  0.0023152101784945, -0.0022251340560615 ]
  - [   0.0002656587166712,  0.0023177857510746, -0.0022247664164752 ]
  - [   0.0002657716104295,  0.0023129279725254, -0.0022274954244494 ]
  - [   0.0004095037584193,  0.0023127906024456, -0.0022201568353921 ]
  - [   0.0002218343870481,  0.0023061011452228, -0.0022018060553819 ]
  - [   0.0002225875068689,  0.0023243054747581, -0.0022505971137434 ]
  - [   0.0003112828126177,  0.0023155938833952, -0.0022274367511272 ]
  - [   0.0002659109886736,  0.0023127123713493, -0.0022270679473877 ]
  - [   0.0002647712244652,  0.0023180712014437, -0.0022244900465012 ]
  - [  -0.0002992852241732,  0.0023301560431719, -0.0034347660839558 ]
  - [  -0.0003000816795975,  0.0025035571306944, -0.0037013944238424 ]
  - [  -0.0000690499437042,  0.0024156495928764, -0.0035688895732164 ]
  - [  -0.0028970339335501,  0.0044296607375145, -0.0023263953626156 ]
  - [  -0.0028577782213688,  0.0004426445811987, -0.0047792736440897 ]
  - [  -0.0001053376472555,  0.0024141110479832, -0.0035644304007292 ]
  - [  -0.0000891789095476,  0.0024095848202705, -0.0035980604588985 ]
  - [  -0.0000897168065421,  0.0024211127310991, -0.0035411398857832 ]
  - [  -0.0001049069105648,  0.0024153385311365, -0.0035693086683750 ]
  - [  -0.0001062320006895,  0.0024252571165562, -0.0035783816128969 ]
  - [  -0.0001041889190674,  0.0024052448570728, -0.0035556610673666 ]
  - [  -0.0001018308103085,  0.0024155285209417, -0.0035677962005138 ]
  - [  -0.0016243294812739, -0.0063817407935858, -0.0134374890476465 ]
  - [  -0.0016089640557766, -0.0055949017405510, -0.0136156585067511 ]
  - [  -0.0010097699705511, -0.0059800948947668, -0.0135325435549021 ]
  - [  -0.0011001823004335, -0.0061681121587753, -0.0134636797010899 ]
  - [  -0.0010965173132718, -0.0057891532778740, -0.0136012807488441 ]
  - [  -0.0010045908857137, -0.0059793069958687, -0.0135327018797398 ]
  - [  -0.0008323873626068, -0.0059680007398129, -0.0131704788655043 ]
  - [  -0.0008323248475790, -0.0059967860579491, -0.0138874314725399 ]
  - [  -0.0010333079844713, -0.0059795156121254, -0.0135312825441360 ]
  - [  -0.0010208776220679, -0.0059868842363358, -0.0135312713682652 ]
  - [  -0.0010189730674028, -0.0059789642691612, -0.0135308410972357 ]
  - [  -0.0010108202695847, -0.0059794317930937, -0.0135319214314222 ]
  - [   0.0007268469780684,  0.0082191247493029,  0.0137303322553635 ]
  - [   0.0007255800301209,  0.0082114823162556,  0.0137295518070459 ]
  - [   0.0007359315641224,  0.0082176774740219,  0.0137289240956306 ]
  - [   0.0009147428208962,  0.0082004535943270,  0.0133716277778149 ]
  - [   0.0009123223135248,  0.0082287844270468,  0.0140847340226173 ]
  - [   0.0007128274301067,  0.0082173738628626,  0.0137287899851799 ]
  - [   0.0006469697691500,  0.0084078237414360,  0.0136602241545916 ]
  - [   0.0006503066979349,  0.0080277603119612,  0.0137959066778421 ]
  - [   0.0007419172907248,  0.0082185398787260,  0.0137279257178307 ]
  - [   0.0001172116026282,  0.0086242593824863,  0.0136318095028400 ]
  - [   0.0001303637400270,  0.0078275706619024,  0.0138157773762941 ]
  - [   0.0007361331954598,  0.0082189068198204,  0.0137283951044083 ]
  - [  -0.0003029480576515,  0.0010412521660328, -0.0012247632257640 ]