phonopy:
  version: "2.37.1"
  frequency_unit_conversion_factor: 15.633302
  symmetry_tolerance: 1.00000e-05

space_group:
  type: "Pm-3m"
  number: 221
  Hall_symbol: "-P 4 2 3"

primitive_matrix:
- [  1.000000000000000,  0.000000000000000,  0.000000000000000 ]
- [  0.000000000000000,  1.000000000000000,  0.000000000000000 ]
- [  0.000000000000000,  0.000000000000000,  1.000000000000000 ]

supercell_matrix:
- [   3,   0,   0 ]
- [   0,   3,   0 ]
- [   0,   0,   3 ]

primitive_cell:
  lattice:
  - [     4.433791373562090,     0.000000000000000,     0.000000000000000 ] # a
  - [    -0.000000016434927,     4.433791390647504,     0.000000000000000 ] # b
  - [     0.000000021110212,     0.000000010081014,     4.433791370850162 ] # c
  points:
  - symbol: Ga # 1
    coordinates: [  0.999999999456445,  0.500000000050546,  0.500000000146984 ]
    mass: 69.723000
  - symbol: Ga # 2
    coordinates: [  0.500000000193747,  0.000000000184898,  0.500000000005984 ]
    mass: 69.723000
  - symbol: Ga # 3
    coordinates: [  0.500000000106373,  0.499999999943216,  0.999999999819452 ]
    mass: 69.723000
  - symbol: Sn # 4
    coordinates: [  0.000000000211766,  0.999999999837669,  0.000000000021208 ]
    mass: 118.710000
  reciprocal_lattice: # without 2pi
  - [     0.225540607517715,     0.000000000836021,    -0.000000001073846 ] # a*
  - [     0.000000000000000,     0.225540606648605,    -0.000000000512807 ] # b*
  - [     0.000000000000000,     0.000000000000000,     0.225540607655667 ] # c*

unit_cell:
  lattice:
  - [     4.433791373562091,     0.000000000000000,     0.000000000000000 ] # a
  - [    -0.000000016434927,     4.433791390647505,     0.000000000000000 ] # b
  - [     0.000000021110212,     0.000000010081014,     4.433791370850163 ] # c
  points:
  - symbol: Ga # 1
    coordinates: [  0.999999999456445,  0.500000000050546,  0.500000000146984 ]
    mass: 69.723000
    reduced_to: 1
  - symbol: Ga # 2
    coordinates: [  0.500000000193747,  0.000000000184898,  0.500000000005984 ]
    mass: 69.723000
    reduced_to: 2
  - symbol: Ga # 3
    coordinates: [  0.500000000106372,  0.499999999943216,  0.999999999819451 ]
    mass: 69.723000
    reduced_to: 3
  - symbol: Sn # 4
    coordinates: [  0.000000000211766,  0.999999999837669,  0.000000000021208 ]
    mass: 118.710000
    reduced_to: 4

supercell:
  lattice:
  - [    13.301374120686273,     0.000000000000000,     0.000000000000000 ] # a
  - [    -0.000000049304780,    13.301374171942514,     0.000000000000000 ] # b
  - [     0.000000063330637,     0.000000030243042,    13.301374112550491 ] # c
  points:
  - symbol: Ga # 1
    coordinates: [  0.333333333152148,  0.166666666683515,  0.166666666715661 ]
    mass: 69.723000
    reduced_to: 1
  - symbol: Ga # 2
    coordinates: [  0.666666666485482,  0.166666666683515,  0.166666666715661 ]
    mass: 69.723000
    reduced_to: 1
  - symbol: Ga # 3
    coordinates: [  0.999999999818815,  0.166666666683515,  0.166666666715661 ]
    mass: 69.723000
    reduced_to: 1
  - symbol: Ga # 4
    coordinates: [  0.333333333152148,  0.500000000016849,  0.166666666715661 ]
    mass: 69.723000
    reduced_to: 1
  - symbol: Ga # 5
    coordinates: [  0.666666666485482,  0.500000000016849,  0.166666666715661 ]
    mass: 69.723000
    reduced_to: 1
  - symbol: Ga # 6
    coordinates: [  0.999999999818815,  0.500000000016849,  0.166666666715661 ]
    mass: 69.723000
    reduced_to: 1
  - symbol: Ga # 7
    coordinates: [  0.333333333152148,  0.833333333350182,  0.166666666715661 ]
    mass: 69.723000
    reduced_to: 1
  - symbol: Ga # 8
    coordinates: [  0.666666666485482,  0.833333333350182,  0.166666666715661 ]
    mass: 69.723000
    reduced_to: 1
  - symbol: Ga # 9
    coordinates: [  0.999999999818815,  0.833333333350182,  0.166666666715661 ]
    mass: 69.723000
    reduced_to: 1
  - symbol: Ga # 10
    coordinates: [  0.333333333152148,  0.166666666683515,  0.500000000048995 ]
    mass: 69.723000
    reduced_to: 1
  - symbol: Ga # 11
    coordinates: [  0.666666666485482,  0.166666666683515,  0.500000000048995 ]
    mass: 69.723000
    reduced_to: 1
  - symbol: Ga # 12
    coordinates: [  0.999999999818815,  0.166666666683515,  0.500000000048995 ]
    mass: 69.723000
    reduced_to: 1
  - symbol: Ga # 13
    coordinates: [  0.333333333152148,  0.500000000016849,  0.500000000048995 ]
    mass: 69.723000
    reduced_to: 1
  - symbol: Ga # 14
    coordinates: [  0.666666666485482,  0.500000000016849,  0.500000000048995 ]
    mass: 69.723000
    reduced_to: 1
  - symbol: Ga # 15
    coordinates: [  0.999999999818815,  0.500000000016849,  0.500000000048995 ]
    mass: 69.723000
    reduced_to: 1
  - symbol: Ga # 16
    coordinates: [  0.333333333152148,  0.833333333350182,  0.500000000048995 ]
    mass: 69.723000
    reduced_to: 1
  - symbol: Ga # 17
    coordinates: [  0.666666666485482,  0.833333333350182,  0.500000000048995 ]
    mass: 69.723000
    reduced_to: 1
  - symbol: Ga # 18
    coordinates: [  0.999999999818815,  0.833333333350182,  0.500000000048995 ]
    mass: 69.723000
    reduced_to: 1
  - symbol: Ga # 19
    coordinates: [  0.333333333152148,  0.166666666683515,  0.833333333382328 ]
    mass: 69.723000
    reduced_to: 1
  - symbol: Ga # 20
    coordinates: [  0.666666666485482,  0.166666666683515,  0.833333333382328 ]
    mass: 69.723000
    reduced_to: 1
  - symbol: Ga # 21
    coordinates: [  0.999999999818815,  0.166666666683515,  0.833333333382328 ]
    mass: 69.723000
    reduced_to: 1
  - symbol: Ga # 22
    coordinates: [  0.333333333152148,  0.500000000016849,  0.833333333382328 ]
    mass: 69.723000
    reduced_to: 1
  - symbol: Ga # 23
    coordinates: [  0.666666666485482,  0.500000000016849,  0.833333333382328 ]
    mass: 69.723000
    reduced_to: 1
  - symbol: Ga # 24
    coordinates: [  0.999999999818815,  0.500000000016849,  0.833333333382328 ]
    mass: 69.723000
    reduced_to: 1
  - symbol: Ga # 25
    coordinates: [  0.333333333152148,  0.833333333350182,  0.833333333382328 ]
    mass: 69.723000
    reduced_to: 1
  - symbol: Ga # 26
    coordinates: [  0.666666666485482,  0.833333333350182,  0.833333333382328 ]
    mass: 69.723000
    reduced_to: 1
  - symbol: Ga # 27
    coordinates: [  0.999999999818815,  0.833333333350182,  0.833333333382328 ]
    mass: 69.723000
    reduced_to: 1
  - symbol: Ga # 28
    coordinates: [  0.166666666731249,  0.000000000061633,  0.166666666668661 ]
    mass: 69.723000
    reduced_to: 28
  - symbol: Ga # 29
    coordinates: [  0.500000000064582,  0.000000000061633,  0.166666666668661 ]
    mass: 69.723000
    reduced_to: 28
  - symbol: Ga # 30
    coordinates: [  0.833333333397915,  0.000000000061633,  0.166666666668661 ]
    mass: 69.723000
    reduced_to: 28
  - symbol: Ga # 31
    coordinates: [  0.166666666731249,  0.333333333394966,  0.166666666668661 ]
    mass: 69.723000
    reduced_to: 28
  - symbol: Ga # 32
    coordinates: [  0.500000000064582,  0.333333333394966,  0.166666666668661 ]
    mass: 69.723000
    reduced_to: 28
  - symbol: Ga # 33
    coordinates: [  0.833333333397915,  0.333333333394966,  0.166666666668661 ]
    mass: 69.723000
    reduced_to: 28
  - symbol: Ga # 34
    coordinates: [  0.166666666731249,  0.666666666728299,  0.166666666668661 ]
    mass: 69.723000
    reduced_to: 28
  - symbol: Ga # 35
    coordinates: [  0.500000000064582,  0.666666666728299,  0.166666666668661 ]
    mass: 69.723000
    reduced_to: 28
  - symbol: Ga # 36
    coordinates: [  0.833333333397915,  0.666666666728299,  0.166666666668661 ]
    mass: 69.723000
    reduced_to: 28
  - symbol: Ga # 37
    coordinates: [  0.166666666731249,  0.000000000061633,  0.500000000001995 ]
    mass: 69.723000
    reduced_to: 28
  - symbol: Ga # 38
    coordinates: [  0.500000000064582,  0.000000000061633,  0.500000000001995 ]
    mass: 69.723000
    reduced_to: 28
  - symbol: Ga # 39
    coordinates: [  0.833333333397915,  0.000000000061633,  0.500000000001995 ]
    mass: 69.723000
    reduced_to: 28
  - symbol: Ga # 40
    coordinates: [  0.166666666731249,  0.333333333394966,  0.500000000001995 ]
    mass: 69.723000
    reduced_to: 28
  - symbol: Ga # 41
    coordinates: [  0.500000000064582,  0.333333333394966,  0.500000000001995 ]
    mass: 69.723000
    reduced_to: 28
  - symbol: Ga # 42
    coordinates: [  0.833333333397915,  0.333333333394966,  0.500000000001995 ]
    mass: 69.723000
    reduced_to: 28
  - symbol: Ga # 43
    coordinates: [  0.166666666731249,  0.666666666728299,  0.500000000001995 ]
    mass: 69.723000
    reduced_to: 28
  - symbol: Ga # 44
    coordinates: [  0.500000000064582,  0.666666666728299,  0.500000000001995 ]
    mass: 69.723000
    reduced_to: 28
  - symbol: Ga # 45
    coordinates: [  0.833333333397915,  0.666666666728299,  0.500000000001995 ]
    mass: 69.723000
    reduced_to: 28
  - symbol: Ga # 46
    coordinates: [  0.166666666731249,  0.000000000061633,  0.833333333335328 ]
    mass: 69.723000
    reduced_to: 28
  - symbol: Ga # 47
    coordinates: [  0.500000000064582,  0.000000000061633,  0.833333333335328 ]
    mass: 69.723000
    reduced_to: 28
  - symbol: Ga # 48
    coordinates: [  0.833333333397915,  0.000000000061633,  0.833333333335328 ]
    mass: 69.723000
    reduced_to: 28
  - symbol: Ga # 49
    coordinates: [  0.166666666731249,  0.333333333394966,  0.833333333335328 ]
    mass: 69.723000
    reduced_to: 28
  - symbol: Ga # 50
    coordinates: [  0.500000000064582,  0.333333333394966,  0.833333333335328 ]
    mass: 69.723000
    reduced_to: 28
  - symbol: Ga # 51
    coordinates: [  0.833333333397915,  0.333333333394966,  0.833333333335328 ]
    mass: 69.723000
    reduced_to: 28
  - symbol: Ga # 52
    coordinates: [  0.166666666731249,  0.666666666728299,  0.833333333335328 ]
    mass: 69.723000
    reduced_to: 28
  - symbol: Ga # 53
    coordinates: [  0.500000000064582,  0.666666666728299,  0.833333333335328 ]
    mass: 69.723000
    reduced_to: 28
  - symbol: Ga # 54
    coordinates: [  0.833333333397915,  0.666666666728299,  0.833333333335328 ]
    mass: 69.723000
    reduced_to: 28
  - symbol: Ga # 55
    coordinates: [  0.166666666702124,  0.166666666647739,  0.333333333273150 ]
    mass: 69.723000
    reduced_to: 55
  - symbol: Ga # 56
    coordinates: [  0.500000000035457,  0.166666666647739,  0.333333333273150 ]
    mass: 69.723000
    reduced_to: 55
  - symbol: Ga # 57
    coordinates: [  0.833333333368791,  0.166666666647739,  0.333333333273150 ]
    mass: 69.723000
    reduced_to: 55
  - symbol: Ga # 58
    coordinates: [  0.166666666702124,  0.499999999981072,  0.333333333273150 ]
    mass: 69.723000
    reduced_to: 55
  - symbol: Ga # 59
    coordinates: [  0.500000000035457,  0.499999999981072,  0.333333333273150 ]
    mass: 69.723000
    reduced_to: 55
  - symbol: Ga # 60
    coordinates: [  0.833333333368791,  0.499999999981072,  0.333333333273150 ]
    mass: 69.723000
    reduced_to: 55
  - symbol: Ga # 61
    coordinates: [  0.166666666702124,  0.833333333314405,  0.333333333273150 ]
    mass: 69.723000
    reduced_to: 55
  - symbol: Ga # 62
    coordinates: [  0.500000000035457,  0.833333333314405,  0.333333333273150 ]
    mass: 69.723000
    reduced_to: 55
  - symbol: Ga # 63
    coordinates: [  0.833333333368791,  0.833333333314405,  0.333333333273150 ]
    mass: 69.723000
    reduced_to: 55
  - symbol: Ga # 64
    coordinates: [  0.166666666702124,  0.166666666647739,  0.666666666606484 ]
    mass: 69.723000
    reduced_to: 55
  - symbol: Ga # 65
    coordinates: [  0.500000000035457,  0.166666666647739,  0.666666666606484 ]
    mass: 69.723000
    reduced_to: 55
  - symbol: Ga # 66
    coordinates: [  0.833333333368791,  0.166666666647739,  0.666666666606484 ]
    mass: 69.723000
    reduced_to: 55
  - symbol: Ga # 67
    coordinates: [  0.166666666702124,  0.499999999981072,  0.666666666606484 ]
    mass: 69.723000
    reduced_to: 55
  - symbol: Ga # 68
    coordinates: [  0.500000000035457,  0.499999999981072,  0.666666666606484 ]
    mass: 69.723000
    reduced_to: 55
  - symbol: Ga # 69
    coordinates: [  0.833333333368791,  0.499999999981072,  0.666666666606484 ]
    mass: 69.723000
    reduced_to: 55
  - symbol: Ga # 70
    coordinates: [  0.166666666702124,  0.833333333314405,  0.666666666606484 ]
    mass: 69.723000
    reduced_to: 55
  - symbol: Ga # 71
    coordinates: [  0.500000000035457,  0.833333333314405,  0.666666666606484 ]
    mass: 69.723000
    reduced_to: 55
  - symbol: Ga # 72
    coordinates: [  0.833333333368791,  0.833333333314405,  0.666666666606484 ]
    mass: 69.723000
    reduced_to: 55
  - symbol: Ga # 73
    coordinates: [  0.166666666702124,  0.166666666647739,  0.999999999939817 ]
    mass: 69.723000
    reduced_to: 55
  - symbol: Ga # 74
    coordinates: [  0.500000000035457,  0.166666666647739,  0.999999999939817 ]
    mass: 69.723000
    reduced_to: 55
  - symbol: Ga # 75
    coordinates: [  0.833333333368791,  0.166666666647739,  0.999999999939817 ]
    mass: 69.723000
    reduced_to: 55
  - symbol: Ga # 76
    coordinates: [  0.166666666702124,  0.499999999981072,  0.999999999939817 ]
    mass: 69.723000
    reduced_to: 55
  - symbol: Ga # 77
    coordinates: [  0.500000000035457,  0.499999999981072,  0.999999999939817 ]
    mass: 69.723000
    reduced_to: 55
  - symbol: Ga # 78
    coordinates: [  0.833333333368791,  0.499999999981072,  0.999999999939817 ]
    mass: 69.723000
    reduced_to: 55
  - symbol: Ga # 79
    coordinates: [  0.166666666702124,  0.833333333314405,  0.999999999939817 ]
    mass: 69.723000
    reduced_to: 55
  - symbol: Ga # 80
    coordinates: [  0.500000000035457,  0.833333333314405,  0.999999999939817 ]
    mass: 69.723000
    reduced_to: 55
  - symbol: Ga # 81
    coordinates: [  0.833333333368791,  0.833333333314405,  0.999999999939817 ]
    mass: 69.723000
    reduced_to: 55
  - symbol: Sn # 82
    coordinates: [  0.000000000070589,  0.333333333279223,  0.000000000007069 ]
    mass: 118.710000
    reduced_to: 82
  - symbol: Sn # 83
    coordinates: [  0.333333333403922,  0.333333333279223,  0.000000000007069 ]
    mass: 118.710000
    reduced_to: 82
  - symbol: Sn # 84
    coordinates: [  0.666666666737255,  0.333333333279223,  0.000000000007069 ]
    mass: 118.710000
    reduced_to: 82
  - symbol: Sn # 85
    coordinates: [  0.000000000070589,  0.666666666612556,  0.000000000007069 ]
    mass: 118.710000
    reduced_to: 82
  - symbol: Sn # 86
    coordinates: [  0.333333333403922,  0.666666666612556,  0.000000000007069 ]
    mass: 118.710000
    reduced_to: 82
  - symbol: Sn # 87
    coordinates: [  0.666666666737255,  0.666666666612556,  0.000000000007069 ]
    mass: 118.710000
    reduced_to: 82
  - symbol: Sn # 88
    coordinates: [  0.000000000070589,  0.999999999945890,  0.000000000007069 ]
    mass: 118.710000
    reduced_to: 82
  - symbol: Sn # 89
    coordinates: [  0.333333333403922,  0.999999999945890,  0.000000000007069 ]
    mass: 118.710000
    reduced_to: 82
  - symbol: Sn # 90
    coordinates: [  0.666666666737255,  0.999999999945890,  0.000000000007069 ]
    mass: 118.710000
    reduced_to: 82
  - symbol: Sn # 91
    coordinates: [  0.000000000070589,  0.333333333279223,  0.333333333340403 ]
    mass: 118.710000
    reduced_to: 82
  - symbol: Sn # 92
    coordinates: [  0.333333333403922,  0.333333333279223,  0.333333333340403 ]
    mass: 118.710000
    reduced_to: 82
  - symbol: Sn # 93
    coordinates: [  0.666666666737255,  0.333333333279223,  0.333333333340403 ]
    mass: 118.710000
    reduced_to: 82
  - symbol: Sn # 94
    coordinates: [  0.000000000070589,  0.666666666612556,  0.333333333340403 ]
    mass: 118.710000
    reduced_to: 82
  - symbol: Sn # 95
    coordinates: [  0.333333333403922,  0.666666666612556,  0.333333333340403 ]
    mass: 118.710000
    reduced_to: 82
  - symbol: Sn # 96
    coordinates: [  0.666666666737255,  0.666666666612556,  0.333333333340403 ]
    mass: 118.710000
    reduced_to: 82
  - symbol: Sn # 97
    coordinates: [  0.000000000070589,  0.999999999945890,  0.333333333340403 ]
    mass: 118.710000
    reduced_to: 82
  - symbol: Sn # 98
    coordinates: [  0.333333333403922,  0.999999999945890,  0.333333333340403 ]
    mass: 118.710000
    reduced_to: 82
  - symbol: Sn # 99
    coordinates: [  0.666666666737255,  0.999999999945890,  0.333333333340403 ]
    mass: 118.710000
    reduced_to: 82
  - symbol: Sn # 100
    coordinates: [  0.000000000070589,  0.333333333279223,  0.666666666673736 ]
    mass: 118.710000
    reduced_to: 82
  - symbol: Sn # 101
    coordinates: [  0.333333333403922,  0.333333333279223,  0.666666666673736 ]
    mass: 118.710000
    reduced_to: 82
  - symbol: Sn # 102
    coordinates: [  0.666666666737255,  0.333333333279223,  0.666666666673736 ]
    mass: 118.710000
    reduced_to: 82
  - symbol: Sn # 103
    coordinates: [  0.000000000070589,  0.666666666612556,  0.666666666673736 ]
    mass: 118.710000
    reduced_to: 82
  - symbol: Sn # 104
    coordinates: [  0.333333333403922,  0.666666666612556,  0.666666666673736 ]
    mass: 118.710000
    reduced_to: 82
  - symbol: Sn # 105
    coordinates: [  0.666666666737255,  0.666666666612556,  0.666666666673736 ]
    mass: 118.710000
    reduced_to: 82
  - symbol: Sn # 106
    coordinates: [  0.000000000070589,  0.999999999945890,  0.666666666673736 ]
    mass: 118.710000
    reduced_to: 82
  - symbol: Sn # 107
    coordinates: [  0.333333333403922,  0.999999999945890,  0.666666666673736 ]
    mass: 118.710000
    reduced_to: 82
  - symbol: Sn # 108
    coordinates: [  0.666666666737255,  0.999999999945890,  0.666666666673736 ]
    mass: 118.710000
    reduced_to: 82

displacements:
- atom:    1
  displacement:
    [   0.0070710677851361,  0.0070710678385948,  0.0000000000000000 ]
  forces:
  - [  -0.0079700956121087, -0.0151177160441875,  0.0000005587935448 ]
  - [   0.0002982303267345, -0.0002028255257756,  0.0000001452863216 ]
  - [   0.0002877053339034, -0.0001998693333007, -0.0000000223517418 ]
  - [   0.0000250625307672,  0.0000078928133007,  0.0000010244548321 ]
  - [   0.0001700366265140,  0.0002436144568492,  0.0000002495944500 ]
  - [  -0.0001697707921267, -0.0000972828420345,  0.0000003911554813 ]
  - [   0.0000278515799437, -0.0000046498025768,  0.0000011958181858 ]
  - [  -0.0001727806811687, -0.0000978702446446,  0.0000008605420589 ]
  - [   0.0001786681532394,  0.0002507415192667,  0.0000008568167686 ]
  - [   0.0000284498783003,  0.0000294521450996, -0.0000048299843911 ]
  - [   0.0000013560638763, -0.0000708699226379,  0.0001708982163109 ]
  - [   0.0000035987450246, -0.0000718459486961, -0.0001739421131788 ]
  - [  -0.0000621960934950,  0.0000082068145275,  0.0001186516310554 ]
  - [   0.0000675179762766,  0.0000805072486401,  0.0000933067931328 ]
  - [  -0.0000331842893502, -0.0000192262232304, -0.0000064794730861 ]
  - [  -0.0000639420759398,  0.0000122740748338, -0.0001204572618008 ]
  - [  -0.0000345913576894, -0.0000194329331862,  0.0000084266066551 ]
  - [   0.0000681481178617,  0.0000814233499113, -0.0000909455120564 ]
  - [   0.0000272470842901,  0.0000285916030407,  0.0000045231281547 ]
  - [   0.0000001773005351, -0.0000719688832760, -0.0001717330305837 ]
  - [   0.0000032965854189, -0.0000723861157894,  0.0001743226894177 ]
  - [  -0.0000631161237834,  0.0000072643160820, -0.0001172784395749 ]
  - [   0.0000651127775200,  0.0000801831483841, -0.0000920259772101 ]
  - [  -0.0000326084445987, -0.0000200197100639,  0.0000090202229330 ]
  - [  -0.0000632623850834,  0.0000103317579487,  0.0001223087310791 ]
  - [  -0.0000346188026015, -0.0000214251340367, -0.0000077560544014 ]
  - [   0.0000678513169987,  0.0000784100411693,  0.0000928603112698 ]
  - [   0.0030903303995728,  0.0033688568510115,  0.0000000342261046 ]
  - [  -0.0002524582669139, -0.0005370017024688, -0.0000002672895789 ]
  - [   0.0000384406885132, -0.0000270597774943, -0.0000000456348062 ]
  - [  -0.0002534422092140, -0.0005313732544892,  0.0000007223425200 ]
  - [   0.0033071790821850,  0.0035838913172483,  0.0000011883676052 ]
  - [   0.0000379546545446, -0.0000299985476886,  0.0000012665987015 ]
  - [  -0.0000275745987892,  0.0000363989674952,  0.0000004714383977 ]
  - [  -0.0000264872796834,  0.0000361067941412,  0.0000003427267075 ]
  - [   0.0000554753933102,  0.0000533577986062,  0.0000003539025784 ]
  - [  -0.0002191988751292, -0.0001732046657708,  0.0002442382974550 ]
  - [   0.0002628201618791,  0.0002231986436527,  0.0000706876162440 ]
  - [   0.0000983411446214,  0.0000108752601591, -0.0000183557858691 ]
  - [   0.0002658055163920,  0.0002165405021515, -0.0000785905576777 ]
  - [  -0.0002201157622039, -0.0001772192190401, -0.0002472604683135 ]
  - [   0.0000986829400063,  0.0000073899282143,  0.0000218070781557 ]
  - [   0.0000088801607490,  0.0000970966502791, -0.0000241697998717 ]
  - [   0.0000091744586825,  0.0000974810827756,  0.0000251048913924 ]
  - [  -0.0000175153836608, -0.0000189254169527,  0.0000014182878658 ]
  - [  -0.0002196599962190, -0.0001721807639115, -0.0002432783367112 ]
  - [   0.0002647982910275,  0.0002244334173156, -0.0000691725872457 ]
  - [   0.0000987416133285,  0.0000127553385028,  0.0000218020286411 ]
  - [   0.0002650846727192,  0.0002165869082091,  0.0000780074915383 ]
  - [  -0.0002184771001339, -0.0001761438179528,  0.0002466147416271 ]
  - [   0.0000987029634416,  0.0000073373475971, -0.0000206435215659 ]
  - [   0.0000072391703725,  0.0000991628767224,  0.0000249570148299 ]
  - [   0.0000104513019323,  0.0000998372415779, -0.0000245994888246 ]
  - [  -0.0000170203857124, -0.0000138556242746,  0.0000007285125321 ]
  - [   0.0014483612030745, -0.0007656876696274, -0.0019654056522995 ]
  - [   0.0014954083599150, -0.0007906956598163,  0.0020434297621250 ]
  - [   0.0000379746779799, -0.0000552318524569, -0.0000008520437405 ]
  - [   0.0001841047778726, -0.0000929057132453,  0.0001110051816795 ]
  - [  -0.0001350147649646, -0.0002687077503651, -0.0002906910667662 ]
  - [   0.0000980398617685,  0.0000297233927995,  0.0000234891485889 ]
  - [  -0.0001378449378535, -0.0002575097605586,  0.0002748482802417 ]
  - [   0.0001833410933614, -0.0000903084874153, -0.0001130612799898 ]
  - [   0.0000987607054412,  0.0000282241962850, -0.0000281574612018 ]
  - [  -0.0000280593521893, -0.0000562240602449,  0.0000011756492313 ]
  - [  -0.0000276244245470, -0.0000561071792617,  0.0000007312337402 ]
  - [   0.0000551333650947,  0.0000144193181768, -0.0000007920898497 ]
  - [  -0.0000124658690766,  0.0000027343630791,  0.0000002406595740 ]
  - [   0.0000299634411931,  0.0000517664011568,  0.0000002919405233 ]
  - [  -0.0000177524052560, -0.0000082873739302, -0.0000022173917387 ]
  - [   0.0000289945164695,  0.0000523715279996, -0.0000019001308829 ]
  - [  -0.0000109085813165,  0.0000024045584723, -0.0000011048396118 ]
  - [  -0.0000176592729986, -0.0000089341774583, -0.0000020750158001 ]
  - [   0.0014479639939964, -0.0007666521705687,  0.0019649374298751 ]
  - [   0.0014950046315789, -0.0007929016137496, -0.0020440481603146 ]
  - [   0.0000379350967705, -0.0000569296535105, -0.0000009297896213 ]
  - [   0.0001829005777836, -0.0000930114183575, -0.0001128258372773 ]
  - [  -0.0001353290863335, -0.0002682826016098,  0.0002886747242883 ]
  - [   0.0000981716439128,  0.0000295982463285, -0.0000251897217822 ]
  - [  -0.0001395670697093, -0.0002581559820101, -0.0002773153537419 ]
  - [   0.0001832395792007, -0.0000907367793843,  0.0001104266120819 ]
  - [   0.0000983420759439,  0.0000275134807453,  0.0000239736909862 ]
  - [  -0.0000746978330426,  0.0002101774443872, -0.0000612131552771 ]
  - [  -0.0009082473115996,  0.0033346458803862, -0.0036949547939003 ]
  - [  -0.0004678076365963, -0.0002244037459604,  0.0003835327806883 ]
  - [   0.0000238900865952,  0.0000896577839740,  0.0000287548173219 ]
  - [  -0.0000485931523144, -0.0001938414643519, -0.0000002710098670 ]
  - [   0.0000261079985648,  0.0000911804963835, -0.0000332372692355 ]
  - [  -0.0004567464930005, -0.0002246163785458, -0.0003729679156095 ]
  - [  -0.0008712485432625,  0.0032880604267120,  0.0036155357956886 ]
  - [  -0.0000761533156037,  0.0002141678705812,  0.0000575329213461 ]
  - [  -0.0000755618602852,  0.0002094133524224,  0.0000591805437580 ]
  - [  -0.0009084214689210,  0.0033332407474518,  0.0036927065812051 ]
  - [  -0.0004682708531618, -0.0002253918210045, -0.0003848214983009 ]
  - [   0.0000230914647545,  0.0000900768791325, -0.0000309430761263 ]
  - [  -0.0000496588181704, -0.0001931932638399, -0.0000014120596461 ]
  - [   0.0000255960039794,  0.0000922757317312,  0.0000320350518450 ]
  - [  -0.0004571716708597, -0.0002239821478724,  0.0003705670824274 ]
  - [  -0.0008713491261005,  0.0032874671742320, -0.0036176375579089 ]
  - [  -0.0000766392331570,  0.0002142409794033, -0.0000591202988289 ]
  - [   0.0000093313847174, -0.0000221777008846,  0.0000022873282433 ]
  - [  -0.0000490329111926,  0.0000419345451519,  0.0000018707360141 ]
  - [   0.0000404524616897,  0.0000403922749683,  0.0000027173664421 ]
  - [  -0.0000056832132032, -0.0000175550812855,  0.0000017058337107 ]
  - [   0.0000101801706478, -0.0000810018973425,  0.0000009521609172 ]
  - [  -0.0000021217856556, -0.0000180170172825,  0.0000022093881853 ]
  - [   0.0000378464756068,  0.0000405791215599,  0.0000001284061000 ]
  - [  -0.0000492372782901,  0.0000422960147262, -0.0000001975568011 ]
  - [   0.0000124585349113, -0.0000228732824326,  0.0000008654315025 ]
- atom:   82
  displacement:
    [   0.0100000000000000,  0.0000000000000000,  0.0000000000000000 ]
  forces:
  - [  -0.0003831780632026,  0.0002756128669716, -0.0002741329371929 ]
  - [  -0.0003798340912908, -0.0002728521940298,  0.0002727881073952 ]
  - [  -0.0012578431051224, -0.0000034921831684,  0.0000041536986828 ]
  - [  -0.0003831150825135, -0.0002727198880166, -0.0002732947468758 ]
  - [  -0.0003807716420852,  0.0002731774584390,  0.0002730377018452 ]
  - [  -0.0012571488041431,  0.0000040852173697,  0.0000028088688850 ]
  - [   0.0000323356362060,  0.0000004361791071,  0.0000201463699341 ]
  - [   0.0000320865656249,  0.0000004379398888, -0.0000188015401363 ]
  - [  -0.0000694818663760,  0.0000003141467459,  0.0000017471611500 ]
  - [   0.0000345863918483, -0.0000187717378139,  0.0000000116415322 ]
  - [   0.0000346783490386,  0.0000202395021915, -0.0000003063178156 ]
  - [  -0.0000696660135873, -0.0000007785856724,  0.0000003961904440 ]
  - [   0.0000339888320013,  0.0000198073685169,  0.0000011412776075 ]
  - [   0.0000349463080056, -0.0000198222696781,  0.0000009899231372 ]
  - [  -0.0000695587223163,  0.0000016130506992,  0.0000017270795070 ]
  - [  -0.0000087492226157,  0.0000000807631295,  0.0000019334256649 ]
  - [  -0.0000086954096332,  0.0000003200839274,  0.0000001229345798 ]
  - [   0.0000137314900712,  0.0000008449424058,  0.0000016726553440 ]
  - [  -0.0003829968045466,  0.0002739541232586,  0.0002742550568655 ]
  - [  -0.0003806499880739, -0.0002731159329414, -0.0002731218119152 ]
  - [  -0.0012577277375385, -0.0000029988586903, -0.0000029407383408 ]
  - [  -0.0003827232285403, -0.0002745352685452,  0.0002748460683506 ]
  - [  -0.0003821121063083,  0.0002724602818489, -0.0002725881640799 ]
  - [  -0.0012569647515193,  0.0000011771917343, -0.0000007626367733 ]
  - [   0.0000333313946612, -0.0000018558057491, -0.0000192709267139 ]
  - [   0.0000328980968334, -0.0000014122924767,  0.0000199787318707 ]
  - [  -0.0000692943503964, -0.0000020849402063, -0.0000003986060619 ]
  - [  -0.0000058686127886,  0.0003117189917248, -0.0002282818313688 ]
  - [   0.0001284072641283,  0.0000005238584322, -0.0000003268942237 ]
  - [  -0.0000086433719844, -0.0003048599173781,  0.0002226992510259 ]
  - [   0.0047500170767307, -0.0000026239276849,  0.0052765347063541 ]
  - [  -0.0002726525999606, -0.0000015351743059,  0.0000002980232239 ]
  - [   0.0046204319223762, -0.0000028714102882, -0.0050638429820538 ]
  - [  -0.0000054072588682, -0.0003129497345071, -0.0002274536673212 ]
  - [   0.0001273530069739, -0.0000009936047718,  0.0000000372529030 ]
  - [  -0.0000092090340331,  0.0003039961447939,  0.0002233013510704 ]
  - [   0.0000118711031973, -0.0000431429907621,  0.0000005329493433 ]
  - [  -0.0000244132243097,  0.0000011726904177,  0.0000009194482118 ]
  - [   0.0000132056884468,  0.0000458638569398,  0.0000020395964384 ]
  - [   0.0000599138438702, -0.0000010923831724, -0.0000003772875061 ]
  - [  -0.0001177936792374, -0.0000012747477740,  0.0000000229047146 ]
  - [   0.0000584567897022, -0.0000014241377357,  0.0000017067504814 ]
  - [   0.0000131777487695,  0.0000433656896348,  0.0000011709780665 ]
  - [  -0.0000256048515439,  0.0000001087499868, -0.0000001838925527 ]
  - [   0.0000127879902720, -0.0000449537619716,  0.0000013476528693 ]
  - [  -0.0000074376584962,  0.0003138952888548,  0.0002289613476023 ]
  - [   0.0001295376569033,  0.0000026115326364,  0.0000009904615581 ]
  - [  -0.0000082077458501, -0.0003019598952960, -0.0002212799154222 ]
  - [   0.0047475621104240, -0.0000010879073216, -0.0052752913907170 ]
  - [  -0.0002728458493948, -0.0000002196412225, -0.0000001323351171 ]
  - [   0.0046207867562771, -0.0000017153963654,  0.0050648511387408 ]
  - [  -0.0000069104135036, -0.0003100054163951,  0.0002278076572111 ]
  - [   0.0001277206465602,  0.0000019028775569,  0.0000005783513188 ]
  - [  -0.0000088741071522,  0.0003103644703515, -0.0002222554758191 ]
  - [  -0.0000058423029259,  0.0002292782301083, -0.0003123136120848 ]
  - [   0.0001276652328670,  0.0000011024530977, -0.0000006959598977 ]
  - [  -0.0000086361542344, -0.0002217767760158,  0.0003045122139156 ]
  - [  -0.0000054212287068, -0.0002280076732859, -0.0003134942671750 ]
  - [   0.0001277187839150,  0.0000000557629392, -0.0000017447455321 ]
  - [  -0.0000089262612164,  0.0002244354691356,  0.0003042132302653 ]
  - [   0.0000134037109092,  0.0000004257308319,  0.0000417603005189 ]
  - [  -0.0000230781733990,  0.0000000357395038, -0.0000019953295123 ]
  - [   0.0000136387534440,  0.0000002867309377, -0.0000468207581434 ]