# Tetrahedron method
       -3.8518235736        0.0000000000
       -3.7716688089        0.0000000000
       -3.6915140442        0.0000000000
       -3.6113592794        0.0000000000
       -3.5312045147        0.0000000000
       -3.4510497499        0.0000000000
       -3.3708949852        0.0000000000
       -3.2907402205        0.0000000000
       -3.2105854557        0.0000000000
       -3.1304306910        0.0000000000
       -3.0502759262        0.0000000000
       -2.9701211615        0.0000000000
       -2.8899663968        0.0000000000
       -2.8098116320        0.0000000000
       -2.7296568673        0.0000000000
       -2.6495021025        0.0000000000
       -2.5693473378        0.0000000000
       -2.4891925731        0.3949112036
       -2.4090378083        0.3471451249
       -2.3288830436        0.3514094831
       -2.2487282788        0.3576799302
       -2.1685735141        0.3831232390
       -2.0884187494        0.4164274401
       -2.0082639846        0.7006288787
       -1.9281092199        0.8428922922
       -1.8479544551        0.6302227671
       -1.7677996904        0.5959690483
       -1.6876449257        0.5739986009
       -1.6074901609        0.5544494127
       -1.5273353962        0.5246793953
       -1.4471806314        0.4952403947
       -1.3670258667        0.4933511146
       -1.2868711019        0.4962483932
       -1.2067163372        0.5016292243
       -1.1265615725        0.5308786968
       -1.0464068077        0.6137334990
       -0.9662520430        0.4384489258
       -0.8860972782        0.3834688641
       -0.8059425135        0.3150945828
       -0.7257877488        0.2748120088
       -0.6456329840        0.2491788731
       -0.5654782193        0.2167785822
       -0.4853234545        0.2097391528
       -0.4051686898        0.2067872849
       -0.3250139251        0.3290701020
       -0.2448591603        0.4118649930
       -0.1647043956        0.3009076148
       -0.0845496308        0.2995772008
       -0.0043948661        0.3002669227
        0.0757598986        0.3130052876
        0.1559146634        0.3784056730
        0.2360694281        0.4796298092
        0.3162241929        0.5942922720
        0.3963789576        0.8697011438
        0.4765337223        1.2405661170
        0.5566884871        1.3746005404
        0.6368432518        1.4634261432
        0.7169980166        2.1127507518
        0.7971527813        1.9737088947
        0.8773075461        2.0609445137
        0.9574623108        2.1312916316
        1.0376170755        2.3100104414
        1.1177718403        2.6698656881
        1.1979266050        3.2587161279
        1.2780813698        3.7470030359
        1.3582361345        5.9031169554
        1.4383908992        4.6043394397
        1.5185456640        5.7588997342
        1.5987004287        7.1688868383
        1.6788551935        6.3559266402
        1.7590099582        6.7006241134
        1.8391647229        4.9897668542
        1.9193194877       12.2219133844
        1.9994742524        5.0804130972
        2.0796290172        7.2909510185
        2.1597837819        4.5935243684
        2.2399385466        5.4698257474
        2.3200933114        8.0944990035
        2.4002480761       12.2537997639
        2.4804028409        6.9244881145
        2.5605576056        6.9339193856
        2.6407123703        3.7522142485
        2.7208671351        8.5887631558
        2.8010218998       12.7363803465
        2.8811766646        2.7443569801
        2.9613314293        2.2228984971
        3.0414861941        1.0531825316
        3.1216409588        0.2835013350
        3.2017957235        0.2426161086
        3.2819504883        0.2072996885
        3.3621052530        1.5741596333
        3.4422600178        4.2813450191
        3.5224147825        1.8330195795
        3.6025695472        1.2121778283
        3.6827243120        0.9191164201
        3.7628790767        0.7289497777
        3.8430338415        0.0000000000
        3.9231886062        0.0000000000
        4.0033433709        0.0000000000
        4.0834981357        0.0000000000
        4.1636529004        0.0000000000
        4.2438076652        0.0000000000
        4.3239624299        0.0000000000
        4.4041171946        0.0000000000
        4.4842719594        0.1930970043
        4.5644267241        0.2835505441
        4.6445814889        0.2890650715
        4.7247362536        0.3158100468
        4.8048910183        0.3134876284
        4.8850457831        0.3324013347
        4.9652005478        0.3436829908
        5.0453553126        0.3653057526
        5.1255100773        0.4821036025
        5.2056648420        1.4997097498
        5.2858196068        1.1656702322
        5.3659743715        0.9749445232
        5.4461291363        1.1613472182
        5.5262839010        2.2303275718
        5.6064386658        2.3829323699
        5.6865934305        1.8471942920
        5.7667481952        2.1857638822
        5.8469029600        1.8504637194
        5.9270577247        1.9281620771
        6.0072124895        2.2888475338
        6.0873672542        2.9347512286
        6.1675220189        3.2016191144
        6.2476767837        3.5691334735
        6.3278315484        5.3688294607
        6.4079863132        3.6110854030
        6.4881410779        3.5861957444
        6.5682958426        4.2265962600
        6.6484506074        4.1045238039
        6.7286053721        7.5590614243
        6.8087601369        5.7237110848
        6.8889149016        5.7743180011
        6.9690696663        5.6191088355
        7.0492244311        5.5030306688
        7.1293791958        5.3805109026
        7.2095339606        4.2228906297
        7.2896887253        6.4932464780
        7.3698434900        4.9644710719
        7.4499982548        4.9710553827
        7.5301530195        6.8554852292
        7.6103077843        4.5236507968
        7.6904625490        3.5043515157
        7.7706173138        2.0395539745
        7.8507720785        1.7464175400
        7.9309268432        2.5185479606
        8.0110816080        3.2709225154
        8.0912363727        3.7637097929
        8.1713911375        3.4865199850
        8.2515459022        4.1260705449
        8.3317006669        3.7705548075
        8.4118554317        5.9710513800
        8.4920101964        6.3967501480
        8.5721649612        5.3515465834
        8.6523197259        3.3706531580
        8.7324744906        3.0878457913
        8.8126292554        3.2445899028
        8.8927840201        2.5377453813
        8.9729387849        2.2542564841
        9.0530935496        1.5977843283
        9.1332483143        1.9151921916
        9.2134030791        3.3980454070
        9.2935578438        4.3323653623
        9.3737126086        4.5850664039
        9.4538673733        3.3013329612
        9.5340221380        2.8928671043
        9.6141769028        3.0598070390
        9.6943316675        1.9916150318
        9.7744864323        0.7500824788
        9.8546411970        0.0000000000
        9.9347959618        0.0000000000
       10.0149507265        0.0000000000
       10.0951054912        0.0000000000
       10.1752602560        0.4370255061
       10.2554150207        0.5495367655
       10.3355697855        0.6785779929
       10.4157245502        1.5532481504
       10.4958793149        2.4322493966
       10.5760340797        3.2257115518
       10.6561888444        1.2446891738
       10.7363436092        0.9465059881
       10.8164983739        0.8033567073
       10.8966531386        0.0000000000
       10.9768079034        0.0000000000
       11.0569626681        0.0000000000
       11.1371174329        0.0000000000
       11.2172721976        0.0000000000
       11.2974269623        0.0000000000
       11.3775817271        0.0000000000
       11.4577364918        0.0000000000
       11.5378912566        0.0000000000
       11.6180460213        0.0000000000
       11.6982007860        0.0000000000
       11.7783555508        0.0000000000
       11.8585103155        0.0000000000
       11.9386650803        0.0000000000
       12.0188198450        0.0000000000
       12.0989746097        0.0000000000
       12.1791293745        0.0000000000
