3
Lattice="3.321424703694186 0.00011055618818756037 -1.2057733343905015 -0.43897324643042335 3.2952050268336026 -1.2070999267982152 -0.012104639699168453 -0.01429477201457238 5.141456306709099" Properties=species:S:1:pos:R:3:forces:R:3 structure_index=0 total_energy=-8.816600799560547 stress="-0.0545889288187027 0.027423584833741188 0.06510544568300247 0.027423519641160965 -0.05216238275170326 0.07843100279569626 0.06510570645332336 0.07843084633350372 0.09485522657632828" pbc="T T T"
Li       2.15656956       1.51174414       3.35125173      -0.01279948      -0.01480648      -0.02977452
Li       1.18023674       0.39583364       0.66982934       0.01233258       0.01397901       0.03101154
Sn      -0.21227045       2.60052408       2.01087065       0.00046691       0.00082746      -0.00123702
12
Lattice="4.492279228187876 -0.0040452568380391265 -0.6939996525688987 -0.10276431253388113 4.491788108694855 -0.6978217102324643 -0.08194718125385855 -0.0701228213834145 14.28136287927132" Properties=species:S:1:pos:R:3:forces:R:3 structure_index=1 total_energy=-41.8907585144043 stress="-0.002588138682767749 0.003733973251655698 0.007765821181237698 0.0037339606788009405 0.003029102459549904 0.006705909501761198 0.007765902206301689 0.006705845706164837 0.01281789317727089" pbc="T T T"
Li       2.69973694       2.09891577       1.09367134       0.00122174      -0.00125693      -0.00044485
Li       2.22257607       3.90925696      12.79585200      -0.00550473      -0.00210150      -0.03035469
Li       1.51199144       3.18420150       8.24179040       0.00030185      -0.00207147      -0.00801672
Li       0.80746942       2.45575335       3.67871589       0.00181555       0.00557638       0.02522895
Sn       1.93156306       1.31040330      10.94288070      -0.00330793      -0.00360102      -0.01058376
Sn       0.40484758       4.34399670       1.09297548      -0.00092904       0.00009921      -0.00417588
Sn       0.05107200       1.69798914      13.65037741       0.00264693      -0.00214032       0.01500555
Sn       3.81047798       0.93338909       8.23558948      -0.00054210      -0.00004165      -0.00339592
Sn       3.07437680       0.18349159       3.51178689       0.00028025      -0.00391793      -0.01299358
Sn       3.39332579       2.80451399       5.53141974       0.00492780       0.00527118       0.00998985
Sn       1.20833612       0.57046442       6.26235085      -0.00626529      -0.00580021      -0.00644282
Sn       4.11572950       3.54137546      10.18921860       0.00535498       0.00998428       0.02618389
6
Lattice="3.170174897810535 -0.0007334835997335177 4.9234037194782475e-05 0.001055609030983067 5.124055115546952 -1.2877446498742837 0.00014099108426350986 0.032387688115299317 7.790070342900384" Properties=species:S:1:pos:R:3:forces:R:3 structure_index=2 total_energy=-19.575572967529297 stress="0.012915056198835373 8.472685294691473e-06 0.0001161033142125234 8.488145795126911e-06 -0.0026649809442460537 0.002584222238510847 0.00011605000327108428 0.002584194066002965 0.030427582561969757" pbc="T T T"
Li       2.90384921       5.05197903       5.79738598       0.00007039       0.00923248      -0.02024338
Li       2.90285072       1.10665778       4.22332773       0.00025356       0.00322316      -0.00032421
Li       2.90212252       2.29460327       1.35845673       0.00052774      -0.00661323       0.02214867
Sn       1.31806448       2.47118540       6.51200165       0.00005453       0.01659430      -0.00525594
Sn       1.31847030       4.87855459       0.64445400      -0.00008231      -0.02047145       0.00731662
Sn       1.31918815       3.67250256       3.58124527      -0.00082390      -0.00196526      -0.00364175
6
Lattice="4.70321942584272 0.0006711460064056202 -0.0007144338380395125 -0.0008694940288461925 4.211062531225333 -2.1467219824751256 0.0016318998252427702 0.1101972424243598 5.410252357106477" Properties=species:S:1:pos:R:3:forces:R:3 structure_index=3 total_energy=-15.242060661315918 stress="-0.06398285925388336 0.0015926574124023318 0.0030539617873728275 0.0015924174804240465 0.061923183500766754 0.006045343354344368 0.0030538877472281456 0.006045282818377018 0.039127837866544724" pbc="T T T"
Li       3.31813218       0.79084743       2.77853794       0.00134326       0.00112861       0.00220145
Li       0.96671529       0.03277851       1.29591474       0.00113816       0.00732365       0.01178001
Li       3.31966370       3.57163273       3.03028827       0.00065009      -0.01004668      -0.02578432
Li       3.31960148       2.22244052       0.38240108       0.00023784       0.01001771       0.02517748
Li       0.96922325       1.54955329       4.26457471      -0.00137018      -0.00604290      -0.01326499
Sn       0.96857751       2.89760064       1.70662473      -0.00199918      -0.00238039      -0.00010963
18
Lattice="5.8378392710835065 -0.0021002996612477045 -2.429589426414109e-05 0.0033697739159985933 7.063407239336156 -1.731392446329759 0.00699455849630354 0.03151512394876589 8.035635506104338" Properties=species:S:1:pos:R:3:forces:R:3 structure_index=4 total_energy=-48.70100402832031 stress="-0.0015495475381612778 -0.0002736769965849817 0.00023226409393828362 -0.0002738715265877545 -0.0016500708879902959 0.0022369148209691048 0.0002323808439541608 0.0022369003854691982 0.000947864493355155" pbc="T T T"
Li       0.59947543       6.38461146       6.46239358       0.00609716       0.00266100      -0.01124009
Li       0.66847822       3.84845686       2.40629812      -0.00657513      -0.01743091      -0.00253822
Li       3.59110316       1.69630876       6.71559939      -0.00156359      -0.00055348      -0.00041883
Li       5.04536184       4.01161762      -0.05767115      -0.00040930       0.00971864       0.00716384
Li       2.13102503       6.41391845       3.72152834      -0.00018810      -0.01073913      -0.00712558
Li       2.12275037       1.77634544       1.25100984      -0.00236165      -0.01052051      -0.00381975
Li       3.58913252       6.57558028       1.25737911      -0.00463985       0.01682577       0.00200469
Li       0.74637427       4.07268436       5.23507396      -0.00780793      -0.00043405       0.01141413
Li       0.66931808       6.57747307       1.25632787       0.00643757       0.01704566       0.00227717
Li       0.67117889       1.69843039       6.71453482       0.00040963      -0.00100488       0.00137486
Li       3.52294777       4.07055190       5.23764543       0.00766770      -0.00181295       0.00998321
Li       5.05011962       1.58317108       4.14302067       0.00026487       0.01167714       0.00442471
Li       3.58516159       3.84809739       2.40640262       0.00616233      -0.01659076      -0.00255526
Li       3.66001140       6.38442873       6.46210326      -0.00657814       0.00260339      -0.01211826
Sn       5.03858405       1.44022164       1.32903527       0.00217533       0.03075869      -0.02243709
Sn       2.13266876       1.91996927       4.06575182       0.00173505      -0.03055349       0.02071511
Sn       5.04981915       6.02773138       3.85573180      -0.00000446       0.01881833      -0.03634106
Sn       2.12641130       4.39657040      -0.19373974      -0.00082152      -0.02046846       0.03923639
10
Lattice="5.253195358736176 0.01638529520801428 1.8636581315222303 1.9162223940109673 4.981512632530035 2.0934038470422793 -0.16216877545614114 0.10776993028485811 8.221129566702333" Properties=species:S:1:pos:R:3:forces:R:3 structure_index=5 total_energy=-32.347557067871094 stress="-0.021911300718784332 0.0006270596641115844 0.020835088565945625 0.0006271261372603476 -0.018671123310923576 -0.014139508828520775 0.020835157483816147 -0.014139503240585327 -0.010305228643119335" pbc="T T T"
Li       6.34619916       3.76584587       4.25131627      -0.00599690       0.00464545       0.00726611
Li       1.70244432       1.24812009       6.14790099       0.00324687       0.00026039      -0.01347705
Li       3.75828072       1.35850931       8.57604978       0.00566981      -0.00482771      -0.00842017
Li       4.88274267       1.17739750       5.56207517       0.02151430       0.01787321       0.00094480
Li       3.14093343       3.68078532       4.82765960      -0.03118345      -0.01019926       0.00558832
Sn       2.00622462       3.80578845       7.66344250      -0.00888409      -0.02481567       0.00173079
Sn       4.06549088       3.86154974      10.14296200      -0.00303093      -0.01513872       0.00993336
Sn       5.21649296       3.64124507       7.10014232      -0.03524914       0.03367419       0.00847777
Sn       0.76353012       1.23355911       0.87047964       0.01550371      -0.00563052       0.00757423
Sn       2.80258553       1.20808695       3.28283490       0.03840983       0.00415865      -0.01961815
5
Lattice="4.463618758004088 -0.00038132349766256294 0.00808643958212248 -2.229315058973759 4.427511557051253 -0.6610139444991435 -0.008665894378533696 0.14624633318354058 5.7319867525912445" Properties=species:S:1:pos:R:3:forces:R:3 structure_index=6 total_energy=-15.134634017944336 stress="0.04665539413690567 0.004511462990194559 0.009758533909916878 0.004511427599936724 0.03786677122116089 0.0346655547618866 0.009758515283465385 0.03466557711362839 -0.019531235098838806" pbc="T T T"
Li       2.29638418       1.19589531       1.23663505      -0.00029372       0.00046363       0.00045715
Li      -2.17224212       4.48280176       4.51618930       0.00081435      -0.04552906      -0.00725651
Li       0.06351655       2.48133068       3.02315289      -0.00115195       0.04696620       0.00696244
Sn       2.29704774       4.06166486       1.69781901      -0.00177853      -0.02863146       0.00545347
Sn       0.06598709       2.75789410       0.11748689       0.00240985       0.02673071      -0.00561655
10
Lattice="4.300725306343232 0.0031852437533450143 -1.2081032653948065 -0.31080286285029046 5.882710264010021 -1.087545438775431 -0.07773003057009224 0.1066806645753322 7.982899508553559" Properties=species:S:1:pos:R:3:forces:R:3 structure_index=7 total_energy=-30.75790786743164 stress="-0.03300166502594948 -0.0025914772413671017 0.011953319422900677 -0.002591489814221859 0.00497061712667346 -0.006864374969154596 0.01195327565073967 -0.006864374969154596 0.007121462374925613" pbc="T T T"
Li       2.91150399       2.56038612      -0.06421276       0.00119590       0.01176332       0.00320373
Li       1.91675460       5.10437053       4.65800717       0.00063014       0.00934531       0.00288045
Li       3.89778958       0.41347067       3.43482443      -0.00088245      -0.00919620      -0.00319239
Li       0.20160126       3.85667771       6.81191337       0.00089949      -0.00909564       0.00077345
Li       1.25465241       1.48711146       2.28936129      -0.00027821      -0.00057076      -0.00018142
Li       1.09930394       4.42887751       1.74832387      -0.00087294      -0.00067447      -0.00282025
Sn       0.42611356       0.90532885       7.60021825       0.01214984      -0.01798855       0.04217859
Sn       2.80407864       5.47923866      -0.43751211      -0.00206011      -0.00432396      -0.00852282
Sn       3.69383143       3.37885829       2.71931388       0.00299939       0.00333345       0.00985466
Sn       2.00575234       2.17325450       4.96159847      -0.01378105       0.01740749      -0.04417401
7
Lattice="4.684814767189378 -0.00990008064602181 0.006184034131430712 -2.3359758990343313 3.7737978248914885 -1.514488090417379 -0.0030196723587229183 -0.010501891579331788 7.224678789093155" Properties=species:S:1:pos:R:3:forces:R:3 structure_index=8 total_energy=-20.285009384155273 stress="-0.03359993174672127 -0.015066834166646004 -0.001376575673930347 -0.015067083761096 -0.017422201111912727 0.009029997512698174 -0.0013761918526142836 0.00903012603521347 0.013099459931254387" pbc="T T T"
Li       1.08117821       3.67505911       1.75238183      -0.00343796       0.01039837       0.03679638
Li       1.07234159       1.50965190       3.63846183       0.00106095       0.00133486       0.00086822
Li       1.07470180       2.61562210      -0.85269869       0.00219394       0.01842511       0.02902201
Li      -1.27089826       3.12053608       4.01241762       0.00347041      -0.01155357      -0.03772469
Li       1.07596552       0.41617466       0.90590087      -0.00289982      -0.01803889      -0.02805422
Sn      -1.26310579       2.07238386       1.37767733      -0.00410766      -0.00469593       0.00338518
Sn       3.41013546       0.94944709       5.90154810       0.00372015       0.00413005      -0.00429287
10
Lattice="5.217328876405458 0.00927074006889409 1.8800500054709415 2.592218762875956 5.45164225562472 0.9373546910874021 0.024786224490909715 0.005493637016418093 8.110795709676546" Properties=species:S:1:pos:R:3:forces:R:3 structure_index=9 total_energy=-33.90835189819336 stress="-0.030864741653203964 -0.0049170395359396935 -0.01141836866736412 -0.004916992038488388 -0.0006955363205634058 -0.002162117278203368 -0.011418390087783337 -0.002162156393751502 -0.008127628825604916" pbc="T T T"
Li       2.89032082       3.31649661       8.20739895      -0.02446191       0.00011382       0.01744729
Li       5.47965740       1.13966956       5.09410418      -0.02572728       0.00844242       0.01984173
Li       6.00194471       3.86620636       7.72481893      -0.00945904       0.00700835      -0.03198759
Li       3.38116698       0.59143235       2.73496941       0.00230297       0.00014177      -0.02486411
Sn       4.69505189       0.86488889       8.06741267       0.00676429       0.00394707      -0.00927434
Sn       2.07009062       3.58457451       3.05719892      -0.00147428       0.00088705       0.00026906
Sn       4.04785218       4.15331098       5.44286550       0.02140606      -0.00221725       0.01812051
Sn       2.52843548       1.42866604       5.60392842       0.01611527      -0.00635408       0.00416523
Sn       1.47073148       0.31101467       8.57396266       0.00953840      -0.01243850      -0.00255768
Sn       5.12966326       3.03103770       2.48364214       0.00499550       0.00046935       0.00883991
5
Lattice="4.205575246343351 -0.0003562358833681405 2.0394531828459264 1.6101696788568103 3.8869595845626588 2.037498158471104 -0.02162035093700959 -0.014090746586288325 5.401774176838894" Properties=species:S:1:pos:R:3:forces:R:3 structure_index=10 total_energy=-13.386067390441895 stress="-0.05018787458539009 -0.004610746633261442 0.022314604371786118 -0.004610753618180752 -0.03770747780799866 0.011451495811343193 0.02231447584927082 0.011451584286987782 -0.0843752771615982" pbc="T T T"
Li       1.95098443       0.88860756       2.68534551       0.00797556       0.00248550      -0.02034379
Li       4.29238088       2.45200967       3.21224743      -0.00994018      -0.00701769       0.01587232
Li       3.02232766       1.60197484       5.82774558       0.00817355       0.00652552      -0.01505875
Li       5.36416975       3.16753081       6.35637340      -0.00921335      -0.00510013       0.01961255
Sn       0.73758787       0.07571349       5.18287269       0.00300442       0.00310681      -0.00008229
12
Lattice="4.375746891325261 0.0005757620201277545 -0.6727992896303991 -0.10831724270191326 4.449895546772861 -0.7000758026565004 -0.08117901615297793 -0.07210179335594105 14.02338094449264" Properties=species:S:1:pos:R:3:forces:R:3 structure_index=11 total_energy=-40.48097610473633 stress="-0.022856807336211205 0.00036891933996230364 0.002301412634551525 0.00036892705247737467 -0.02648693323135376 0.0025903102941811085 0.0023013511672616005 0.002590398071333766 -0.013562165200710297" pbc="T T T"
Li       3.30755992       1.78654541       8.73493116       0.00153892       0.00000937       0.00638608
Li       0.37828431       3.28409546       4.24076171      -0.00138443      -0.00318880      -0.01512946
Li       0.10608810       0.71376758       2.46084933       0.00199575       0.00232401       0.01018540
Li       2.90587972       3.64271264       6.12062549       0.00069706       0.00141265       0.00481827
Li       4.09571231       2.59391153      -0.71948573       0.00070627      -0.00003283       0.00328649
Sn       1.03540141       3.97688116       8.52268362      -0.00063211      -0.00017218      -0.01075661
Sn       2.24876486       2.94910146       1.83051593       0.00027455       0.00024438       0.00662494
Sn       1.97110267       0.37687470       0.02526855       0.00569277       0.00663957       0.03900055
Sn       3.59331931       4.36328109      10.56895612       0.00534550       0.00445006       0.04534407
Sn       2.63390282       1.06990738       4.33323546      -0.00886116      -0.00396875      -0.04042838
Sn       1.47703298       2.15481990      11.37341642      -0.00695374      -0.00493794      -0.04796411
Sn       0.76657073       1.41444751       6.77332998       0.00158062      -0.00277951      -0.00136724
10
Lattice="4.543576674466166 -0.009250129284565818 -1.1579160281606455 0.008661820290005576 4.590453477565672 0.006316077229083954 0.001441731820094014 -0.012286720080116666 9.513355131915127" Properties=species:S:1:pos:R:3:forces:R:3 structure_index=12 total_energy=-30.785324096679688 stress="0.033042896538972855 -0.0034110653214156628 -0.016950925812125206 -0.003411084646359086 0.03197025507688522 0.0006915240664966404 -0.01695086993277073 0.0006915545091032982 -0.02066485956311226" pbc="T T T"
Li       3.14274037       0.48047483       3.43958063      -0.00369128      -0.00024221      -0.01244278
Li       1.78595601       2.77312129       7.61279317      -0.00395249      -0.00054697      -0.02207227
Li       0.88069965       2.77776488       4.06270120       0.00339762       0.00072286       0.00435846
Li       2.24687276       0.48691422      -0.08029430       0.00136121      -0.00020616       0.01088646
Li       3.60908307       2.77264757       5.26656017       0.00418173      -0.00128533       0.02005123
Li       4.51222282       2.77719679      -0.69645055      -0.00273442      -0.00000398      -0.00617406
Sn       2.69665440       2.77888168       1.68592171       0.00067240      -0.00063684      -0.00504806
Sn       0.42129032       0.48690497       2.25311323       0.00157886       0.00036053       0.00847646
Sn       1.32113924       0.47975859       5.79030417       0.01026073       0.00161286       0.04693586
Sn       4.06830234       0.47333278       7.08190866      -0.01107436       0.00022523      -0.04497131
9
Lattice="4.168562326537949 0.002990823699051637 1.3703772981614721 2.0390237065590306 6.769379776040072 0.8041591361890602 -0.031688539196148405 -0.07617943965758325 7.115627903120163" Properties=species:S:1:pos:R:3:forces:R:3 structure_index=13 total_energy=-29.914161682128906 stress="0.03225850686430931 -0.011784257367253304 0.012635779567062855 -0.011784299276769161 -0.012224812991917133 0.032912179827690125 0.012635715305805206 0.03291214257478714 -0.006004787515848875" pbc="T T T"
Li       5.79210537       6.17153144       6.72690164       0.00325447      -0.00413551      -0.00658949
Li       4.44027482       1.68177468       3.82408451       0.00307096      -0.00829231      -0.00497107
Li       3.73569189       3.87591089       5.97097801      -0.00365651       0.00460302       0.00817703
Li       3.04629575       1.59731537       8.07308548      -0.00212279       0.00791625       0.00456930
Sn       2.33559412       3.87736637       3.19725535      -0.00509056      -0.01975383       0.01998375
Sn       4.39407572       6.24961054       3.95471077       0.00150352      -0.00204242      -0.00199328
Sn       3.02234635       6.16579210       8.13258932       0.00488751       0.02333477      -0.01913321
Sn       5.13210095       3.80066088       8.74675494      -0.00114546      -0.00084943       0.00071448
Sn       1.66003553       1.63852049       5.26395315      -0.00070115      -0.00078055      -0.00075752
7
Lattice="4.438452264665069 -0.00122343308995499 -0.7921184116610346 -0.0984046929714082 3.121689660113657 -0.5562103717310084 -0.4163826766051984 0.24604820725179477 10.496419754035047" Properties=species:S:1:pos:R:3:forces:R:3 structure_index=14 total_energy=-21.65781021118164 stress="0.008493183180689812 0.0019422806799411774 0.004891839809715748 0.0019422557670623064 -0.0231089498847723 0.0109205087646842 0.00489186542108655 0.010920551605522633 0.03494841232895851" pbc="T T T"
Li       2.58401275       1.94647592      -0.65117848      -0.00563534      -0.00610862      -0.03335561
Li       1.70278452       1.71356412       7.23890105       0.00601720       0.00611869       0.03329723
Li       3.60471242       2.99723451       5.06034582       0.00003769       0.00011413       0.00075251
Li       0.68311357       0.66274202       1.52726306      -0.00008634      -0.00011903      -0.00076018
Sn      -0.23474594       0.39284605       9.21632402      -0.00006323      -0.00003557      -0.00018326
Sn       3.07899042       2.45514363       2.11566427       0.00257777       0.00280190       0.01542447
Sn       1.20940752       1.20478606       4.47160118      -0.00284774      -0.00277149      -0.01517516
20
Lattice="6.211637544833745 -0.011908297443810686 -0.7521537212171491 -0.02105568244537339 6.21139105986731 -0.749390979735128 -0.03968021167812317 -0.04483819647453258 11.195706492298811" Properties=species:S:1:pos:R:3:forces:R:3 structure_index=15 total_energy=-64.75816345214844 stress="0.00010177685908274725 0.0019808488432317972 0.0011309677502140403 0.001980873756110668 -0.0005764455418102443 0.0012461224105209112 0.00113107287324965 0.001246100291609764 0.006048127077519894" pbc="T T T"
Li       0.01104675       0.15666276       9.78000270       0.00547083       0.00828634       0.00889930
Li       4.34206566       1.38890593       6.83638770       0.00115101       0.00276750       0.00968546
Li       1.24014476       1.43772382       7.24329391       0.00100071       0.01004539       0.01438754
Li       3.71841755       3.82313122       2.08433145       0.00731687      -0.00445798      -0.01901220
Li       3.09357679       3.27460882       9.03390048       0.00704010       0.00349988       0.00549843
Li       2.39473002       5.67946845       4.25274175      -0.00805169      -0.00855269      -0.00677056
Li       4.94444815       5.10598626      -0.55806225      -0.00382757       0.00611063      -0.00458054
Li       1.83516968       2.01661800       0.19124653       0.00674084      -0.00247872      -0.00381051
Li       0.55681103       0.79032451       2.82894471      -0.00515841       0.00774237      -0.01618173
Li       4.36995130       4.50015668       6.49317659       0.01053178       0.00178706       0.01443187
Sn       2.47886297       2.60126088       4.71650388      -0.01053664      -0.01218745      -0.00267854
Sn       1.32633748       4.60645320       6.89270358      -0.00578627      -0.00582112      -0.00250804
Sn       4.97350578       2.03228682      -0.08957487      -0.00909565      -0.01072661      -0.00028664
Sn       6.15126272       3.20349488       8.52282807      -0.00104562      -0.00032178      -0.01647369
Sn       3.63056937       0.68690394       2.42532164       0.01377615       0.01199809      -0.00246982
Sn       5.52822949       5.73977996       3.96198427      -0.01026325      -0.00357690      -0.00098616
Sn       5.55204478       2.60494248       4.30043871      -0.00977731      -0.01309802       0.00026381
Sn       1.82381791       5.10985651      -0.18372181       0.01876168       0.01739123       0.00252215
Sn       0.63636623       3.91982865       2.43739928      -0.01334068      -0.01514993       0.00943600
Sn       3.15145367       0.19943949       9.26239418       0.00509317       0.00674270       0.01063387
4
Lattice="4.234522913118716 0.0002511344288932152 -1.8576982490562166 -0.8168701551729436 4.154418803357558 -1.8567250732642002 -0.003023404354682676 -0.003915926158888937 5.741131680744703" Properties=species:S:1:pos:R:3:forces:R:3 structure_index=16 total_energy=-14.43832015991211 stress="-0.032187458127737045 0.010938111692667007 0.0231510978192091 0.010938126593828201 -0.028837284073233604 0.029671207070350647 0.02315116673707962 0.02967119961977005 -0.0017060581594705582" pbc="T T T"
Li       0.90383095       0.64894491       2.72138217       0.00079006       0.00106560       0.00159520
Sn       3.87814742       1.69179121      -2.00531664      -0.00050707      -0.00115891      -0.00009335
Sn       1.35198197       3.76872321      -2.00424344      -0.00003614      -0.00056355      -0.00092276
Sn       2.61355128       2.72698749       0.86595814      -0.00024685       0.00065684      -0.00057908
5
Lattice="4.355941068606591 -0.0007703031747149337 1.9024982352788702 1.7609899527671793 3.983990508671782 1.9030253416169995 0.0642123584683318 0.040423346387728216 5.781448664969262" Properties=species:S:1:pos:R:3:forces:R:3 structure_index=17 total_energy=-15.378558158874512 stress="0.051103442907333374 -0.0027713999152183533 0.007034517824649811 -0.002771256258711219 0.0530848354101181 0.004023893736302853 0.0070342724211514 0.004023980349302292 0.03543896600604057" pbc="T T T"
Li       2.79798176       2.93799545       7.69753230       0.00561407       0.00398469      -0.01363963
Li       3.96520708       3.69971013       5.02913780       0.00027615       0.00003702      -0.00179606
Li       3.43647574       0.51622615       6.23661093      -0.00618473      -0.00324181       0.01388259
Sn       4.64969148       1.30829418       3.46608635      -0.01822561      -0.01239139       0.04171886
Sn       1.52026388       2.10684850       4.68625476       0.01852011       0.01161148      -0.04016576
5
Lattice="4.109351248510226 0.010023242869823987 1.7047136527564204 1.9382377142707863 4.688562257489964 1.101325199637573 0.19349092953366395 0.020762537774339746 5.337885467879019" Properties=species:S:1:pos:R:3:forces:R:3 structure_index=18 total_energy=-15.41915225982666 stress="-0.012457117438316345 -0.0006957043660804629 -0.01435949094593525 -0.0006956420838832855 0.030883025377988815 -0.003964692819863558 -0.014359655790030956 -0.003964769188314676 0.007400061469525099" pbc="T T T"
Li       1.80778503       1.68339507       4.30682572       0.00024056      -0.00014333       0.00118201
Li       2.98619715       0.71086262       1.47220285       0.00647233       0.04600150      -0.01307700
Li       4.54518261       2.64773983       3.51290513      -0.00583806      -0.04731479       0.01067862
Sn       2.12959648       4.53166792       3.50974237       0.01580412      -0.01960555      -0.03234125
Sn       3.42522259       3.52420548       6.20696461      -0.01667896       0.02106218       0.03355761
7
Lattice="4.466197356443099 -0.0009877949898104432 -0.760921314937421 -0.09392866102287699 3.2723506987359015 -0.5557007873451424 -0.28073217267596234 0.32173014449751797 11.84363318459482" Properties=species:S:1:pos:R:3:forces:R:3 structure_index=19 total_energy=-24.521461486816406 stress="-0.012943114154040813 0.002249055774882436 0.008496792986989021 0.0022490592673420906 -0.04232216998934746 0.013286125846207142 0.008496806025505066 0.013286199420690536 0.03640913963317871" pbc="T T T"
Li       1.05543775       1.39862219       9.43673934      -0.00021344      -0.00021572      -0.00154857
Li       2.92298647       2.70748214       6.91293279       0.00066381       0.00051056       0.00334934
Sn       0.55062798       0.88046433       6.47907029       0.00489134       0.00504580       0.02893897
Sn       1.81748216       1.57191625       0.41512959       0.00069057       0.00099310       0.00504072
Sn      -0.05708254       0.25669118       2.91002839       0.00023848       0.00014770       0.00089068
Sn       2.44190356       2.21376920       4.09391799      -0.00106577      -0.00140918      -0.00772294
Sn       3.42823069       3.22595915       9.87162053      -0.00520501      -0.00507227      -0.02894820
5
Lattice="3.4609585709254787 -0.0006652165418279747 -0.8265317782328346 -0.1968424885692075 3.456160553068856 -0.8276360803989289 0.13758781153124638 0.1465029725255092 8.236183144582697" Properties=species:S:1:pos:R:3:forces:R:3 structure_index=20 total_energy=-15.30527114868164 stress="0.036924343556165695 0.0003560828627087176 0.0003462275490164757 0.0003561532648745924 0.03605111315846443 -0.00043037018622271717 0.00034624856198206544 -0.0004304558096919209 0.0363466739654541" pbc="T T T"
Li       3.37857155       0.39155473      -0.86561629       0.00300068       0.00287232       0.00900826
Li       2.62165577       3.25493413       3.61694609      -0.00001791       0.00002533       0.00301724
Li       1.92363841       2.51569759       0.69599445      -0.00333887      -0.00338557      -0.00982228
Sn       0.61929726       1.13515021       2.90044160      -0.00688156      -0.00747294      -0.03612497
Sn       1.35940796       1.91884136       5.99253434       0.00723766       0.00796085       0.03392176
12
Lattice="4.59362019633766 0.0017740637987342155 -0.00226168918578361 -0.0021822100963478147 6.447016165331861 0.0011640172373013737 0.005567194738027941 0.001507856882925533 9.636941558777309" Properties=species:S:1:pos:R:3:forces:R:3 structure_index=21 total_energy=-41.95758056640625 stress="-0.006455467082560062 0.00012583049829117954 0.0003403994196560234 0.00012579612666741014 0.022023487836122513 8.221335156122223e-05 0.00034032523399218917 8.230536332121119e-05 -0.013604267500340939" pbc="T T T"
Li       0.52921231       0.14483802       8.42453252      -0.00026218       0.02338922      -0.03501733
Li       2.81907291       4.72773488       0.58775027       0.00041087      -0.02284796       0.04136259
Li       0.52605994       3.36558440       5.40829967      -0.00041724       0.02167101       0.04055154
Li       2.82137966       1.49725954       3.60855122       0.00056436      -0.02247020      -0.03835211
Sn       2.82278245       1.77637956       6.78385111       0.00113212      -0.03341464       0.02476870