9
Lattice="3.2886195301923657 0.0003459410342897077 0.0006386009815975071 0.0005361514820727819 7.118392945849702 -4.1121742129493235 -0.0007265893474314257 0.002066693652772903 8.215746136047354" Properties=species:S:1:pos:R:3:forces:R:3 structure_index=0 total_energy=-27.496612548828125 stress="-0.023278970271348953 -0.0004337483551353216 0.00042201869655400515 -0.0004337390710134059 0.0008444144041277468 0.00014788942644372582 0.00042197605944238603 0.00014778392505832016 0.003038153052330017" pbc="T T T"
Li       2.49219710       1.24977464       1.38026248      -0.00009032       0.00197388       0.00002588
Li       2.49187486       3.11214688       5.48804926      -0.00021301      -0.00775675      -0.00409646
Li       2.49236613       5.73900657       1.82139938      -0.00009482       0.00195986       0.00211090
Ga       0.84795070       3.61054414       0.01746743      -0.00127847      -0.04025860       0.02208485
Ga       0.84569924       0.74735941       4.11934459      -0.00021147       0.03577223       0.02610768
Ga       0.84709798       5.74218912       4.54683339      -0.00085568       0.00571589      -0.04806346
Sn       2.48971021       5.73397977      -1.21523838       0.00275274       0.01174974       0.00776643
Sn       0.84785660       0.99605862       7.00327087      -0.00042572      -0.00415636      -0.00352190
Sn       0.84740857       3.36915368       2.89787797       0.00041672      -0.00499994      -0.00241390
18
Lattice="6.481273230562733 0.0439724837408718 2.7985764525843266 0.3075951013114955 6.584382126928151 2.7634280927587724 0.008662425094413596 0.11017210497486248 8.044023919210193" Properties=species:S:1:pos:R:3:forces:R:3 structure_index=1 total_energy=-51.87560272216797 stress="-4.291831282898784e-05 -0.00011118870315840468 6.817240500822663e-05 -0.00011131817154819146 -0.0008772691944614053 -0.00022956485918257385 6.808317266404629e-05 -0.00022950187849346548 -0.0020390416029840708" pbc="T T T"
Li       4.60921864       5.99987115      10.20186220      -0.00307219       0.02376360      -0.01931823
Li       6.23169320       4.23766802       5.89462209      -0.00319992      -0.00974728      -0.00030936
Li       0.05151766       1.66595367       4.54966774      -0.00394094      -0.00066785       0.00502924
Li       3.89494617       1.99091266       9.20006882      -0.00113059      -0.00800877      -0.00770576
Li       1.41171366       2.56758492       7.37883018       0.00560999      -0.01315132      -0.00868105
Li       5.58832928       0.11637761       4.64269392       0.00795772      -0.00949335       0.00960430
Li       2.18960193       3.84854110       4.69884027      -0.01033838       0.00167308       0.00830041
Ga       2.06827338       6.55058181      11.46536438       0.00276624      -0.00493472       0.02391710
Ga       3.79612129       4.64162189       7.38593837       0.00894146       0.00631384       0.00978204
Ga       2.24699887       4.52108576       9.68678411       0.00973981       0.00471562       0.00026006
Ga       1.12188381       2.07431784       2.04159814      -0.01432026      -0.01209362      -0.02083715
Ga       2.83913382       1.06996734       3.80574844       0.02002545      -0.01552726      -0.00835685
Ga       6.26976153       0.26136319       9.69682107      -0.00255746      -0.01029937       0.00488340
Ga       5.96030794       3.92855311       8.70055919      -0.00776023       0.02973280       0.01584359
Ga       4.18847397       5.78181999       4.91931628      -0.00467881      -0.00271774      -0.01387705
Sn       1.12224875       5.62611703       7.23916111      -0.01837173      -0.02513460       0.03938884
Sn       5.14639314       3.18064034       3.44622962      -0.00502958       0.01014290      -0.01439007
Sn       3.95570957       1.96611254       6.22850212       0.01935940       0.03543410      -0.02353344
6
Lattice="4.5144250584457115 -0.019406921648941353 0.005768997818215719 -2.1585221763494236 3.9644049871699987 0.012924982575216792 -0.015462115956284685 -0.042895297252305856 7.303492121072851" Properties=species:S:1:pos:R:3:forces:R:3 structure_index=2 total_energy=-18.395648956298828 stress="0.017865696921944618 -0.0036694558802992105 -0.006734946276992559 -0.003669425379484892 0.013900493271648884 -0.02104872651398182 -0.006734970025718212 -0.021048592403531075 0.015803592279553413" pbc="T T T"
Li      -0.51328921       1.94728445       2.19715511      -0.01149590       0.00551288       0.00112395
Li      -0.41977160       1.86672147       5.83584543       0.00410318      -0.00359402       0.00075531
Ga       1.83689449       3.18368743       7.16644074       0.00363824      -0.00569078       0.00827188
Ga       1.84491001       3.19860647       4.53687094       0.00358023       0.00222768      -0.01191513
Sn       1.75686213       0.58142874       3.69726449      -0.00254846      -0.00333639       0.01492367
Sn       1.76054681       0.59915299       0.67943944       0.00272272       0.00488063      -0.01315969
5
Lattice="3.2966026366508667 0.002953540055083928 0.4508140581400956 1.6166820912720257 2.8730586363956765 0.45252651364904467 0.03018266798431179 0.013467920996183593 11.914439600143204" Properties=species:S:1:pos:R:3:forces:R:3 structure_index=3 total_energy=-15.081181526184082 stress="-0.04328032582998276 0.00018554212874732912 -0.0021276480983942747 0.00018555604037828743 -0.04339082911610603 -0.0016332503873854876 -0.0021271135192364454 -0.0016331339720636606 -0.023047009482979774" pbc="T T T"
Li       1.19016618       0.36990849       7.42491713       0.00513300       0.00379850      -0.03680369
Li       3.43470697       1.68681669       3.32132598      -0.00967982      -0.00540357       0.04824590
Ga       3.80320165       1.90260306       0.71120530       0.00336664       0.00167543      -0.00341338
Sn       2.50800545       1.14179179      10.03856534       0.00589317       0.00287303      -0.03930406
Sn       1.47606183       2.46562048       5.35460628      -0.00471294      -0.00294339       0.03127521
11
Lattice="4.539835171030141 0.003025617208767433 0.0008876716694893209 -2.2728323125799488 3.92943518264002 -0.00020624071431527807 -0.0028266874855140335 -0.0012888286860809218 12.309466452563706" Properties=species:S:1:pos:R:3:forces:R:3 structure_index=4 total_energy=-32.649658203125 stress="0.021777261048555374 1.934343708853703e-05 -6.164878868730739e-05 1.9386612621019594e-05 0.021668730303645134 7.663641008548439e-05 -6.173896690597758e-05 7.640138937858865e-05 0.02737044356763363" pbc="T T T"
Li      -1.72453306       3.07049787       4.08959591       0.00022319      -0.00017211       0.00562118
Li      -1.72460352       3.07098980       6.99716629      -0.00076398      -0.00029747       0.00950333
Li      -1.72324939       3.06896756       1.18883175       0.00001951       0.00073683      -0.01063337
Ga       0.54498374       1.76278945       5.30509397       0.00123882      -0.00139915       0.04394421
Ga       0.54790215       1.76037780       2.53469498      -0.00004244       0.00014512       0.01961663
Ga       2.81874824       0.45173419       2.88184615      -0.00118859       0.00070943      -0.04376698
Ga       2.81685356       0.45254883       8.30392330      -0.00005624      -0.00038935       0.02706486
Ga       2.81584502       0.45395787       5.65275335       0.00039896       0.00014792      -0.01878054
Ga       0.54763310       1.76094576      -0.11454562      -0.00057718       0.00021772      -0.02999865
Sn       2.81565628       0.45130893      11.29290864       0.00071227      -0.00056965       0.01958190
Sn       0.54578649       1.76083383       9.20676783       0.00003567       0.00087070      -0.02215254
10
Lattice="4.494875377336798 -0.00392745613757904 0.0006570134584857085 0.003985805577870294 4.404500786687797 -0.9743636947987061 -0.0013985640893759276 0.06498941036828762 10.737366905348102" Properties=species:S:1:pos:R:3:forces:R:3 structure_index=5 total_energy=-31.411542892456055 stress="0.012776611372828484 -2.2668924430035986e-05 1.1624304534052499e-05 -2.2749498384655453e-05 0.011105740442872047 0.0018878206610679626 1.1409447324695066e-05 0.0018875191453844309 0.01977313682436943" pbc="T T T"
Li       1.09031241       2.16037047       6.99969185      -0.00002483       0.00203323       0.01392779
Li       1.09181364       2.99488844       0.32898575       0.00002796      -0.00234703      -0.00645527
Li       3.33815276       1.73121902       5.07339664      -0.00012510       0.00061438       0.00149664
Ga       1.09227185       3.96360721       4.70999597       0.00020925       0.00030547       0.00219186
Ga       3.33725021       0.80571156       0.88808719       0.00034289       0.00363637       0.01417788
Ga       3.33966405       4.32954246       6.37719446       0.00001334      -0.00259903      -0.01493225
Sn       3.33745918       2.58672111       8.93945522       0.00056758       0.00082471       0.01057468
Sn       3.34022445       3.47398163       2.50693706      -0.00006109       0.00276606       0.01387187
Sn       1.08810678       0.40309526       9.50355556       0.00006967      -0.00129226      -0.01638331
Sn       1.09098601       1.29335479       3.08214260      -0.00101973      -0.00394191      -0.01846988
12
Lattice="4.371738777714308 0.0005672400505317435 0.00037043264286693283 -0.000860323772340967 6.12223487350177 -0.0006688193018946939 -0.0004968983144147368 0.0015652397993636393 9.169433982987282" Properties=species:S:1:pos:R:3:forces:R:3 structure_index=6 total_energy=-37.02425765991211 stress="0.009051027707755566 3.4134468478441704e-06 2.7952814889431465e-06 3.4728977880149614e-06 0.017384229227900505 2.1343243133742362e-05 2.794977490339079e-06 2.1270281649776734e-05 0.01661129854619503" pbc="T T T"
Li       1.42742590       5.82276636       5.49388790       0.00024468       0.01095268      -0.01665990
Li       1.42807109       2.61742534       2.67967473       0.00013859      -0.00044289       0.01359227
Li       3.61394794       4.12676366       0.91038570      -0.00013166      -0.01582888      -0.01897975
Li       3.61383407       1.20882287       7.26445067      -0.00006618      -0.00179601       0.01447805
Ga       3.61338723       4.22148516       4.03243863       0.00056358       0.03970043       0.00557876
Ga       3.61419320       1.11566025       1.16706737       0.00017562      -0.02588259      -0.01648564
Ga       1.42725346       5.72763828       8.61567684       0.00008979      -0.04076026       0.00701798
Ga       1.42778928       2.70838651       5.75016799       0.00048193       0.02946647      -0.01454690
Sn       1.42765936       2.56734248       8.78144369       0.00031477      -0.01336932       0.02558213
Sn       1.42786069       5.59668909       2.44893723      -0.00068354       0.02713579      -0.00853978
Sn       3.61347892       4.35010995       7.03481932      -0.00026182      -0.02366731      -0.01155556
Sn       3.61434767       1.25884474       4.19818376      -0.00086577       0.01449186       0.02051837
4
Lattice="4.408663297245873 0.0014719495683891619 2.5429365471619234 1.469845792851471 4.155823434571512 2.543558597984483 0.0018295664062856877 0.0014128273691552647 5.0893406421977385" Properties=species:S:1:pos:R:3:forces:R:3 structure_index=7 total_energy=-12.85483455657959 stress="0.05683369189500809 -0.0024278785567730665 -0.003824124112725258 -0.0024279074277728796 0.055886588990688324 -0.003744079265743494 -0.003824076848104596 -0.003744041081517935 0.052212439477443695" pbc="T T T"
Li       4.45183184       2.00079928       4.76151149       0.00147402       0.00081618       0.00108915
Ga       2.98305098       4.07832975       7.30661631       0.00323591       0.00205789       0.00198114
Sn       2.98236899       0.96087072       2.21715505      -0.00070208       0.00034949       0.00141426
Sn       1.51560504       3.04083552       4.76526862      -0.00400784      -0.00322355      -0.00448455
4
Lattice="4.285048094060123 -0.001586637115056855 0.0014360186440053847 0.0018153243164184543 4.343535756863669 0.0003019234711599432 -0.0008143341631349442 -0.00026347523767758426 4.286054423505804" Properties=species:S:1:pos:R:3:forces:R:3 structure_index=8 total_energy=-12.158591270446777 stress="0.022483792155981064 0.000990325934253633 0.001805272069759667 0.0009901190642267466 -0.07890159636735916 0.00016533491725567728 0.0018051437800750136 0.00016544345999136567 0.029962729662656784" pbc="T T T"
Li       0.97452195       2.00055929       3.25667897      -0.00025288       0.00001744      -0.00010185
Ga       0.97586576       4.17245667       1.11377287      -0.00038533      -0.00016268       0.00027148
Ga       3.11781653       4.17150503       3.25785035       0.00022285      -0.00009929      -0.00075739
Sn       3.11732859       1.99979757       1.11434429       0.00041535       0.00024454       0.00058776
12
Lattice="4.94496615883481 -0.6359309973707725 -1.0371228326150164 -0.9340962885175467 4.826442496951081 -1.0253401230281398 4.291965998670284e-06 0.04052181052483576 9.282072287089452" Properties=species:S:1:pos:R:3:forces:R:3 structure_index=9 total_energy=-33.144386291503906 stress="-0.024070395156741142 -0.015525873750448227 0.01858344115316868 -0.01552596129477024 -0.007958703674376011 0.013142058625817299 0.018583176657557487 0.013141944073140621 0.02583262510597706" pbc="T T T"
Li       3.44337877       0.73425546       7.99552888      -0.00196808      -0.00328121      -0.00773462
Li       1.98024321       2.08751038       3.37974269       0.00024445      -0.00063312       0.01066816
Li       1.33315813       1.39859078       0.73052657       0.00258636       0.00139860      -0.00412663
Li       0.50031308       3.45496803       7.97320521      -0.00633014      -0.00689659      -0.02213508
Li       3.32426832       3.47412964      -0.38480061       0.00363564       0.00307496       0.02149894
Li      -0.15126018       2.75930290       5.29915025      -0.00380610      -0.00323848      -0.01893470
Li       2.79550653       0.04546722       5.32659957       0.00029772      -0.00253184       0.00669435
Ga       3.98390381       4.16960336       2.33788986       0.00060657       0.00238458      -0.00432073
Ga       4.12646100       1.41835109       1.52142109       0.00554753       0.00534176       0.01130884
Ga       2.64795214       2.79628795       6.12897233      -0.00084431      -0.00195081       0.00214206
Sn       0.65788327       0.71256906       7.22726404       0.00540981       0.01140712       0.01085046
Sn       1.17521746       4.13760920       1.46367923      -0.00537953      -0.00507500      -0.00591106
12
Lattice="4.872489567764479 0.000786458429142155 0.00202117900120086 -2.436879525359104 4.220711991838229 -0.0003626488225269869 -0.004726275739140814 0.001933163885376758 11.790602991187688" Properties=species:S:1:pos:R:3:forces:R:3 structure_index=10 total_energy=-36.19038391113281 stress="0.0016130156582221389 -1.8389027900411747e-05 7.943486707517877e-05 -1.82859439519234e-05 0.0014993181684985757 -2.4936918634921312e-05 7.95577434473671e-05 -2.521313763281796e-05 -0.009964220225811005" pbc="T T T"
Li      -0.48333975       1.95719937      10.09311982      -0.00003931      -0.00005861       0.01866667
Li       1.95231480       3.36505175      11.33459988      -0.00005272       0.00000645       0.00218404
Li       1.95388922       3.36343452       5.44981144       0.00009196       0.00007788       0.00797788
Li       1.95561130       3.36351138       2.37987065       0.00000212      -0.00006970      -0.00514448
Li       1.95706832       0.54939990       0.75569000      -0.00019486      -0.00004387      -0.02446160
Ga       1.95399550       0.54932035       6.68019687      -0.00010590      -0.00007448      -0.04718087
Ga       1.95315555       3.36412608       8.45919946      -0.00003625      -0.00001274       0.02270702
Ga      -0.48157626       1.95628426       4.07568671       0.00018799       0.00021261       0.01195852
Sn       1.95512872       0.54938403       3.67705117       0.00001620      -0.00000710      -0.02700952
Sn       1.95330231       0.55030631       9.61303362      -0.00013354      -0.00002751       0.02230459
Sn      -0.47968052       1.95622017       1.18634179      -0.00000119      -0.00002323       0.02063823
Sn      -0.48263867       1.95628905       7.03734940       0.00026552       0.00002026      -0.00264045
6
Lattice="3.971650438632452 -0.003550794536098722 -1.2567866774355152 0.00452635997207577 4.212495553602286 0.00048180609464208094 -0.04590136362368768 -0.002239000245959589 6.659489579520675" Properties=species:S:1:pos:R:3:forces:R:3 structure_index=11 total_energy=-17.602436065673828 stress="0.064258873462677 0.0034241126850247383 0.019291413947939873 0.003424067050218582 0.0661347284913063 0.0028448032680898905 0.019291384145617485 0.0028446021024137735 -0.06329058855772018" pbc="T T T"
Li       2.74245528       3.62409572       4.79861252      -0.00016567      -0.00358173      -0.00284390
Li       2.07419669       1.51253562       2.71152856       0.01365388       0.00274711       0.02786907
Ga       3.44887468       1.51212961       0.18028704      -0.00930964       0.00275903      -0.01309123
Ga       1.49448511       3.62060718       0.86941493      -0.00421156       0.00194096       0.00774807
Ga       0.06479837       3.62183038       3.24480376      -0.01492302      -0.00046858      -0.03779573
Sn       0.74965279       1.51893553       5.41356042       0.01495601      -0.00339678       0.01811374
6
Lattice="4.1726078940144005 0.0018562148034429787 0.000803361347239432 -0.0019161347403586018 4.172586986424285 -0.0022170491369429444 0.0012381686876104389 0.0013320994846482094 6.860637306770957" Properties=species:S:1:pos:R:3:forces:R:3 structure_index=12 total_energy=-18.3929386138916 stress="-0.0011443020775914192 -0.00037347592297010124 5.9096979384776205e-05 -0.00037359382258728147 -0.0011818776838481426 4.258142507751472e-05 5.909229730605148e-05 4.2672774725360796e-05 0.014863716438412666" pbc="T T T"
Li       2.07071148       0.67825009       4.48624569      -0.00053947      -0.00006935       0.00146648
Li       4.15614768       2.76573252       4.48701806      -0.00046697      -0.00031412      -0.00185926
Ga       4.15697359       0.67827080       2.53057279       0.00038002      -0.00029397      -0.04627005
Ga       2.06914466       2.76540328       6.44250908       0.00005495       0.00058107       0.04645169
Sn       4.15631304       0.68032441       6.60004175       0.00026766      -0.00018740      -0.00734776
Sn       2.06980074       2.76339406       2.37305658       0.00030382       0.00028380       0.00755891
12
Lattice="4.281608051170502 0.013903213139755158 -0.954507989634634 -0.2300449414428162 4.272321917892309 -0.9609712898516206 0.4357571266427193 0.4808149329697477 12.037641696899337" Properties=species:S:1:pos:R:3:forces:R:3 structure_index=13 total_energy=-34.62229919433594 stress="-0.0010456248419359326 -0.006393818184733391 -0.0013326193438842893 -0.00639383913949132 -0.005033185239881277 -0.0009707457502372563 -0.001332859043031931 -0.0009707164717838168 -0.0050501748919487" pbc="T T T"
Li       4.28704938       1.17583259      10.08244138      -0.00427849       0.00084893      -0.00619962
Li       1.73810350       0.74290489       8.73604503       0.00095300      -0.00759132      -0.00391117
Li       2.02903320       3.30649060      10.07609310       0.00100985      -0.00179292      -0.00147283
Li       1.22266063       2.44858809       6.45183903       0.00002727       0.00138831      -0.00012399
Li       2.93760135       1.99967292       4.05781612       0.00159496       0.00126256       0.00053478
Li       2.40154702       3.68096020       1.66355713      -0.00454912       0.00247376      -0.00541073
Li       4.14118470       3.26438610      -0.61871383      -0.00096325      -0.00151976       0.00667046
Ga       3.47526839       0.31360291       6.43969155       0.01026090       0.01111785       0.04042172
Ga       0.37542765       1.54480213       2.63155492      -0.00590652      -0.01041195      -0.03351419
Sn       2.10840769       1.11284426       0.31455728      -0.00406284      -0.00150727      -0.01819751
Sn       0.68267223       4.13108570       4.05322450       0.00055213      -0.00168769       0.00312199
Sn       3.76969542       2.88667336       7.80314285       0.00536209       0.00741948       0.01808110
8
Lattice="4.157628830874182 0.0033594217220088347 -0.007947016132341207 -0.007498644808782846 5.993209654145078 -0.042650274427568705 0.007368361846013323 0.028539548103913296 5.989284491811201" Properties=species:S:1:pos:R:3:forces:R:3 structure_index=14 total_energy=-23.39093017578125 stress="-0.004750539548695087 -0.0070830113254487514 -0.009552271105349064 -0.007083152886480093 0.011761126108467579 -0.034227099269628525 -0.00955235119909048 -0.0342271663248539 0.009566027671098709" pbc="T T T"
Li       1.93107291       5.68442087       5.68940612      -0.00062078       0.00026368      -0.00319434
Li       1.93054565       2.67496335       2.71287203      -0.00007235      -0.00152279      -0.00067286
Ga       4.01278066       1.09596584       4.13121216      -0.00013682      -0.00181747      -0.00303469
Ga       4.00876829       4.26594487       4.11064117       0.00064224       0.00299593      -0.00314472
Ga       4.00603463       4.25585284       1.28700357       0.00004493      -0.00053094       0.00360350
Ga       4.00999130       1.08557801       1.30783714      -0.00057057      -0.00256734       0.00543140
Ga       1.92670053       5.66983976       2.69327537       0.00037033       0.00212766      -0.00157629
Sn       1.93409070       2.68767866       5.70700038       0.00034299       0.00105128       0.00258802
12
Lattice="4.495480866819062 -0.006981358108832252 1.3840182407396526 1.0940142002449422 6.573853768632532 4.433469470655304 0.043223075480304844 1.694863099187292 7.822075806501701" Properties=species:S:1:pos:R:3:forces:R:3 structure_index=15 total_energy=-32.733585357666016 stress="-0.018151966854929924 0.005286977160722017 0.0003098076267633587 0.005286748055368662 -0.007580900564789772 -0.016879253089427948 0.0003096013388130814 -0.016878798604011536 -0.018796171993017197" pbc="T T T"
Li       0.71646187       1.69705900       3.04028451       0.00575012      -0.01477295      -0.01839183
Li       3.84000255       6.95381716       8.86938291       0.01003858      -0.01981512      -0.03423821
Li       4.39599617       1.82214976       7.06820975      -0.00963882       0.01834280       0.03483548
Li       4.92612172       4.28155871       5.35924949      -0.00834062       0.02661236       0.02924767
Li       3.31018596       4.49330800      10.57804646       0.00829422      -0.02642907      -0.02889481
Li       2.13793575       5.63168221       6.41401186       0.00346461       0.01904346      -0.01206827
Li       1.60299980       3.15069026       8.13882538      -0.00420200      -0.01952340       0.01319237
Li       3.02434007       7.08506841      11.51287618      -0.00591127       0.01429030       0.01880614
Ga       4.11800141       4.38814144       7.96875727       0.00028118      -0.00065835      -0.00005793
Ga       3.54934392       0.25273978       1.84126469       0.00025532       0.00095549      -0.00055528
Sn       2.43797553       2.99327650       5.44258674      -0.00162855       0.01088090       0.00594399
Sn       1.30276995       5.78867706       9.11104180       0.00163718      -0.00892638      -0.00781928
10
Lattice="3.2480873357986475 0.0004969462051291626 -0.0007737579807762968 -0.0006328477736922409 3.2481501843996248 0.00038460198532202513 0.0034186363919534207 -0.0018485574439018053 17.456760158232445" Properties=species:S:1:pos:R:3:forces:R:3 structure_index=16 total_energy=-29.969635009765625 stress="-0.014092897064983845 -0.0007666284218430519 -0.0009372083004564047 -0.0007666285964660347 -0.013461149297654629 0.0005083280266262591 -0.0009372334461659193 0.0005083339056000113 0.0135927964001894" pbc="T T T"
Li       2.48977306       1.14357189      16.69097562      -0.00005017      -0.00016066      -0.00612021
Li       2.48722033       1.14323603       6.87658220      -0.00005589       0.00043739       0.00835545
Li       2.48659196       1.14435974       3.06111193       0.00034585      -0.00004708      -0.00165050
Li       2.48871818       1.14396707      13.68822797       0.00031681      -0.00035369       0.00198780
Li       2.48741108       1.14319535       9.87547695       0.00050258       0.00025950      -0.00875631
Ga       0.86510569       2.76757892      15.20043953      -0.00059686      -0.00001446       0.00011593
Ga       0.86303827       2.76708711       8.36434485      -0.00018376      -0.00005872       0.00500483
Sn       0.86226238       2.76872343       1.14189997      -0.00022466      -0.00000875      -0.03525246
Sn       0.86362789       2.76747543      11.77872026       0.00017864      -0.00012180       0.00795974
Sn       0.86270220       2.76758746       4.97893772      -0.00023257       0.00006828       0.02835570
9
Lattice="5.239653250832007 0.059294048132402674 -0.1483446851534528 -2.700006420827586 4.293205531408597 -1.1790183698524408 -0.14161684630951726 0.10581880156405947 7.670164108880076" Properties=species:S:1:pos:R:3:forces:R:3 structure_index=17 total_energy=-26.708677291870117 stress="-0.03322215378284454 0.013803093694150448 -0.024704579263925552 0.013803098350763321 -0.01534062810242176 0.01974552311003208 -0.024704743176698685 0.01974545232951641 -0.023518435657024384" pbc="T T T"
Li      -2.18019182       3.79542126       0.57444473      -0.02248755      -0.00990920      -0.02835554
Li       4.35522842       0.82868163       6.38865168      -0.02038658      -0.00714902       0.02857271
Li       2.48247856       0.20049070       4.05319212       0.00988660       0.02391864      -0.02227427
Ga       2.40178115       3.08800948       3.19178477       0.00381231      -0.00514445       0.03486454
Ga       3.16403227       1.05825764       1.40471903       0.01919298       0.00458312      -0.00250240
Ga       1.74671311       2.25190883       5.88972063       0.01803734       0.02661945       0.01583142
Ga      -0.12776697       1.49403156       3.79063667      -0.02180018      -0.03236242      -0.00951652
Sn       0.48798253       2.39805423       0.92782840       0.01302636      -0.00025148       0.02606996
Sn      -0.91017068       3.69004162       5.64783515       0.00071871      -0.00030464      -0.04268987
13
Lattice="5.270509334253292 -0.002585471701589268 0.0001817448565929897 -2.632078481543362 4.568303151821297 0.0010721473872915839 0.0008303949547986378 0.0002062776403678796 9.204534592050129" Properties=species:S:1:pos:R:3:forces:R:3 structure_index=18 total_energy=-34.5114860534668 stress="-0.02264014631509781 7.894990994827822e-05 -0.00010555519838817418 7.890390406828374e-05 -0.02247443236410618 -0.00014458582154475152 -0.00010573921463219449 -0.00014464306877925992 0.0036940693389624357" pbc="T T T"
Li      -1.31354465       3.31089039       4.52434244       0.00069573      -0.00017949      -0.01033929
Li       1.30948589       3.30981909       9.14704832      -0.00071023      -0.00049391       0.00940951
Li      -0.00214191       1.03846903       9.14706661       0.00008512       0.00105517       0.00913481
Li      -1.31165751       3.31164292       9.14567089      -0.00066368       0.00046373       0.01122390
Li       1.30874017       3.30910510       4.52307630      -0.00078795      -0.00044437      -0.00850484
Li       2.63184452       1.02920421       2.23893202      -0.00064672      -0.00004881       0.00115174
Li      -0.00366300       1.03831779       4.52188585       0.00027188      -0.00136862      -0.00907784
Ga      -0.00354008       2.55231526       2.23498342       0.00151905       0.00108549      -0.00607552
Ga       2.63153487       4.07471518       6.83574086      -0.00072616       0.00076310      -0.00147166
Ga       2.63201495       1.02842571       5.50960144      -0.00067723      -0.00038541       0.02805757
Ga       2.63331728       1.03080619       8.15482044       0.00084425       0.00042647      -0.02440662
Ga      -0.00419899       2.55099605       6.83410757       0.00117117      -0.00057315       0.00242551
Sn       2.63412294       4.07315199       2.23301736      -0.00037523      -0.00030018      -0.00152722
4
Lattice="4.284563754096756 0.00016052454902141475 -0.0006855496952752893 -0.00037614424301811813 4.284589824348295 -0.0003663922402445118 0.0005121553802555478 0.0002738853775484821 4.3435422435575815" Properties=species:S:1:pos:R:3:forces:R:3 structure_index=19 total_energy=-12.15859603881836 stress="0.009361440315842628 -0.0006324176210910082 -0.0009233991149812937 -0.0006323961424641311 0.009556285105645657 -0.00048778855125419796 -0.000923383398912847 -0.0004877641622442752 -0.09448439627885818" pbc="T T T"
Li       0.90934483       3.49008456       2.75751678       0.00025346       0.00043612      -0.00089047
Ga       3.05148920       3.49009707       0.58446655       0.00051233       0.00039567       0.00072902
Ga       0.91020216       1.34790804       0.58498425      -0.00157510      -0.00029786       0.00074925
Sn       3.05207842       1.34808994       2.75649741       0.00080931      -0.00053393      -0.00058779
4
Lattice="4.283461493310084 0.0005605752999810805 -0.0009655404100038255 -0.001709431059199354 4.283217793957012 -0.0005431538368301625 0.0005870661690151614 0.0003300185135759386 4.355961587474739" Properties=species:S:1:pos:R:3:forces:R:3 structure_index=20 total_energy=-12.158620834350586 stress="0.08653213828802109 -0.00338183855637908 -0.0019344552420079708 -0.0033819780219346285 0.084746353328228 -0.0010875188745558262 -0.0019343007588759065 -0.001087414682842791 0.07659804075956345" pbc="T T T"
Li       2.07718516       4.03249432       3.17161792      -0.00043424       0.00023193      -0.00031584