phonopy:
  version: "2.37.1"
  frequency_unit_conversion_factor: 15.633302
  symmetry_tolerance: 1.00000e-05

space_group:
  type: "Fd-3m"
  number: 227
  Hall_symbol: "F 4d 2 3 -1d"

primitive_matrix:
- [  0.000000000000000,  1.000000000000000,  0.000000000000000 ]
- [  0.000000000000000,  0.000000000000000,  1.000000000000000 ]
- [  1.000000000000000,  0.000000000000000,  0.000000000000000 ]

supercell_matrix:
- [   3,   0,   0 ]
- [   0,   3,   0 ]
- [   0,   0,   3 ]

primitive_cell:
  lattice:
  - [     2.214408694498903,     1.278489446250081,     3.616114205939566 ] # a
  - [     4.428817305142837,     0.000000000000000,     0.000000000000000 ] # b
  - [     2.214408653350466,     3.835468299051302,     0.000000000000000 ] # c
  points:
  - symbol: Li # 1
    coordinates: [  0.999999999597831,  0.000000000635558,  0.000000000515496 ]
    mass: 6.940000
  - symbol: Li # 2
    coordinates: [  0.249999999775559,  0.250000000130402,  0.250000000680454 ]
    mass: 6.940000
  - symbol: Ga # 3
    coordinates: [  0.500000000056819,  0.500000000712408,  0.499999999200982 ]
    mass: 69.723000
  - symbol: Ga # 4
    coordinates: [  0.750000000606441,  0.749999998524574,  0.749999999562795 ]
    mass: 69.723000
  reciprocal_lattice: # without 2pi
  - [     0.000000000000000,     0.000000000000000,     0.276539938466952 ] # a*
  - [     0.225793915418181,    -0.130362177755342,    -0.092179981613711 ] # b*
  - [     0.000000000000000,     0.260724355418959,    -0.092179980443091 ] # c*

unit_cell:
  lattice:
  - [     4.428817305142836,     0.000000000000000,     0.000000000000000 ] # a
  - [     2.214408653350465,     3.835468299051302,     0.000000000000000 ] # b
  - [     2.214408694498901,     1.278489446250081,     3.616114205939566 ] # c
  points:
  - symbol: Li # 1
    coordinates: [  0.000000000635559,  0.000000000515496,  0.999999999597831 ]
    mass: 6.940000
    reduced_to: 1
  - symbol: Li # 2
    coordinates: [  0.250000000130402,  0.250000000680454,  0.249999999775559 ]
    mass: 6.940000
    reduced_to: 2
  - symbol: Ga # 3
    coordinates: [  0.500000000712409,  0.499999999200982,  0.500000000056819 ]
    mass: 69.723000
    reduced_to: 3
  - symbol: Ga # 4
    coordinates: [  0.749999998524575,  0.749999999562795,  0.750000000606441 ]
    mass: 69.723000
    reduced_to: 4

supercell:
  lattice:
  - [    13.286451915428508,     0.000000000000000,     0.000000000000000 ] # a
  - [     6.643225960051396,    11.506404897153905,     0.000000000000000 ] # b
  - [     6.643226083496703,     3.835468338750242,    10.848342617818698 ] # c
  points:
  - symbol: Li # 1
    coordinates: [  0.000000000211853,  0.000000000171832,  0.333333333199277 ]
    mass: 6.940000
    reduced_to: 1
  - symbol: Li # 2
    coordinates: [  0.333333333545186,  0.000000000171832,  0.333333333199277 ]
    mass: 6.940000
    reduced_to: 1
  - symbol: Li # 3
    coordinates: [  0.666666666878519,  0.000000000171832,  0.333333333199277 ]
    mass: 6.940000
    reduced_to: 1
  - symbol: Li # 4
    coordinates: [  0.000000000211853,  0.333333333505165,  0.333333333199277 ]
    mass: 6.940000
    reduced_to: 1
  - symbol: Li # 5
    coordinates: [  0.333333333545186,  0.333333333505165,  0.333333333199277 ]
    mass: 6.940000
    reduced_to: 1
  - symbol: Li # 6
    coordinates: [  0.666666666878519,  0.333333333505165,  0.333333333199277 ]
    mass: 6.940000
    reduced_to: 1
  - symbol: Li # 7
    coordinates: [  0.000000000211853,  0.666666666838499,  0.333333333199277 ]
    mass: 6.940000
    reduced_to: 1
  - symbol: Li # 8
    coordinates: [  0.333333333545186,  0.666666666838499,  0.333333333199277 ]
    mass: 6.940000
    reduced_to: 1
  - symbol: Li # 9
    coordinates: [  0.666666666878519,  0.666666666838499,  0.333333333199277 ]
    mass: 6.940000
    reduced_to: 1
  - symbol: Li # 10
    coordinates: [  0.000000000211853,  0.000000000171832,  0.666666666532610 ]
    mass: 6.940000
    reduced_to: 1
  - symbol: Li # 11
    coordinates: [  0.333333333545186,  0.000000000171832,  0.666666666532610 ]
    mass: 6.940000
    reduced_to: 1
  - symbol: Li # 12
    coordinates: [  0.666666666878519,  0.000000000171832,  0.666666666532610 ]
    mass: 6.940000
    reduced_to: 1
  - symbol: Li # 13
    coordinates: [  0.000000000211853,  0.333333333505165,  0.666666666532610 ]
    mass: 6.940000
    reduced_to: 1
  - symbol: Li # 14
    coordinates: [  0.333333333545186,  0.333333333505165,  0.666666666532610 ]
    mass: 6.940000
    reduced_to: 1
  - symbol: Li # 15
    coordinates: [  0.666666666878519,  0.333333333505165,  0.666666666532610 ]
    mass: 6.940000
    reduced_to: 1
  - symbol: Li # 16
    coordinates: [  0.000000000211853,  0.666666666838499,  0.666666666532610 ]
    mass: 6.940000
    reduced_to: 1
  - symbol: Li # 17
    coordinates: [  0.333333333545186,  0.666666666838499,  0.666666666532610 ]
    mass: 6.940000
    reduced_to: 1
  - symbol: Li # 18
    coordinates: [  0.666666666878519,  0.666666666838499,  0.666666666532610 ]
    mass: 6.940000
    reduced_to: 1
  - symbol: Li # 19
    coordinates: [  0.000000000211853,  0.000000000171832,  0.999999999865944 ]
    mass: 6.940000
    reduced_to: 1
  - symbol: Li # 20
    coordinates: [  0.333333333545186,  0.000000000171832,  0.999999999865944 ]
    mass: 6.940000
    reduced_to: 1
  - symbol: Li # 21
    coordinates: [  0.666666666878519,  0.000000000171832,  0.999999999865944 ]
    mass: 6.940000
    reduced_to: 1
  - symbol: Li # 22
    coordinates: [  0.000000000211853,  0.333333333505165,  0.999999999865944 ]
    mass: 6.940000
    reduced_to: 1
  - symbol: Li # 23
    coordinates: [  0.333333333545186,  0.333333333505165,  0.999999999865944 ]
    mass: 6.940000
    reduced_to: 1
  - symbol: Li # 24
    coordinates: [  0.666666666878519,  0.333333333505165,  0.999999999865944 ]
    mass: 6.940000
    reduced_to: 1
  - symbol: Li # 25
    coordinates: [  0.000000000211853,  0.666666666838499,  0.999999999865944 ]
    mass: 6.940000
    reduced_to: 1
  - symbol: Li # 26
    coordinates: [  0.333333333545186,  0.666666666838499,  0.999999999865944 ]
    mass: 6.940000
    reduced_to: 1
  - symbol: Li # 27
    coordinates: [  0.666666666878519,  0.666666666838499,  0.999999999865944 ]
    mass: 6.940000
    reduced_to: 1
  - symbol: Li # 28
    coordinates: [  0.083333333376801,  0.083333333560151,  0.083333333258520 ]
    mass: 6.940000
    reduced_to: 28
  - symbol: Li # 29
    coordinates: [  0.416666666710134,  0.083333333560151,  0.083333333258520 ]
    mass: 6.940000
    reduced_to: 28
  - symbol: Li # 30
    coordinates: [  0.750000000043467,  0.083333333560151,  0.083333333258520 ]
    mass: 6.940000
    reduced_to: 28
  - symbol: Li # 31
    coordinates: [  0.083333333376801,  0.416666666893485,  0.083333333258520 ]
    mass: 6.940000
    reduced_to: 28
  - symbol: Li # 32
    coordinates: [  0.416666666710134,  0.416666666893485,  0.083333333258520 ]
    mass: 6.940000
    reduced_to: 28
  - symbol: Li # 33
    coordinates: [  0.750000000043467,  0.416666666893485,  0.083333333258520 ]
    mass: 6.940000
    reduced_to: 28
  - symbol: Li # 34
    coordinates: [  0.083333333376801,  0.750000000226818,  0.083333333258520 ]
    mass: 6.940000
    reduced_to: 28
  - symbol: Li # 35
    coordinates: [  0.416666666710134,  0.750000000226818,  0.083333333258520 ]
    mass: 6.940000
    reduced_to: 28
  - symbol: Li # 36
    coordinates: [  0.750000000043467,  0.750000000226818,  0.083333333258520 ]
    mass: 6.940000
    reduced_to: 28
  - symbol: Li # 37
    coordinates: [  0.083333333376801,  0.083333333560151,  0.416666666591853 ]
    mass: 6.940000
    reduced_to: 28
  - symbol: Li # 38
    coordinates: [  0.416666666710134,  0.083333333560151,  0.416666666591853 ]
    mass: 6.940000
    reduced_to: 28
  - symbol: Li # 39
    coordinates: [  0.750000000043467,  0.083333333560151,  0.416666666591853 ]
    mass: 6.940000
    reduced_to: 28
  - symbol: Li # 40
    coordinates: [  0.083333333376801,  0.416666666893485,  0.416666666591853 ]
    mass: 6.940000
    reduced_to: 28
  - symbol: Li # 41
    coordinates: [  0.416666666710134,  0.416666666893485,  0.416666666591853 ]
    mass: 6.940000
    reduced_to: 28
  - symbol: Li # 42
    coordinates: [  0.750000000043467,  0.416666666893485,  0.416666666591853 ]
    mass: 6.940000
    reduced_to: 28
  - symbol: Li # 43
    coordinates: [  0.083333333376801,  0.750000000226818,  0.416666666591853 ]
    mass: 6.940000
    reduced_to: 28
  - symbol: Li # 44
    coordinates: [  0.416666666710134,  0.750000000226818,  0.416666666591853 ]
    mass: 6.940000
    reduced_to: 28
  - symbol: Li # 45
    coordinates: [  0.750000000043467,  0.750000000226818,  0.416666666591853 ]
    mass: 6.940000
    reduced_to: 28
  - symbol: Li # 46
    coordinates: [  0.083333333376801,  0.083333333560151,  0.749999999925186 ]
    mass: 6.940000
    reduced_to: 28
  - symbol: Li # 47
    coordinates: [  0.416666666710134,  0.083333333560151,  0.749999999925186 ]
    mass: 6.940000
    reduced_to: 28
  - symbol: Li # 48
    coordinates: [  0.750000000043467,  0.083333333560151,  0.749999999925186 ]
    mass: 6.940000
    reduced_to: 28
  - symbol: Li # 49
    coordinates: [  0.083333333376801,  0.416666666893485,  0.749999999925186 ]
    mass: 6.940000
    reduced_to: 28
  - symbol: Li # 50
    coordinates: [  0.416666666710134,  0.416666666893485,  0.749999999925186 ]
    mass: 6.940000
    reduced_to: 28
  - symbol: Li # 51
    coordinates: [  0.750000000043467,  0.416666666893485,  0.749999999925186 ]
    mass: 6.940000
    reduced_to: 28
  - symbol: Li # 52
    coordinates: [  0.083333333376801,  0.750000000226818,  0.749999999925186 ]
    mass: 6.940000
    reduced_to: 28
  - symbol: Li # 53
    coordinates: [  0.416666666710134,  0.750000000226818,  0.749999999925186 ]
    mass: 6.940000
    reduced_to: 28
  - symbol: Li # 54
    coordinates: [  0.750000000043467,  0.750000000226818,  0.749999999925186 ]
    mass: 6.940000
    reduced_to: 28
  - symbol: Ga # 55
    coordinates: [  0.166666666904136,  0.166666666400327,  0.166666666685606 ]
    mass: 69.723000
    reduced_to: 55
  - symbol: Ga # 56
    coordinates: [  0.500000000237470,  0.166666666400327,  0.166666666685606 ]
    mass: 69.723000
    reduced_to: 55
  - symbol: Ga # 57
    coordinates: [  0.833333333570803,  0.166666666400327,  0.166666666685606 ]
    mass: 69.723000
    reduced_to: 55
  - symbol: Ga # 58
    coordinates: [  0.166666666904136,  0.499999999733661,  0.166666666685606 ]
    mass: 69.723000
    reduced_to: 55
  - symbol: Ga # 59
    coordinates: [  0.500000000237470,  0.499999999733661,  0.166666666685606 ]
    mass: 69.723000
    reduced_to: 55
  - symbol: Ga # 60
    coordinates: [  0.833333333570803,  0.499999999733661,  0.166666666685606 ]
    mass: 69.723000
    reduced_to: 55
  - symbol: Ga # 61
    coordinates: [  0.166666666904136,  0.833333333066994,  0.166666666685606 ]
    mass: 69.723000
    reduced_to: 55
  - symbol: Ga # 62
    coordinates: [  0.500000000237470,  0.833333333066994,  0.166666666685606 ]
    mass: 69.723000
    reduced_to: 55
  - symbol: Ga # 63
    coordinates: [  0.833333333570803,  0.833333333066994,  0.166666666685606 ]
    mass: 69.723000
    reduced_to: 55
  - symbol: Ga # 64
    coordinates: [  0.166666666904136,  0.166666666400327,  0.500000000018940 ]
    mass: 69.723000
    reduced_to: 55
  - symbol: Ga # 65
    coordinates: [  0.500000000237470,  0.166666666400327,  0.500000000018940 ]
    mass: 69.723000
    reduced_to: 55
  - symbol: Ga # 66
    coordinates: [  0.833333333570803,  0.166666666400327,  0.500000000018940 ]
    mass: 69.723000
    reduced_to: 55
  - symbol: Ga # 67
    coordinates: [  0.166666666904136,  0.499999999733661,  0.500000000018940 ]
    mass: 69.723000
    reduced_to: 55
  - symbol: Ga # 68
    coordinates: [  0.500000000237470,  0.499999999733661,  0.500000000018940 ]
    mass: 69.723000
    reduced_to: 55
  - symbol: Ga # 69
    coordinates: [  0.833333333570803,  0.499999999733661,  0.500000000018940 ]
    mass: 69.723000
    reduced_to: 55
  - symbol: Ga # 70
    coordinates: [  0.166666666904136,  0.833333333066994,  0.500000000018940 ]
    mass: 69.723000
    reduced_to: 55
  - symbol: Ga # 71
    coordinates: [  0.500000000237470,  0.833333333066994,  0.500000000018940 ]
    mass: 69.723000
    reduced_to: 55
  - symbol: Ga # 72
    coordinates: [  0.833333333570803,  0.833333333066994,  0.500000000018940 ]
    mass: 69.723000
    reduced_to: 55
  - symbol: Ga # 73
    coordinates: [  0.166666666904136,  0.166666666400327,  0.833333333352273 ]
    mass: 69.723000
    reduced_to: 55
  - symbol: Ga # 74
    coordinates: [  0.500000000237470,  0.166666666400327,  0.833333333352273 ]
    mass: 69.723000
    reduced_to: 55
  - symbol: Ga # 75
    coordinates: [  0.833333333570803,  0.166666666400327,  0.833333333352273 ]
    mass: 69.723000
    reduced_to: 55
  - symbol: Ga # 76
    coordinates: [  0.166666666904136,  0.499999999733661,  0.833333333352273 ]
    mass: 69.723000
    reduced_to: 55
  - symbol: Ga # 77
    coordinates: [  0.500000000237470,  0.499999999733661,  0.833333333352273 ]
    mass: 69.723000
    reduced_to: 55
  - symbol: Ga # 78
    coordinates: [  0.833333333570803,  0.499999999733661,  0.833333333352273 ]
    mass: 69.723000
    reduced_to: 55
  - symbol: Ga # 79
    coordinates: [  0.166666666904136,  0.833333333066994,  0.833333333352273 ]
    mass: 69.723000
    reduced_to: 55
  - symbol: Ga # 80
    coordinates: [  0.500000000237470,  0.833333333066994,  0.833333333352273 ]
    mass: 69.723000
    reduced_to: 55
  - symbol: Ga # 81
    coordinates: [  0.833333333570803,  0.833333333066994,  0.833333333352273 ]
    mass: 69.723000
    reduced_to: 55
  - symbol: Ga # 82
    coordinates: [  0.249999999508192,  0.249999999854265,  0.250000000202147 ]
    mass: 69.723000
    reduced_to: 82
  - symbol: Ga # 83
    coordinates: [  0.583333332841525,  0.249999999854265,  0.250000000202147 ]
    mass: 69.723000
    reduced_to: 82
  - symbol: Ga # 84
    coordinates: [  0.916666666174858,  0.249999999854265,  0.250000000202147 ]
    mass: 69.723000
    reduced_to: 82
  - symbol: Ga # 85
    coordinates: [  0.249999999508192,  0.583333333187599,  0.250000000202147 ]
    mass: 69.723000
    reduced_to: 82
  - symbol: Ga # 86
    coordinates: [  0.583333332841525,  0.583333333187599,  0.250000000202147 ]
    mass: 69.723000
    reduced_to: 82
  - symbol: Ga # 87
    coordinates: [  0.916666666174858,  0.583333333187599,  0.250000000202147 ]
    mass: 69.723000
    reduced_to: 82
  - symbol: Ga # 88
    coordinates: [  0.249999999508192,  0.916666666520932,  0.250000000202147 ]
    mass: 69.723000
    reduced_to: 82
  - symbol: Ga # 89
    coordinates: [  0.583333332841525,  0.916666666520932,  0.250000000202147 ]
    mass: 69.723000
    reduced_to: 82
  - symbol: Ga # 90
    coordinates: [  0.916666666174858,  0.916666666520932,  0.250000000202147 ]
    mass: 69.723000
    reduced_to: 82
  - symbol: Ga # 91
    coordinates: [  0.249999999508192,  0.249999999854265,  0.583333333535480 ]
    mass: 69.723000
    reduced_to: 82
  - symbol: Ga # 92
    coordinates: [  0.583333332841525,  0.249999999854265,  0.583333333535480 ]
    mass: 69.723000
    reduced_to: 82
  - symbol: Ga # 93
    coordinates: [  0.916666666174858,  0.249999999854265,  0.583333333535480 ]
    mass: 69.723000
    reduced_to: 82
  - symbol: Ga # 94
    coordinates: [  0.249999999508192,  0.583333333187599,  0.583333333535480 ]
    mass: 69.723000
    reduced_to: 82
  - symbol: Ga # 95
    coordinates: [  0.583333332841525,  0.583333333187599,  0.583333333535480 ]
    mass: 69.723000
    reduced_to: 82
  - symbol: Ga # 96
    coordinates: [  0.916666666174858,  0.583333333187599,  0.583333333535480 ]
    mass: 69.723000
    reduced_to: 82
  - symbol: Ga # 97
    coordinates: [  0.249999999508192,  0.916666666520932,  0.583333333535480 ]
    mass: 69.723000
    reduced_to: 82
  - symbol: Ga # 98
    coordinates: [  0.583333332841525,  0.916666666520932,  0.583333333535480 ]
    mass: 69.723000
    reduced_to: 82
  - symbol: Ga # 99
    coordinates: [  0.916666666174858,  0.916666666520932,  0.583333333535480 ]
    mass: 69.723000
    reduced_to: 82
  - symbol: Ga # 100
    coordinates: [  0.249999999508192,  0.249999999854265,  0.916666666868814 ]
    mass: 69.723000
    reduced_to: 82
  - symbol: Ga # 101
    coordinates: [  0.583333332841525,  0.249999999854265,  0.916666666868814 ]
    mass: 69.723000
    reduced_to: 82
  - symbol: Ga # 102
    coordinates: [  0.916666666174858,  0.249999999854265,  0.916666666868814 ]
    mass: 69.723000
    reduced_to: 82
  - symbol: Ga # 103
    coordinates: [  0.249999999508192,  0.583333333187599,  0.916666666868814 ]
    mass: 69.723000
    reduced_to: 82
  - symbol: Ga # 104
    coordinates: [  0.583333332841525,  0.583333333187599,  0.916666666868814 ]
    mass: 69.723000
    reduced_to: 82
  - symbol: Ga # 105
    coordinates: [  0.916666666174858,  0.583333333187599,  0.916666666868814 ]
    mass: 69.723000
    reduced_to: 82
  - symbol: Ga # 106
    coordinates: [  0.249999999508192,  0.916666666520932,  0.916666666868814 ]
    mass: 69.723000
    reduced_to: 82
  - symbol: Ga # 107
    coordinates: [  0.583333332841525,  0.916666666520932,  0.916666666868814 ]
    mass: 69.723000
    reduced_to: 82
  - symbol: Ga # 108
    coordinates: [  0.916666666174858,  0.916666666520932,  0.916666666868814 ]
    mass: 69.723000
    reduced_to: 82

displacements:
- atom:    1
  displacement:
    [   0.0100000000000000,  0.0000000000000000,  0.0000000000000000 ]
  forces:
  - [  -0.0234210230410099,  0.0000905717606656,  0.0000644251704216 ]
  - [   0.0004555794876069,  0.0001860848860815,  0.0001315129920840 ]
  - [   0.0004468347178772, -0.0001815075520426, -0.0001282622106373 ]
  - [   0.0002228063531220, -0.0000529460376129,  0.0001046662218869 ]
  - [  -0.0000367914326489,  0.0000003185123205,  0.0000003860332072 ]
  - [   0.0002219034358859,  0.0000495088752359, -0.0001037060283124 ]
  - [   0.0002212126273662,  0.0003153652651235, -0.0000255377963185 ]
  - [   0.0002249414101243, -0.0003163097426295,  0.0000254334881902 ]
  - [  -0.0000354582443833,  0.0000006672926247,  0.0000010658986866 ]
  - [   0.0002230617683381,  0.0000810540514067, -0.0000843852758408 ]
  - [  -0.0000358172692358, -0.0000003453460522,  0.0000010058283806 ]
  - [   0.0002223057672381, -0.0000818449771032,  0.0000815615057945 ]
  - [  -0.0000126748345792, -0.0000147559912875, -0.0000106184743345 ]
  - [  -0.0000115181319416,  0.0000147444661707,  0.0000106086954474 ]
  - [   0.0000705271959305, -0.0000001501757652,  0.0000000060535967 ]
  - [   0.0000824586022645,  0.0000002882443368, -0.0000020414590836 ]
  - [   0.0000068419612944,  0.0000337031669915, -0.0000498630106449 ]
  - [   0.0000095553696156, -0.0000351178459823,  0.0000472138635814 ]
  - [   0.0002210871316493,  0.0000806422904134,  0.0003047250211239 ]
  - [   0.0002241958864033, -0.0000829077325761, -0.0003078542649746 ]
  - [  -0.0000383164733648, -0.0000000293366611, -0.0000015087425709 ]
  - [   0.0000826972536743, -0.0000011874362826,  0.0000014640390873 ]
  - [   0.0000075860880315, -0.0000344221480191,  0.0000495552085340 ]
  - [   0.0000101993791759,  0.0000333036296070, -0.0000481419265270 ]
  - [  -0.0000117230229080, -0.0000152662396431, -0.0000113635323942 ]
  - [   0.0000672726746416,  0.0000000114087015, -0.0000009294599295 ]
  - [  -0.0000115041621029,  0.0000135705340654,  0.0000092592090368 ]
  - [  -0.0005117415566929,  0.0000042915344238,  0.0000138059258461 ]
  - [  -0.0000125275109895,  0.0001497571356595, -0.0000537605956197 ]
  - [  -0.0000124351354316, -0.0001491615548730,  0.0000524166971445 ]
  - [  -0.0000012665987015,  0.0001444336958230, -0.0000595557503402 ]
  - [   0.0000374503433704, -0.0000001774169505, -0.0000012703239918 ]
  - [  -0.0000015487894416, -0.0001412201672792,  0.0000555859878659 ]
  - [  -0.0002618818543851, -0.0000047096982598, -0.0000057090073824 ]
  - [  -0.0002582767046988,  0.0000105830840766,  0.0000051758252084 ]
  - [   0.0003036963753402, -0.0000012847594917, -0.0000033462420106 ]
  - [   0.0043783476576209,  0.0028260955587029,  0.0019988492131233 ]
  - [   0.0001325551420450, -0.0000012032687664,  0.0000003017485142 ]
  - [   0.0042889537289739, -0.0027702976949513, -0.0019577033817768 ]
  - [   0.0000282695982605,  0.0000599657651037,  0.0000255447812378 ]
  - [   0.0000290845055133, -0.0000588106922805, -0.0000246614217758 ]
  - [  -0.0000108880922198, -0.0000008384231478, -0.0000003045424819 ]
  - [  -0.0005114686791785,  0.0000139288604259, -0.0000002384185791 ]
  - [  -0.0000138265895657, -0.0000015513505787,  0.0001589916646481 ]
  - [  -0.0000139141920954, -0.0000009580980986, -0.0001584370620549 ]
  - [   0.0000274945050478,  0.0000432627275586,  0.0000480809248984 ]
  - [   0.0000286209397018, -0.0000433139503002, -0.0000474406406283 ]
  - [  -0.0000113942660391, -0.0000013364478946, -0.0000001634471118 ]
  - [  -0.0000464376062155,  0.0000007874332368, -0.0000003725290298 ]
  - [   0.0000220310175791, -0.0000071348622441, -0.0000056917779148 ]
  - [   0.0000231313752010,  0.0000079865567386,  0.0000048312358558 ]
  - [  -0.0000004414469004, -0.0000066095963120,  0.0001551485620439 ]
  - [   0.0000385966268368,  0.0000006258487701, -0.0000003157183528 ]
  - [  -0.0000002153101377,  0.0000072023831308, -0.0001520616933703 ]
  - [   0.0006592646241188,  0.0004543809336610, -0.0001015868037939 ]
  - [  -0.0001544840633869, -0.0000007228766776, -0.0000003632158041 ]
  - [   0.0006329030729830, -0.0004362260806374,  0.0000921487808228 ]
  - [  -0.0000209636054933, -0.0000773229476181,  0.0000153705477715 ]
  - [  -0.0000184904783964,  0.0000784984949860, -0.0000132992863655 ]
  - [   0.0001718022394925,  0.0000020106003831,  0.0000001434236765 ]
  - [  -0.0001228242181242,  0.0000007832422853,  0.0000002626329660 ]
  - [  -0.0008664252236485,  0.0005956511013210,  0.0004213247448206 ]
  - [  -0.0008530390914530, -0.0005912678316236, -0.0004176497459412 ]
  - [   0.0000826757168397,  0.0000517629086971,  0.0000365502201021 ]
  - [   0.0000791226048023, -0.0000481195747852, -0.0000335713848472 ]
  - [   0.0007467237301171, -0.0000026486814022, -0.0000017350539565 ]
  - [  -0.0000034458935261,  0.0000003455206752, -0.0000009811483324 ]
  - [  -0.0000134408473969,  0.0000836774706841, -0.0000242670066655 ]
  - [  -0.0000097267329693, -0.0000831428915262,  0.0000211587175727 ]
  - [   0.0006589442491531,  0.0000554108992219,  0.0004618656821549 ]
  - [  -0.0001511145383120,  0.0000005667097867, -0.0000010430812836 ]
  - [   0.0006344784051180, -0.0000576963648200, -0.0004426669329405 ]
  - [  -0.0000021404121071, -0.0000023534521461,  0.0000027474015951 ]
  - [  -0.0000133097637445,  0.0000028721988201,  0.0000880961306393 ]
  - [  -0.0000100062461570, -0.0000094166025519, -0.0000840001739562 ]
  - [   0.0000018132850528,  0.0000113649293780,  0.0000098850578070 ]
  - [  -0.0000018598511815,  0.0000006342306733,  0.0000030645169318 ]
  - [   0.0000015534460545, -0.0000101104378700, -0.0000051697716117 ]
  - [  -0.0000218227505684, -0.0000097574666142, -0.0000752876512706 ]
  - [  -0.0000191396102309,  0.0000155819579959,  0.0000811843201518 ]
  - [   0.0001695230603218,  0.0000026626512408,  0.0000046449713409 ]
  - [  -0.0000421004369855, -0.0000883219763637, -0.0001269821077585 ]
  - [  -0.0000450313091278,  0.0000915313139558,  0.0001229364424944 ]
  - [  -0.0012893928214908, -0.0000295955687761,  0.0000065434724092 ]
  - [   0.0001125447452068, -0.0000015664845705,  0.0000003799796104 ]
  - [  -0.0000413749366999,  0.0000118166208267,  0.0000085551291704 ]
  - [  -0.0000394806265831, -0.0000145668163896, -0.0000086147338152 ]
  - [   0.0073441788554192, -0.0050051929429173, -0.0035388935357332 ]
  - [  -0.0000588018447161,  0.0000001355074346,  0.0000009909272194 ]
  - [   0.0071399277076125,  0.0048499093391001,  0.0034301709383726 ]
  - [  -0.0000638803467155, -0.0000004954636097, -0.0000015590339899 ]
  - [  -0.0001133419573307, -0.0000980021432042, -0.0000691283494234 ]
  - [  -0.0001090858131647,  0.0000987080857158,  0.0000698044896126 ]
  - [  -0.0000346656888723,  0.0000636028125882, -0.0001128427684307 ]
  - [   0.0000271750614047,  0.0000009802170098, -0.0000007972121239 ]
  - [  -0.0000339625403285, -0.0000650649890304,  0.0001131165772676 ]
  - [  -0.0000436641275883, -0.0001466283574700, -0.0000427365303040 ]
  - [  -0.0000449847429991,  0.0001480132341385,  0.0000441242009401 ]
  - [  -0.0012917835265398, -0.0000018132850528, -0.0000312477350235 ]
  - [  -0.0000349627807736, -0.0000842739827931,  0.0000973641872406 ]
  - [   0.0000269496813416,  0.0000012414529920,  0.0000008754432201 ]
  - [  -0.0000340910628438,  0.0000865496695042, -0.0000991281121969 ]
  - [   0.0000079497694969,  0.0000071097165346,  0.0000070091336966 ]
  - [   0.0000111169647425, -0.0000107400119305, -0.0000070556998253 ]
  - [  -0.0000191768631339, -0.0000017774291337, -0.0000001769512892 ]
  - [   0.0001152856275439, -0.0000011362135410, -0.0000013820827007 ]
  - [  -0.0000384654849768,  0.0000118464231491,  0.0000066980719566 ]
  - [  -0.0000396408140659, -0.0000130888074636, -0.0000113490968943 ]
- atom:   55
  displacement:
    [   0.0100000000000000,  0.0000000000000000,  0.0000000000000000 ]
  forces:
  - [   0.0006405948661268,  0.0004403101047501, -0.0001002252101898 ]
  - [   0.0006519625894725, -0.0004491396248341,  0.0000951290130615 ]
  - [  -0.0001548839500174,  0.0000009059440345, -0.0000012093223631 ]
  - [  -0.0001242742873728, -0.0000041682505980, -0.0000024503096938 ]
  - [  -0.0008508702740073, -0.0005904838908464, -0.0004170225001872 ]
  - [  -0.0008674398995936,  0.0005964117590338,  0.0004223668947816 ]
  - [  -0.0000203428789973, -0.0000770682236180,  0.0000257301144302 ]
  - [   0.0001697828993201, -0.0000057916622609,  0.0000025685876608 ]
  - [  -0.0000173314474523,  0.0000793705694377, -0.0000262935645878 ]
  - [  -0.0000033916439861,  0.0000004138564691, -0.0000007599592209 ]
  - [  -0.0000093941343948, -0.0000176571775228, -0.0000810176134109 ]
  - [  -0.0000110222026706,  0.0000172066502273,  0.0000824891030788 ]
  - [  -0.0000205049291253, -0.0000018357532099, -0.0000821999274194 ]
  - [   0.0001693605445325, -0.0000002132728696, -0.0000068261288106 ]
  - [  -0.0000174557790160,  0.0000008705537766,  0.0000822977162898 ]
  - [   0.0000017394777387, -0.0000015071127564, -0.0000000633299351 ]
  - [   0.0000002346932888, -0.0000008533243090,  0.0000004088506103 ]
  - [  -0.0000036323908716, -0.0000014085089788, -0.0000003655441105 ]
  - [   0.0000767852179706,  0.0000476776622236,  0.0000333711504936 ]
  - [   0.0007450259290636,  0.0000068917870522,  0.0000051856040955 ]
  - [   0.0000849096104503, -0.0000520059838891, -0.0000370889902115 ]
  - [   0.0006411015056074,  0.0000520348548889,  0.0004480145871639 ]
  - [   0.0006526820361614, -0.0000604265369475, -0.0004561841487885 ]
  - [  -0.0001536472700536, -0.0000011497177184,  0.0000001671724021 ]
  - [  -0.0000034936238080, -0.0000008984934539, -0.0000000004656613 ]
  - [  -0.0000119952064779, -0.0000826844479889,  0.0000102757476270 ]
  - [  -0.0000096710864455,  0.0000828758347780, -0.0000111926347017 ]
  - [   0.0071405242197216,  0.0048569329082966,  0.0034341067075729 ]
  - [   0.0073439474217594, -0.0049985484220088, -0.0035355039872229 ]
  - [  -0.0000605194363743,  0.0000028344802558,  0.0000012842938304 ]
  - [  -0.0012928731739521, -0.0000191903673112,  0.0000112322159111 ]
  - [  -0.0000433940440416, -0.0000922675244510,  0.0000955685973167 ]
  - [  -0.0000443644821644,  0.0000872011296451, -0.0000943127088249 ]
  - [  -0.0000397725962102, -0.0000118431635201, -0.0000092359259725 ]
  - [   0.0001125424169004,  0.0000025443732738, -0.0000004912726581 ]
  - [  -0.0000393013469875,  0.0000133491121233,  0.0000068875961006 ]
  - [  -0.0012919334694743,  0.0000055767595768, -0.0000213850289583 ]
  - [  -0.0000429283827543,  0.0000595808960497, -0.0001189149916172 ]
  - [  -0.0000441176816821, -0.0000591180287302,  0.0001141354441643 ]
  - [  -0.0001123182009906, -0.0001099756918848, -0.0000773924402893 ]
  - [  -0.0000637724297121, -0.0000002107117325,  0.0000000395812094 ]
  - [  -0.0001083675306290,  0.0001065873075277,  0.0000756946392357 ]
  - [  -0.0000348760513589,  0.0001404434442520,  0.0000410638749599 ]
  - [  -0.0000356091768481, -0.0001448739785701, -0.0000389069318771 ]
  - [   0.0000243223621510, -0.0000006321351975,  0.0000002789311111 ]
  - [  -0.0000402303412557, -0.0000117658637464, -0.0000092941336334 ]
  - [   0.0001126476563513,  0.0000008572824299,  0.0000004931353033 ]
  - [  -0.0000391989015043,  0.0000117695890367,  0.0000094724819064 ]
  - [  -0.0000347378663719,  0.0000858288258314,  0.0001190458424389 ]
  - [  -0.0000354539370164, -0.0000842493027449, -0.0001221448183060 ]
  - [   0.0000246914569288,  0.0000002402812243, -0.0000005462206900 ]
  - [  -0.0000189898419194, -0.0000001194421202, -0.0000007017515600 ]
  - [   0.0000110765686259,  0.0000092845875770,  0.0000056391581893 ]
  - [   0.0000097132287920, -0.0000083532650024, -0.0000068526715040 ]
  - [  -0.0428922809660435, -0.0001034259694279, -0.0000727549195290 ]
  - [   0.0012541729956865, -0.0001437290920876, -0.0001017469912767 ]
  - [   0.0011776308529079,  0.0001437485479983,  0.0001012869179249 ]
  - [   0.0000204849056900,  0.0008517861133441, -0.0002542100846767 ]
  - [   0.0001279576681554,  0.0000018452906261,  0.0000007785856724 ]
  - [   0.0000107327941805, -0.0008247304940596,  0.0002541970461607 ]
  - [   0.0000126203522086,  0.0005410661688074, -0.0001526325941086 ]
  - [   0.0000159868504852, -0.0005591392982751,  0.0001528505235910 ]
  - [   0.0001281572040170, -0.0000015955884010,  0.0000003781169653 ]
  - [   0.0000200045760721,  0.0000440943986177,  0.0008874377235770 ]