# Thermal properties / unit cell (natom)

unit:
  temperature:   K
  free_energy:   kJ/mol
  entropy:       J/K/mol
  heat_capacity: J/K/mol

natom: 4    
cutoff_frequency: 0.00000
num_modes: 263424
num_integrated_modes: 263422

zero_point_energy:      14.7499624

thermal_properties:
- temperature:         0.0000000
  free_energy:        14.7499624
  entropy:             0.0000000
  heat_capacity:       0.0000000
  energy:             14.7499624

- temperature:        10.0000000
  free_energy:        14.7495055
  entropy:             0.1891962
  heat_capacity:       0.6642231
  energy:             14.7513975

- temperature:        20.0000000
  free_energy:        14.7408886
  entropy:             1.8864947
  heat_capacity:       5.4485715
  energy:             14.7786185

- temperature:        30.0000000
  free_energy:        14.7057074
  entropy:             5.3844581
  heat_capacity:      12.4131021
  energy:             14.8672412

- temperature:        40.0000000
  free_energy:        14.6296904
  entropy:             9.9450397
  heat_capacity:      19.5945507
  energy:             15.0274920

- temperature:        50.0000000
  free_energy:        14.5050088
  entropy:            15.0525605
  heat_capacity:      26.3472392
  energy:             15.2576368

- temperature:        60.0000000
  free_energy:        14.3278010
  entropy:            20.4161279
  heat_capacity:      32.6030393
  energy:             15.5527687

- temperature:        70.0000000
  free_energy:        14.0963414
  entropy:            25.8853081
  heat_capacity:      38.4414440
  energy:             15.9083130

- temperature:        80.0000000
  free_energy:        13.8100159
  entropy:            31.3791126
  heat_capacity:      43.9024345
  energy:             16.3203449

- temperature:        90.0000000
  free_energy:        13.4688467
  entropy:            36.8471016
  heat_capacity:      48.9803178
  energy:             16.7850859

- temperature:       100.0000000
  free_energy:        13.0732808
  entropy:            42.2533048
  heat_capacity:      53.6565335
  energy:             17.2986112

- temperature:       110.0000000
  free_energy:        12.6240778
  entropy:            47.5705816
  heat_capacity:      57.9208408
  energy:             17.8568418

- temperature:       120.0000000
  free_energy:        12.1222339
  entropy:            52.7786212
  heat_capacity:      61.7777069
  energy:             18.4556684

- temperature:       130.0000000
  free_energy:        11.5689185
  entropy:            57.8628996
  heat_capacity:      65.2447165
  energy:             19.0910954

- temperature:       140.0000000
  free_energy:        10.9654210
  entropy:            62.8137861
  heat_capacity:      68.3483619
  energy:             19.7593510

- temperature:       150.0000000
  free_energy:        10.3131065
  entropy:            67.6256594
  heat_capacity:      71.1198710
  energy:             20.4569554

- temperature:       160.0000000
  free_energy:         9.6133796
  entropy:            72.2960686
  heat_capacity:      73.5919941
  energy:             21.1807506

- temperature:       170.0000000
  free_energy:         8.8676569
  entropy:            76.8249863
  heat_capacity:      75.7968549
  energy:             21.9279046

- temperature:       180.0000000
  free_energy:         8.0773458
  entropy:            81.2141780
  heat_capacity:      77.7646724
  energy:             22.6958978

- temperature:       190.0000000
  free_energy:         7.2438291
  entropy:            85.4666914
  heat_capacity:      79.5231092
  energy:             23.4825004

- temperature:       200.0000000
  free_energy:         6.3684545
  entropy:            89.5864538
  heat_capacity:      81.0970303
  energy:             24.2857453

- temperature:       210.0000000
  free_energy:         5.4525275
  entropy:            93.5779635
  heat_capacity:      82.5085145
  energy:             25.1038999

- temperature:       220.0000000
  free_energy:         4.4973067
  entropy:            97.4460570
  heat_capacity:      83.7770070
  energy:             25.9354392

- temperature:       230.0000000
  free_energy:         3.5040011
  entropy:           101.1957360
  heat_capacity:      84.9195435
  energy:             26.7790204

- temperature:       240.0000000
  free_energy:         2.4737698
  entropy:           104.8320424
  heat_capacity:      85.9510004
  energy:             27.6334600

- temperature:       250.0000000
  free_energy:         1.4077215
  entropy:           108.3599681
  heat_capacity:      86.8843461
  energy:             28.4977135

- temperature:       260.0000000
  free_energy:         0.3069155
  entropy:           111.7843933
  heat_capacity:      87.7308781
  energy:             29.3708577

- temperature:       270.0000000
  free_energy:        -0.8276371
  entropy:           115.1100437
  heat_capacity:      88.5004402
  energy:             30.2520747

- temperature:       280.0000000
  free_energy:        -1.9949713
  entropy:           118.3414643
  heat_capacity:      89.2016152
  energy:             31.1406387

- temperature:       290.0000000
  free_energy:        -3.1941668
  entropy:           121.4830032
  heat_capacity:      89.8418960
  energy:             32.0359041

- temperature:       300.0000000
  free_energy:        -4.4243456
  entropy:           124.5388039
  heat_capacity:      90.4278334
  energy:             32.9372955

- temperature:       310.0000000
  free_energy:        -5.6846703
  entropy:           127.5128035
  heat_capacity:      90.9651648
  energy:             33.8442988

- temperature:       320.0000000
  free_energy:        -6.9743415
  entropy:           130.4087349
  heat_capacity:      91.4589241
  energy:             34.7564537

- temperature:       330.0000000
  free_energy:        -8.2925965
  entropy:           133.2301316
  heat_capacity:      91.9135377
  energy:             35.6733469

- temperature:       340.0000000
  free_energy:        -9.6387068
  entropy:           135.9803348
  heat_capacity:      92.3329052
  energy:             36.5946070

- temperature:       350.0000000
  free_energy:       -11.0119764
  entropy:           138.6625014
  heat_capacity:      92.7204698
  energy:             37.5198990

- temperature:       360.0000000
  free_energy:       -12.4117400
  entropy:           141.2796128
  heat_capacity:      93.0792780
  energy:             38.4489206

- temperature:       370.0000000
  free_energy:       -13.8373613
  entropy:           143.8344839
  heat_capacity:      93.4120315
  energy:             39.3813978

- temperature:       380.0000000
  free_energy:       -15.2882311
  entropy:           146.3297723
  heat_capacity:      93.7211308
  energy:             40.3170824

- temperature:       390.0000000
  free_energy:       -16.7637665
  entropy:           148.7679876
  heat_capacity:      94.0087137
  energy:             41.2557487

- temperature:       400.0000000
  free_energy:       -18.2634085
  entropy:           151.1514996
  heat_capacity:      94.2766879
  energy:             42.1971913

- temperature:       410.0000000
  free_energy:       -19.7866216
  entropy:           153.4825473
  heat_capacity:      94.5267591
  energy:             43.1412228

- temperature:       420.0000000
  free_energy:       -21.3328917
  entropy:           155.7632467
  heat_capacity:      94.7604558
  energy:             44.0876719

- temperature:       430.0000000
  free_energy:       -22.9017254
  entropy:           157.9955984
  heat_capacity:      94.9791502
  energy:             45.0363819

- temperature:       440.0000000
  free_energy:       -24.4926488
  entropy:           160.1814951
  heat_capacity:      95.1840764
  energy:             45.9872090

- temperature:       450.0000000
  free_energy:       -26.1052064
  entropy:           162.3227282
  heat_capacity:      95.3763468
  energy:             46.9400213

- temperature:       460.0000000
  free_energy:       -27.7389602
  entropy:           164.4209941
  heat_capacity:      95.5569654
  energy:             47.8946972

- temperature:       470.0000000
  free_energy:       -29.3934884
  entropy:           166.4779005
  heat_capacity:      95.7268404
  energy:             48.8511248

- temperature:       480.0000000
  free_energy:       -31.0683854
  entropy:           168.4949714
  heat_capacity:      95.8867948
  energy:             49.8092009

- temperature:       490.0000000
  free_energy:       -32.7632599
  entropy:           170.4736531
  heat_capacity:      96.0375752
  energy:             50.7688301

- temperature:       500.0000000
  free_energy:       -34.4777351
  entropy:           172.4153183
  heat_capacity:      96.1798605
  energy:             51.7299241

- temperature:       510.0000000
  free_energy:       -36.2114473
  entropy:           174.3212712
  heat_capacity:      96.3142687
  energy:             52.6924011

- temperature:       520.0000000
  free_energy:       -37.9640456
  entropy:           176.1927513
  heat_capacity:      96.4413636
  energy:             53.6561851

- temperature:       530.0000000
  free_energy:       -39.7351913
  entropy:           178.0309377
  heat_capacity:      96.5616597
  energy:             54.6212057

- temperature:       540.0000000
  free_energy:       -41.5245571
  entropy:           179.8369524
  heat_capacity:      96.6756279
  energy:             55.5873972

- temperature:       550.0000000
  free_energy:       -43.3318267
  entropy:           181.6118641
  heat_capacity:      96.7836995
  energy:             56.5546986

- temperature:       560.0000000
  free_energy:       -45.1566941
  entropy:           183.3566910
  heat_capacity:      96.8862699
  energy:             57.5230529

- temperature:       570.0000000
  free_energy:       -46.9988635
  entropy:           185.0724041
  heat_capacity:      96.9837025
  energy:             58.4924069

- temperature:       580.0000000
  free_energy:       -48.8580482
  entropy:           186.7599296
  heat_capacity:      97.0763313
  energy:             59.4627109

- temperature:       590.0000000
  free_energy:       -50.7339710
  entropy:           188.4201518
  heat_capacity:      97.1644640
  energy:             60.4339185

- temperature:       600.0000000
  free_energy:       -52.6263631
  entropy:           190.0539154
  heat_capacity:      97.2483841
  energy:             61.4059861

- temperature:       610.0000000
  free_energy:       -54.5349639
  entropy:           191.6620277
  heat_capacity:      97.3283537
  energy:             62.3788730

- temperature:       620.0000000
  free_energy:       -56.4595207
  entropy:           193.2452606
  heat_capacity:      97.4046145
  energy:             63.3525409

- temperature:       630.0000000
  free_energy:       -58.3997886
  entropy:           194.8043528
  heat_capacity:      97.4773907
  energy:             64.3269537

- temperature:       640.0000000
  free_energy:       -60.3555297
  entropy:           196.3400116
  heat_capacity:      97.5468894
  energy:             65.3020777

- temperature:       650.0000000
  free_energy:       -62.3265130
  entropy:           197.8529141
  heat_capacity:      97.6133032
  energy:             66.2778812

- temperature:       660.0000000
  free_energy:       -64.3125143
  entropy:           199.3437097
  heat_capacity:      97.6768104
  energy:             67.2543341

- temperature:       670.0000000
  free_energy:       -66.3133156
  entropy:           200.8130207
  heat_capacity:      97.7375771
  energy:             68.2314083

- temperature:       680.0000000
  free_energy:       -68.3287050
  entropy:           202.2614443
  heat_capacity:      97.7957575
  energy:             69.2090770

- temperature:       690.0000000
  free_energy:       -70.3584767
  entropy:           203.6895537
  heat_capacity:      97.8514953
  energy:             70.1873153

- temperature:       700.0000000
  free_energy:       -72.4024302
  entropy:           205.0978993
  heat_capacity:      97.9049245
  energy:             71.1660993

- temperature:       710.0000000
  free_energy:       -74.4603706
  entropy:           206.4870100
  heat_capacity:      97.9561699
  energy:             72.1454065

- temperature:       720.0000000
  free_energy:       -76.5321080
  entropy:           207.8573942
  heat_capacity:      98.0053483
  energy:             73.1252158

- temperature:       730.0000000
  free_energy:       -78.6174577
  entropy:           209.2095406
  heat_capacity:      98.0525685
  energy:             74.1055069

- temperature:       740.0000000
  free_energy:       -80.7162396
  entropy:           210.5439197
  heat_capacity:      98.0979327
  energy:             75.0862609

- temperature:       750.0000000
  free_energy:       -82.8282784
  entropy:           211.8609841
  heat_capacity:      98.1415361
  energy:             76.0674597

- temperature:       760.0000000
  free_energy:       -84.9534030
  entropy:           213.1611699
  heat_capacity:      98.1834684
  energy:             77.0490861

- temperature:       770.0000000
  free_energy:       -87.0914469
  entropy:           214.4448970
  heat_capacity:      98.2238132
  energy:             78.0311238

- temperature:       780.0000000
  free_energy:       -89.2422475
  entropy:           215.7125703
  heat_capacity:      98.2626493
  energy:             79.0135573

- temperature:       790.0000000
  free_energy:       -91.4056461
  entropy:           216.9645799
  heat_capacity:      98.3000507
  energy:             79.9963720

- temperature:       800.0000000
  free_energy:       -93.5814881
  entropy:           218.2013024
  heat_capacity:      98.3360867
  energy:             80.9795538

- temperature:       810.0000000
  free_energy:       -95.7696224
  entropy:           219.4231010
  heat_capacity:      98.3708226
  energy:             81.9630894

- temperature:       820.0000000
  free_energy:       -97.9699016
  entropy:           220.6303264
  heat_capacity:      98.4043201
  energy:             82.9469661

- temperature:       830.0000000
  free_energy:      -100.1821815
  entropy:           221.8233173
  heat_capacity:      98.4366369
  energy:             83.9311719

- temperature:       840.0000000
  free_energy:      -102.4063215
  entropy:           223.0024008
  heat_capacity:      98.4678276
  energy:             84.9156951

- temperature:       850.0000000
  free_energy:      -104.6421842
  entropy:           224.1678930
  heat_capacity:      98.4979438
  energy:             85.9005248

- temperature:       860.0000000
  free_energy:      -106.8896351
  entropy:           225.3200996
  heat_capacity:      98.5270340
  energy:             86.8856506

- temperature:       870.0000000
  free_energy:      -109.1485429
  entropy:           226.4593163
  heat_capacity:      98.5551440
  energy:             87.8710623

- temperature:       880.0000000
  free_energy:      -111.4187791
  entropy:           227.5858289
  heat_capacity:      98.5823173
  energy:             88.8567503

- temperature:       890.0000000
  free_energy:      -113.7002181
  entropy:           228.6999142
  heat_capacity:      98.6085949
  energy:             89.8427056

- temperature:       900.0000000
  free_energy:      -115.9927369
  entropy:           229.8018402
  heat_capacity:      98.6340154
  energy:             90.8289194

- temperature:       910.0000000
  free_energy:      -118.2962152
  entropy:           230.8918664
  heat_capacity:      98.6586157
  energy:             91.8153832

- temperature:       920.0000000
  free_energy:      -120.6105354
  entropy:           231.9702439
  heat_capacity:      98.6824305
  energy:             92.8020891

- temperature:       930.0000000
  free_energy:      -122.9355821
  entropy:           233.0372165
  heat_capacity:      98.7054928
  energy:             93.7890293

- temperature:       940.0000000
  free_energy:      -125.2712425
  entropy:           234.0930202
  heat_capacity:      98.7278338
  energy:             94.7761965

- temperature:       950.0000000
  free_energy:      -127.6174060
  entropy:           235.1378838
  heat_capacity:      98.7494832
  energy:             95.7635837

- temperature:       960.0000000
  free_energy:      -129.9739644
  entropy:           236.1720295
  heat_capacity:      98.7704691
  energy:             96.7511840

- temperature:       970.0000000
  free_energy:      -132.3408116
  entropy:           237.1956727
  heat_capacity:      98.7908183
  energy:             97.7389909

- temperature:       980.0000000
  free_energy:      -134.7178435
  entropy:           238.2090223
  heat_capacity:      98.8105562
  energy:             98.7269983

- temperature:       990.0000000
  free_energy:      -137.1049584
  entropy:           239.2122813
  heat_capacity:      98.8297070
  energy:             99.7152001

- temperature:      1000.0000000
  free_energy:      -139.5020562
  entropy:           240.2056467
  heat_capacity:      98.8482936
  energy:            100.7035905
