phonopy:
  version: "2.37.1"
  frequency_unit_conversion_factor: 15.633302
  symmetry_tolerance: 1.00000e-05

space_group:
  type: "P1"
  number: 1
  Hall_symbol: "P 1"

primitive_matrix:
- [  1.000000000000000,  0.000000000000000,  0.000000000000000 ]
- [  0.000000000000000, -1.000000000000000,  0.000000000000000 ]
- [  0.000000000000000,  0.000000000000000, -1.000000000000000 ]

supercell_matrix:
- [   3,   0,   0 ]
- [   0,   3,   0 ]
- [   0,   0,   2 ]

primitive_cell:
  lattice:
  - [     4.924134135455818,     0.000000000000000,     0.000000000000000 ] # a
  - [     1.719026366800877,    -4.622659581584951,     0.000000000000000 ] # b
  - [     0.014203763487603,    -0.011424018841277,    -5.625083323347043 ] # c
  points:
  - symbol: Sn # 1
    coordinates: [  0.481630219336309,  0.098049263459729,  0.633549713045485 ]
    mass: 118.710000
  - symbol: Sn # 2
    coordinates: [  0.979973744865318,  0.598373562293781,  0.133551503143487 ]
    mass: 118.710000
  - symbol: Sn # 3
    coordinates: [  0.121255102125110,  0.737260570108867,  0.633099169401392 ]
    mass: 118.710000
  - symbol: Sn # 4
    coordinates: [  0.619862603762193,  0.237723618484571,  0.133132051793594 ]
    mass: 118.710000
  reciprocal_lattice: # without 2pi
  - [     0.203081389030324,     0.075519785999465,     0.000359422331040 ] # a*
  - [     0.000000000000000,    -0.216325684890068,     0.000439337260975 ] # b*
  - [     0.000000000000000,    -0.000000000000000,    -0.177775144387546 ] # c*

unit_cell:
  lattice:
  - [     4.924134135455817,     0.000000000000000,     0.000000000000000 ] # a
  - [    -1.719026366800877,     4.622659581584951,     0.000000000000000 ] # b
  - [    -0.014203763487603,     0.011424018841277,     5.625083323347043 ] # c
  points:
  - symbol: Sn # 1
    coordinates: [  0.481630219336309,  0.901950736540271,  0.366450286954515 ]
    mass: 118.710000
    reduced_to: 1
  - symbol: Sn # 2
    coordinates: [  0.979973744865318,  0.401626437706219,  0.866448496856513 ]
    mass: 118.710000
    reduced_to: 2
  - symbol: Sn # 3
    coordinates: [  0.121255102125110,  0.262739429891133,  0.366900830598608 ]
    mass: 118.710000
    reduced_to: 3
  - symbol: Sn # 4
    coordinates: [  0.619862603762194,  0.762276381515429,  0.866867948206407 ]
    mass: 118.710000
    reduced_to: 4

supercell:
  lattice:
  - [    14.772402406367451,     0.000000000000000,     0.000000000000000 ] # a
  - [    -5.157079100402632,    13.867978744754854,     0.000000000000000 ] # b
  - [    -0.028407526975205,     0.022848037682555,    11.250166646694085 ] # c
  points:
  - symbol: Sn # 1
    coordinates: [  0.160543406445436,  0.300650245513424,  0.183225143477258 ]
    mass: 118.710000
    reduced_to: 1
  - symbol: Sn # 2
    coordinates: [  0.493876739778770,  0.300650245513424,  0.183225143477258 ]
    mass: 118.710000
    reduced_to: 1
  - symbol: Sn # 3
    coordinates: [  0.827210073112103,  0.300650245513424,  0.183225143477258 ]
    mass: 118.710000
    reduced_to: 1
  - symbol: Sn # 4
    coordinates: [  0.160543406445436,  0.633983578846757,  0.183225143477258 ]
    mass: 118.710000
    reduced_to: 1
  - symbol: Sn # 5
    coordinates: [  0.493876739778770,  0.633983578846757,  0.183225143477258 ]
    mass: 118.710000
    reduced_to: 1
  - symbol: Sn # 6
    coordinates: [  0.827210073112103,  0.633983578846757,  0.183225143477258 ]
    mass: 118.710000
    reduced_to: 1
  - symbol: Sn # 7
    coordinates: [  0.160543406445436,  0.967316912180090,  0.183225143477258 ]
    mass: 118.710000
    reduced_to: 1
  - symbol: Sn # 8
    coordinates: [  0.493876739778770,  0.967316912180090,  0.183225143477258 ]
    mass: 118.710000
    reduced_to: 1
  - symbol: Sn # 9
    coordinates: [  0.827210073112103,  0.967316912180090,  0.183225143477258 ]
    mass: 118.710000
    reduced_to: 1
  - symbol: Sn # 10
    coordinates: [  0.160543406445436,  0.300650245513424,  0.683225143477258 ]
    mass: 118.710000
    reduced_to: 1
  - symbol: Sn # 11
    coordinates: [  0.493876739778770,  0.300650245513424,  0.683225143477258 ]
    mass: 118.710000
    reduced_to: 1
  - symbol: Sn # 12
    coordinates: [  0.827210073112103,  0.300650245513424,  0.683225143477258 ]
    mass: 118.710000
    reduced_to: 1
  - symbol: Sn # 13
    coordinates: [  0.160543406445436,  0.633983578846757,  0.683225143477258 ]
    mass: 118.710000
    reduced_to: 1
  - symbol: Sn # 14
    coordinates: [  0.493876739778770,  0.633983578846757,  0.683225143477258 ]
    mass: 118.710000
    reduced_to: 1
  - symbol: Sn # 15
    coordinates: [  0.827210073112103,  0.633983578846757,  0.683225143477258 ]
    mass: 118.710000
    reduced_to: 1
  - symbol: Sn # 16
    coordinates: [  0.160543406445436,  0.967316912180090,  0.683225143477258 ]
    mass: 118.710000
    reduced_to: 1
  - symbol: Sn # 17
    coordinates: [  0.493876739778770,  0.967316912180090,  0.683225143477258 ]
    mass: 118.710000
    reduced_to: 1
  - symbol: Sn # 18
    coordinates: [  0.827210073112103,  0.967316912180090,  0.683225143477258 ]
    mass: 118.710000
    reduced_to: 1
  - symbol: Sn # 19
    coordinates: [  0.326657914955106,  0.133875479235406,  0.433224248428256 ]
    mass: 118.710000
    reduced_to: 19
  - symbol: Sn # 20
    coordinates: [  0.659991248288439,  0.133875479235406,  0.433224248428256 ]
    mass: 118.710000
    reduced_to: 19
  - symbol: Sn # 21
    coordinates: [  0.993324581621773,  0.133875479235406,  0.433224248428256 ]
    mass: 118.710000
    reduced_to: 19
  - symbol: Sn # 22
    coordinates: [  0.326657914955106,  0.467208812568740,  0.433224248428256 ]
    mass: 118.710000
    reduced_to: 19
  - symbol: Sn # 23
    coordinates: [  0.659991248288439,  0.467208812568740,  0.433224248428256 ]
    mass: 118.710000
    reduced_to: 19
  - symbol: Sn # 24
    coordinates: [  0.993324581621773,  0.467208812568740,  0.433224248428256 ]
    mass: 118.710000
    reduced_to: 19
  - symbol: Sn # 25
    coordinates: [  0.326657914955106,  0.800542145902073,  0.433224248428256 ]
    mass: 118.710000
    reduced_to: 19
  - symbol: Sn # 26
    coordinates: [  0.659991248288439,  0.800542145902073,  0.433224248428256 ]
    mass: 118.710000
    reduced_to: 19
  - symbol: Sn # 27
    coordinates: [  0.993324581621773,  0.800542145902073,  0.433224248428256 ]
    mass: 118.710000
    reduced_to: 19
  - symbol: Sn # 28
    coordinates: [  0.326657914955106,  0.133875479235406,  0.933224248428256 ]
    mass: 118.710000
    reduced_to: 19
  - symbol: Sn # 29
    coordinates: [  0.659991248288439,  0.133875479235406,  0.933224248428256 ]
    mass: 118.710000
    reduced_to: 19
  - symbol: Sn # 30
    coordinates: [  0.993324581621773,  0.133875479235406,  0.933224248428256 ]
    mass: 118.710000
    reduced_to: 19
  - symbol: Sn # 31
    coordinates: [  0.326657914955106,  0.467208812568740,  0.933224248428256 ]
    mass: 118.710000
    reduced_to: 19
  - symbol: Sn # 32
    coordinates: [  0.659991248288439,  0.467208812568740,  0.933224248428256 ]
    mass: 118.710000
    reduced_to: 19
  - symbol: Sn # 33
    coordinates: [  0.993324581621773,  0.467208812568740,  0.933224248428256 ]
    mass: 118.710000
    reduced_to: 19
  - symbol: Sn # 34
    coordinates: [  0.326657914955106,  0.800542145902073,  0.933224248428256 ]
    mass: 118.710000
    reduced_to: 19
  - symbol: Sn # 35
    coordinates: [  0.659991248288439,  0.800542145902073,  0.933224248428256 ]
    mass: 118.710000
    reduced_to: 19
  - symbol: Sn # 36
    coordinates: [  0.993324581621773,  0.800542145902073,  0.933224248428256 ]
    mass: 118.710000
    reduced_to: 19
  - symbol: Sn # 37
    coordinates: [  0.040418367375037,  0.087579809963711,  0.183450415299304 ]
    mass: 118.710000
    reduced_to: 37
  - symbol: Sn # 38
    coordinates: [  0.373751700708370,  0.087579809963711,  0.183450415299304 ]
    mass: 118.710000
    reduced_to: 37
  - symbol: Sn # 39
    coordinates: [  0.707085034041703,  0.087579809963711,  0.183450415299304 ]
    mass: 118.710000
    reduced_to: 37
  - symbol: Sn # 40
    coordinates: [  0.040418367375037,  0.420913143297044,  0.183450415299304 ]
    mass: 118.710000
    reduced_to: 37
  - symbol: Sn # 41
    coordinates: [  0.373751700708370,  0.420913143297044,  0.183450415299304 ]
    mass: 118.710000
    reduced_to: 37
  - symbol: Sn # 42
    coordinates: [  0.707085034041703,  0.420913143297044,  0.183450415299304 ]
    mass: 118.710000
    reduced_to: 37
  - symbol: Sn # 43
    coordinates: [  0.040418367375037,  0.754246476630378,  0.183450415299304 ]
    mass: 118.710000
    reduced_to: 37
  - symbol: Sn # 44
    coordinates: [  0.373751700708370,  0.754246476630378,  0.183450415299304 ]
    mass: 118.710000
    reduced_to: 37
  - symbol: Sn # 45
    coordinates: [  0.707085034041703,  0.754246476630378,  0.183450415299304 ]
    mass: 118.710000
    reduced_to: 37
  - symbol: Sn # 46
    coordinates: [  0.040418367375037,  0.087579809963711,  0.683450415299304 ]
    mass: 118.710000
    reduced_to: 37
  - symbol: Sn # 47
    coordinates: [  0.373751700708370,  0.087579809963711,  0.683450415299304 ]
    mass: 118.710000
    reduced_to: 37
  - symbol: Sn # 48
    coordinates: [  0.707085034041703,  0.087579809963711,  0.683450415299304 ]
    mass: 118.710000
    reduced_to: 37
  - symbol: Sn # 49
    coordinates: [  0.040418367375037,  0.420913143297044,  0.683450415299304 ]
    mass: 118.710000
    reduced_to: 37
  - symbol: Sn # 50
    coordinates: [  0.373751700708370,  0.420913143297044,  0.683450415299304 ]
    mass: 118.710000
    reduced_to: 37
  - symbol: Sn # 51
    coordinates: [  0.707085034041703,  0.420913143297044,  0.683450415299304 ]
    mass: 118.710000
    reduced_to: 37
  - symbol: Sn # 52
    coordinates: [  0.040418367375037,  0.754246476630378,  0.683450415299304 ]
    mass: 118.710000
    reduced_to: 37
  - symbol: Sn # 53
    coordinates: [  0.373751700708370,  0.754246476630378,  0.683450415299304 ]
    mass: 118.710000
    reduced_to: 37
  - symbol: Sn # 54
    coordinates: [  0.707085034041703,  0.754246476630378,  0.683450415299304 ]
    mass: 118.710000
    reduced_to: 37
  - symbol: Sn # 55
    coordinates: [  0.206620867920731,  0.254092127171810,  0.433433974103203 ]
    mass: 118.710000
    reduced_to: 55
  - symbol: Sn # 56
    coordinates: [  0.539954201254064,  0.254092127171810,  0.433433974103203 ]
    mass: 118.710000
    reduced_to: 55
  - symbol: Sn # 57
    coordinates: [  0.873287534587398,  0.254092127171810,  0.433433974103203 ]
    mass: 118.710000
    reduced_to: 55
  - symbol: Sn # 58
    coordinates: [  0.206620867920731,  0.587425460505143,  0.433433974103203 ]
    mass: 118.710000
    reduced_to: 55
  - symbol: Sn # 59
    coordinates: [  0.539954201254064,  0.587425460505143,  0.433433974103203 ]
    mass: 118.710000
    reduced_to: 55
  - symbol: Sn # 60
    coordinates: [  0.873287534587398,  0.587425460505143,  0.433433974103203 ]
    mass: 118.710000
    reduced_to: 55
  - symbol: Sn # 61
    coordinates: [  0.206620867920731,  0.920758793838476,  0.433433974103203 ]
    mass: 118.710000
    reduced_to: 55
  - symbol: Sn # 62
    coordinates: [  0.539954201254064,  0.920758793838476,  0.433433974103203 ]
    mass: 118.710000
    reduced_to: 55
  - symbol: Sn # 63
    coordinates: [  0.873287534587398,  0.920758793838476,  0.433433974103203 ]
    mass: 118.710000
    reduced_to: 55
  - symbol: Sn # 64
    coordinates: [  0.206620867920731,  0.254092127171810,  0.933433974103203 ]
    mass: 118.710000
    reduced_to: 55
  - symbol: Sn # 65
    coordinates: [  0.539954201254064,  0.254092127171810,  0.933433974103203 ]
    mass: 118.710000
    reduced_to: 55
  - symbol: Sn # 66
    coordinates: [  0.873287534587398,  0.254092127171810,  0.933433974103203 ]
    mass: 118.710000
    reduced_to: 55
  - symbol: Sn # 67
    coordinates: [  0.206620867920731,  0.587425460505143,  0.933433974103203 ]
    mass: 118.710000
    reduced_to: 55
  - symbol: Sn # 68
    coordinates: [  0.539954201254064,  0.587425460505143,  0.933433974103203 ]
    mass: 118.710000
    reduced_to: 55
  - symbol: Sn # 69
    coordinates: [  0.873287534587398,  0.587425460505143,  0.933433974103203 ]
    mass: 118.710000
    reduced_to: 55
  - symbol: Sn # 70
    coordinates: [  0.206620867920731,  0.920758793838476,  0.933433974103203 ]
    mass: 118.710000
    reduced_to: 55
  - symbol: Sn # 71
    coordinates: [  0.539954201254064,  0.920758793838476,  0.933433974103203 ]
    mass: 118.710000
    reduced_to: 55
  - symbol: Sn # 72
    coordinates: [  0.873287534587398,  0.920758793838476,  0.933433974103203 ]
    mass: 118.710000
    reduced_to: 55

displacements:
- atom:    1
  displacement:
    [   0.0100000000000000,  0.0000000000000000,  0.0000000000000000 ]
  forces:
  - [  -0.0452789068222046,  0.0075854873284698, -0.0021120596211404 ]
  - [  -0.0008371918229386, -0.0007110247388482, -0.0022726496681571 ]
  - [  -0.0007500229403377, -0.0010348475771025, -0.0022767763584852 ]
  - [  -0.0002265529474244, -0.0005312437424436, -0.0022729211486876 ]
  - [   0.0002395136980340,  0.0010547568090260, -0.0022798678837717 ]
  - [   0.0002871830947697, -0.0008967443136498, -0.0022728834301233 ]
  - [  -0.0002167483326048, -0.0008480063406751, -0.0022740939166397 ]
  - [   0.0002846694551408, -0.0008930356707424, -0.0022753160446882 ]
  - [   0.0002342631341890, -0.0009091678075492, -0.0022737439721823 ]
  - [  -0.0007984800031409, -0.0003139086766168, -0.0022811794187874 ]
  - [   0.0002690186956897, -0.0008933795616031, -0.0022730221971869 ]
  - [   0.0002735544694588, -0.0009596387390047, -0.0022662007249892 ]
  - [   0.0003102858318016, -0.0008777888724580, -0.0022736710961908 ]
  - [   0.0003923100885004, -0.0008385379333049, -0.0022743530571461 ]
  - [   0.0002968657063320, -0.0009059383301064, -0.0022749584168196 ]
  - [   0.0003158969338983, -0.0009422048460692, -0.0022716713137925 ]
  - [   0.0002986756153405, -0.0009074120316654, -0.0022710198536515 ]
  - [   0.0003921026363969, -0.0007113972678781, -0.0022738007828593 ]
  - [   0.0126725388690829, -0.0102149378508329, -0.0019546712283045 ]
  - [   0.0132255991920829, -0.0107506215572357, -0.0017998355906457 ]
  - [   0.0140106743201613, -0.0100654894486070, -0.0020377142354846 ]
  - [   0.0139968590810895, -0.0102930655702949, -0.0016570488223806 ]
  - [   0.0132354144006968, -0.0106830000877380, -0.0018155726138502 ]
  - [   0.0127961505204439, -0.0102927302941680, -0.0015299657825381 ]
  - [   0.0133063830435276, -0.0106590539216995, -0.0017857977654785 ]
  - [   0.0131393019109964, -0.0109192989766598, -0.0018967899959534 ]
  - [   0.0133004281669855, -0.0107192564755678, -0.0017940755933523 ]
  - [   0.0127056259661913, -0.0102329039946198, -0.0017238685395569 ]
  - [   0.0132294055074453, -0.0107466857880354, -0.0018377330852672 ]
  - [   0.0140073150396347, -0.0100741954520345, -0.0016142048407346 ]
  - [   0.0140082137659192, -0.0102845691144466, -0.0020063819829375 ]
  - [   0.0132332602515817, -0.0106857363134623, -0.0018213393632323 ]
  - [   0.0127254594117403, -0.0102503737434745, -0.0021775872446597 ]
  - [   0.0133092645555735, -0.0106592802330852, -0.0018546348437667 ]
  - [   0.0131451813504100, -0.0109238661825657, -0.0017423422541469 ]
  - [   0.0133003462105989, -0.0107204653322697, -0.0018484828760847 ]
  - [  -0.0034471673425287,  0.0096360687166452,  0.0018218681216240 ]
  - [  -0.0064208209514618,  0.0072515532374382,  0.0018119574524462 ]
  - [  -0.0061876075342298,  0.0078142480924726,  0.0018132687546313 ]
  - [   0.0202497057616711, -0.0091216731816530,  0.0018230678979307 ]
  - [   0.0091789783909917,  0.0145409274846315,  0.0018386589363217 ]
  - [  -0.0059062410145998,  0.0073785968124866,  0.0018133397679776 ]
  - [  -0.0057828077115119,  0.0074224933050573,  0.0018135140417144 ]
  - [  -0.0070530548691750,  0.0075068208388984,  0.0018140661995858 ]
  - [  -0.0058435592800379,  0.0077406214550138,  0.0018144875066355 ]
  - [  -0.0063809650018811,  0.0073522846214473,  0.0018146832007915 ]
  - [  -0.0062530161812901,  0.0074829440563917,  0.0018165612127632 ]
  - [  -0.0062691411003470,  0.0074675348587334,  0.0018134756246582 ]
  - [  -0.0069384882226586,  0.0079478202387691,  0.0018177928868681 ]
  - [  -0.0058344141580164,  0.0075476360507309,  0.0018156328005716 ]
  - [  -0.0062114670872688,  0.0074858926236629,  0.0018152344273403 ]
  - [  -0.0062262150458992,  0.0074772299267352,  0.0018161833286285 ]
  - [  -0.0061746658757329,  0.0075080627575517,  0.0018153479322791 ]
  - [  -0.0062471004202962,  0.0073845139704645,  0.0018152727279812 ]
  - [  -0.0045894989743829, -0.0001943698152900,  0.0075506544671953 ]
  - [  -0.0073626749217510,  0.0041754068806767,  0.0024455797392875 ]
  - [  -0.0076385284774005,  0.0040916581638157,  0.0025990488938987 ]
  - [  -0.0075578745454550,  0.0041291150264442,  0.0020886650308967 ]
  - [  -0.0072893071919680,  0.0042197736911476,  0.0025909773539752 ]
  - [  -0.0070899343118072,  0.0039609191007912,  0.0023631872609258 ]
  - [  -0.0074266521260142,  0.0041569406166673,  0.0021558708976954 ]
  - [  -0.0073922560550272,  0.0041678841225803,  0.0022673027124256 ]
  - [  -0.0071795270778239,  0.0042595379054546,  0.0021972008980811 ]
  - [  -0.0045246118679643, -0.0002422593533993, -0.0029687636997551 ]
  - [  -0.0073646847158670,  0.0041756392456591,  0.0021099359728396 ]
  - [  -0.0077395383268595,  0.0040733348578215,  0.0018837233074009 ]
  - [  -0.0075598168186843,  0.0041453987360001,  0.0024602166377008 ]
  - [  -0.0072864950634539,  0.0042248861864209,  0.0019671986810863 ]
  - [  -0.0070746354758739,  0.0039538685232401,  0.0022020940668881 ]
  - [  -0.0074278507381678,  0.0041588451713324,  0.0024020154960454 ]
  - [  -0.0074000013992190,  0.0041714347898960,  0.0022906705271453 ]
  - [  -0.0071819135919213,  0.0042579607106745,  0.0023582524154335 ]
- atom:    1
  displacement:
    [  -0.0100000000000000,  0.0000000000000000,  0.0000000000000000 ]
  forces:
  - [   0.0459760390222073, -0.0101636666804552, -0.0024183308705688 ]
  - [   0.0013613598421216, -0.0011417702771723, -0.0022738594561815 ]
  - [   0.0014476665528491, -0.0007963771931827, -0.0022757234983146 ]
  - [   0.0008305568480864, -0.0013341179583222, -0.0022771968506277 ]
  - [   0.0003699333174154, -0.0028890701942146, -0.0022731779608876 ]
  - [   0.0003296992508695, -0.0009539921302348, -0.0022744247689843 ]
  - [   0.0008420881349593, -0.0009945794008672, -0.0022753807716072 ]
  - [   0.0003263060934842, -0.0009495762642473, -0.0022760434076190 ]
  - [   0.0003647133708000, -0.0009459981229156, -0.0022735595703125 ]
  - [   0.0013985305558890, -0.0015191547572613, -0.0022660903632641 ]
  - [   0.0003320084651932, -0.0009450813522562, -0.0022743942681700 ]
  - [   0.0003366203745827, -0.0008793848101050, -0.0022756655234843 ]
  - [   0.0002877264050767, -0.0009644599631429, -0.0022740247659385 ]
  - [   0.0002139656571671, -0.0010060771601275, -0.0022737612016499 ]
  - [   0.0003056647256017, -0.0009341721888632, -0.0022737814579159 ]
  - [   0.0002932490315288, -0.0008982090512291, -0.0022747465409338 ]
  - [   0.0003068372607231, -0.0009339835960418, -0.0022708969190717 ]
  - [   0.0002148058265448, -0.0011279080063105, -0.0022723432630301 ]
  - [   0.0138979917392135, -0.0111976740881801, -0.0017066003056243 ]
  - [   0.0133396955206990, -0.0106680393218994, -0.0018430564086884 ]
  - [   0.0125642567873001, -0.0113389166072011, -0.0016017655143514 ]
  - [   0.0125761479139328, -0.0111161470413208, -0.0020032292231917 ]
  - [   0.0133393220603466, -0.0107270684093237, -0.0018281645607203 ]
  - [   0.0138267567381263, -0.0111491065472364, -0.0021585240028799 ]
  - [   0.0132737047970295, -0.0107573308050632, -0.0018586781807244 ]
  - [   0.0134289395064116, -0.0104891136288643, -0.0017420836957172 ]
  - [   0.0132687622681260, -0.0106921549886465, -0.0018522469326854 ]
  - [   0.0138451810926199, -0.0111634097993374, -0.0018835149239749 ]
  - [   0.0133355669677258, -0.0106697250157595, -0.0017939559184015 ]
  - [   0.0125788245350122, -0.0113387070596218, -0.0020290655083954 ]
  - [   0.0125660561025143, -0.0111215393990278, -0.0016214003553614 ]
  - [   0.0133448522537947, -0.0107307173311710, -0.0018133211415261 ]
  - [   0.0138772195205092, -0.0111829228699207, -0.0014258656883612 ]
  - [   0.0132755050435662, -0.0107557447627187, -0.0017821145011112 ]
  - [   0.0134347900748253, -0.0104941185563803, -0.0018962202593684 ]
  - [   0.0132690537720919, -0.0106918197125196, -0.0017869797302410 ]
  - [  -0.0090615171939135,  0.0051616230048239,  0.0018055926775560 ]
  - [  -0.0060099954716861,  0.0076974024996161,  0.0018170103430748 ]
  - [  -0.0062508038245142,  0.0071176271885633,  0.0018141905311495 ]
  - [  -0.0332854166626930,  0.0245713461190462,  0.0018074690597132 ]
  - [  -0.0210975371301174,  0.0008019809611142,  0.0017938666278496 ]
  - [  -0.0065446686930954,  0.0075896834023297,  0.0018134608399123 ]
  - [  -0.0066624167375267,  0.0075292396359146,  0.0018145854119211 ]
  - [  -0.0053840931504965,  0.0074564847163856,  0.0018133373232558 ]
  - [  -0.0065899090841413,  0.0072217374108732,  0.0018130991375074 ]
  - [  -0.0060537722893059,  0.0075949281454086,  0.0018210615962744 ]
  - [  -0.0061819679103792,  0.0074641499668360,  0.0018135479185730 ]
  - [  -0.0061614569276571,  0.0074756271205842,  0.0018130516400561 ]
  - [  -0.0054971510544419,  0.0069962083362043,  0.0018144536297768 ]
  - [  -0.0065898969769478,  0.0073921652510762,  0.0018183954525739 ]
  - [  -0.0062217107042670,  0.0074625988490880,  0.0018169624963775 ]
  - [  -0.0062063597142696,  0.0074650775641203,  0.0018171460833400 ]
  - [  -0.0062604187987745,  0.0074429865926504,  0.0018158493330702 ]
  - [  -0.0061822948046029,  0.0075603318400681,  0.0018148432718590 ]
  - [  -0.0101997107267380,  0.0084802340716124, -0.0029840182978660 ]
  - [  -0.0073796962387860,  0.0041289990767837,  0.0021120128221810 ]
  - [  -0.0070426845923066,  0.0042281001806259,  0.0019204216077924 ]
  - [  -0.0071889939717948,  0.0041793817654252,  0.0024752509780228 ]
  - [  -0.0074505112133920,  0.0040847212076187,  0.0019686538726091 ]
  - [  -0.0076765515841544,  0.0043598096817732,  0.0021914574317634 ]
  - [  -0.0073224161751568,  0.0041552595794201,  0.0024041133001447 ]
  - [  -0.0073456405662000,  0.0041371909901500,  0.0022888258099556 ]
  - [  -0.0075590671040118,  0.0040451874956489,  0.0023524337448180 ]
  - [  -0.0102583440020680,  0.0085186492651701,  0.0075111091136932 ]
  - [  -0.0073746894486248,  0.0041300542652607,  0.0024465168826282 ]
  - [  -0.0069729657843709,  0.0042495047673583,  0.0027000312693417 ]
  - [  -0.0071847047656775,  0.0041661756113172,  0.0020936245564371 ]
  - [  -0.0074612023308873,  0.0040859305299819,  0.0025953021831810 ]
  - [  -0.0076839551329613,  0.0043675578199327,  0.0023592982906848 ]
  - [  -0.0073261153884232,  0.0041531398892403,  0.0021546934731305 ]
  - [  -0.0073529127985239,  0.0041421321220696,  0.0022684321738780 ]
  - [  -0.0075588654726744,  0.0040486105717719,  0.0022041057236493 ]
- atom:    1
  displacement:
    [  -0.0034854972448274,  0.0093729029097874,  0.0000000000000000 ]
  forces:
  - [   0.0248786620795727, -0.0407204255461693, -0.0024280780926347 ]
  - [   0.0005854801274836, -0.0013943258672953, -0.0022734066005796 ]
  - [   0.0009028436616063, -0.0012592290295288, -0.0022773505188525 ]
  - [   0.0005671813851222, -0.0019853445701301, -0.0022738310508430 ]
  - [   0.0003480940358713, -0.0009752899641171, -0.0022767311893404 ]
  - [   0.0003420986467972, -0.0009351723128930, -0.0022738710977137 ]
  - [   0.0008401878876612, -0.0017671331297606, -0.0022746929898858 ]
  - [   0.0003389213234186, -0.0009316492360085, -0.0022758869454265 ]
  - [   0.0021667806431651, -0.0002996467519552, -0.0022706193849444 ]
  - [   0.0012436308898032, -0.0017641496378928, -0.0022667758166790 ]
  - [   0.0002738100010902, -0.0009157290915027, -0.0022752275690436 ]
  - [   0.0003410192439333, -0.0008928215829656, -0.0022726680617779 ]
  - [   0.0002739725168794, -0.0009656520560384, -0.0022781656589359 ]
  - [   0.0004682857543230, -0.0007668408798054, -0.0022739372216165 ]
  - [   0.0003153706202284, -0.0009191894205287, -0.0022729579359293 ]
  - [   0.0003416150575504, -0.0009420488495380, -0.0022732573561370 ]
  - [   0.0003173213917762, -0.0009196181781590, -0.0022712405771017 ]
  - [   0.0003512315452099, -0.0008087770547718, -0.0022728675976396 ]
  - [   0.0139555977657437, -0.0111103244125843, -0.0017074641073123 ]
  - [   0.0133232697844505, -0.0106769511476159, -0.0018567944644019 ]
  - [   0.0133993867784739, -0.0099059864878654, -0.0019752136431634 ]
  - [   0.0136497430503368, -0.0097812553867698, -0.0015818164683878 ]
  - [   0.0132700614631176, -0.0106931310147047, -0.0018501783488318 ]
  - [   0.0138900466263294, -0.0110584395006299, -0.0021608138922602 ]
  - [   0.0132709778845310, -0.0107779707759619, -0.0018452616641298 ]
  - [   0.0131337437778711, -0.0109159853309393, -0.0017418970819563 ]
  - [   0.0133234318345785, -0.0107498262077570, -0.0018266523256898 ]
  - [   0.0139076076447964, -0.0110720377415419, -0.0018831668421626 ]
  - [   0.0133216064423323, -0.0106764445081353, -0.0017809157725424 ]
  - [   0.0134035293012857, -0.0099023841321468, -0.0016512519214302 ]
  - [   0.0136507116258144, -0.0097895376384258, -0.0020531783811748 ]
  - [   0.0132703855633736, -0.0106978835538030, -0.0017880910309032 ]
  - [   0.0139373913407326, -0.0110971210524440, -0.0014233794063330 ]
  - [   0.0132734887301922, -0.0107732927426696, -0.0017959247343242 ]
  - [   0.0131402332335711, -0.0109210265800357, -0.0018967119976878 ]
  - [   0.0133241433650255, -0.0107541540637612, -0.0018167940434068 ]
  - [  -0.0051689995452762,  0.0236919093877077,  0.0017906880239025 ]
  - [  -0.0063498481176794,  0.0072106192819774,  0.0018162524793297 ]
  - [  -0.0059092855080962,  0.0066913277842104,  0.0018131778342649 ]
  - [  -0.0317406840622425,  0.0268962867558002,  0.0018076463602483 ]
  - [  -0.0049492111429572,  0.0109699973836541,  0.0018103889888152 ]
  - [  -0.0064348932355642,  0.0078743472695351,  0.0018139483872801 ]
  - [  -0.0064290892332792,  0.0077285780571401,  0.0018145336071029 ]
  - [  -0.0059032104909420,  0.0076289512217045,  0.0018139025196433 ]
  - [  -0.0061069889925420,  0.0079179201275110,  0.0018136511789635 ]
  - [  -0.0062751579098403,  0.0078579140827060,  0.0018161399057135 ]
  - [  -0.0061965808272362,  0.0074438513256609,  0.0018140182364732 ]
  - [  -0.0062020551413298,  0.0075234551914036,  0.0018130358075723 ]
  - [  -0.0055080261081457,  0.0069640129804611,  0.0018145964713767 ]
  - [  -0.0062668994069099,  0.0072757471352816,  0.0018191552953795 ]
  - [  -0.0062067480757833,  0.0074670352041721,  0.0018163848435506 ]
  - [  -0.0062077371403575,  0.0074809808284044,  0.0018169106915593 ]
  - [  -0.0062020379118621,  0.0074236062355340,  0.0018162083579227 ]
  - [  -0.0062847440131009,  0.0074120098724961,  0.0018151373369619 ]
  - [  -0.0124117527157068,  0.0053196200169623, -0.0030192248523235 ]
  - [  -0.0073530925437808,  0.0041035083122551,  0.0024007002357394 ]
  - [  -0.0073306877166033,  0.0039792186580598,  0.0024681002832949 ]
  - [  -0.0073286737315357,  0.0038432688452303,  0.0019372575916350 ]
  - [  -0.0073355524800718,  0.0043698945082724,  0.0023562461137772 ]
  - [  -0.0076716011390090,  0.0043677524663508,  0.0021914229728281 ]
  - [  -0.0073551638051867,  0.0041719693690538,  0.0021160757169127 ]
  - [  -0.0073465090245008,  0.0041360156610608,  0.0022892174310982 ]
  - [  -0.0073351538740098,  0.0042439941316843,  0.0019746362231672 ]
  - [  -0.0124712456017733,  0.0053616780787706,  0.0075622303411365 ]
  - [  -0.0073505574837327,  0.0041056140325963,  0.0021570820827037 ]
  - [  -0.0073246508836746,  0.0039869374595582,  0.0021001251880080 ]
  - [  -0.0073166461661458,  0.0037600849755108,  0.0026897471398115 ]
  - [  -0.0073400600813329,  0.0043731294572353,  0.0022040994372219 ]
  - [  -0.0076795192435384,  0.0043766833841801,  0.0023592873476446 ]
  - [  -0.0073555260896683,  0.0041695116087794,  0.0024427948519588 ]
  - [  -0.0073547996580601,  0.0041401404887438,  0.0022684026043862 ]
  - [  -0.0073384670540690,  0.0042492151260376,  0.0025830995291471 ]
- atom:    1
  displacement:
    [   0.0034854972448274, -0.0093729029097874,  0.0000000000000000 ]
  forces:
  - [  -0.0235610380768776,  0.0390393137931824, -0.0021015766542405 ]
  - [   0.0000367847969756, -0.0004796460270882, -0.0022724387235940 ]
  - [  -0.0002709245309234, -0.0005779386265203, -0.0022739053238183 ]
  - [   0.0000637129414827,  0.0000368733890355, -0.0022760843858123 ]
  - [   0.0002672392874956, -0.0008644437184557, -0.0022763204760849 ]
  - [   0.0002748853294179, -0.0009159143082798, -0.0022735036909580 ]
  - [  -0.0002775761531666,  0.0000272945035249, -0.0022733930964023 ]
  - [   0.0002717829775065, -0.0009125247597694, -0.0022752769291401 ]
  - [  -0.0015748254954815, -0.0015504918992519, -0.0022766022011638 ]
  - [  -0.0006515944842249, -0.0000772369094193, -0.0022806462366134 ]
  - [   0.0003277693176642, -0.0009220254141837, -0.0022718729451299 ]
  - [   0.0002694799331948, -0.0009456299012527, -0.0022706277668476 ]
  - [   0.0003240824444219, -0.0008766634855419, -0.0022702415008098 ]
  - [   0.0001397477462888, -0.0010761494049802, -0.0022744378075004 ]
  - [   0.0002874261699617, -0.0009208089904860, -0.0022755400277674 ]
  - [   0.0002682508202270, -0.0008991728536785, -0.0022724852897227 ]
  - [   0.0002884939312935, -0.0009216708131135, -0.0022716848179698 ]
  - [   0.0002563726156950, -0.0010304888710380, -0.0022737514227629 ]
  - [   0.0126137584447861, -0.0103027839213610, -0.0019533806480467 ]
  - [   0.0132431956008077, -0.0107406247407198, -0.0017852263990790 ]
  - [   0.0131691647693515, -0.0115050850436091, -0.0016833874396980 ]