phonopy:
  version: "2.37.1"
  frequency_unit_conversion_factor: 15.633302
  symmetry_tolerance: 1.00000e-05

space_group:
  type: "P-6m2"
  number: 187
  Hall_symbol: "P -6 2"

primitive_matrix:
- [  1.000000000000000,  0.000000000000000,  0.000000000000000 ]
- [  0.000000000000000,  1.000000000000000,  0.000000000000000 ]
- [  0.000000000000000,  0.000000000000000,  1.000000000000000 ]

supercell_matrix:
- [   4,   0,   0 ]
- [   0,   4,   0 ]
- [   0,   0,   3 ]

primitive_cell:
  lattice:
  - [     3.306664774871845,     0.000000000000000,     0.000000000000000 ] # a
  - [    -1.653332442260280,     2.863655518696425,     0.000000000000000 ] # b
  - [    -0.000000008821826,    -0.000000000202729,     4.642072281213261 ] # c
  points:
  - symbol: Li # 1
    coordinates: [  0.000000000278908,  0.999999998681698,  0.000000000220319 ]
    mass: 6.940000
  - symbol: Sn # 2
    coordinates: [  0.666666666354315,  0.333333334681770,  0.499999999780806 ]
    mass: 118.710000
  reciprocal_lattice: # without 2pi
  - [     0.302419527857570,     0.174602012468163,     0.000000000582345 ] # a*
  - [     0.000000000000000,     0.349204013356751,     0.000000000015250 ] # b*
  - [     0.000000000000000,     0.000000000000000,     0.215421031690320 ] # c*

unit_cell:
  lattice:
  - [     3.306664774871845,     0.000000000000000,     0.000000000000000 ] # a
  - [    -1.653332442260280,     2.863655518696425,     0.000000000000000 ] # b
  - [    -0.000000008821826,    -0.000000000202729,     4.642072281213262 ] # c
  points:
  - symbol: Li # 1
    coordinates: [  0.000000000278908,  0.999999998681698,  0.000000000220319 ]
    mass: 6.940000
    reduced_to: 1
  - symbol: Sn # 2
    coordinates: [  0.666666666354315,  0.333333334681770,  0.499999999780806 ]
    mass: 118.710000
    reduced_to: 2

supercell:
  lattice:
  - [    13.226659099487380,     0.000000000000000,     0.000000000000000 ] # a
  - [    -6.613329769041119,    11.454622074785698,     0.000000000000000 ] # b
  - [    -0.000000026465478,    -0.000000000608186,    13.926216843639786 ] # c
  points:
  - symbol: Li # 1
    coordinates: [  0.000000000069727,  0.249999999670424,  0.000000000073440 ]
    mass: 6.940000
    reduced_to: 1
  - symbol: Li # 2
    coordinates: [  0.250000000069727,  0.249999999670424,  0.000000000073440 ]
    mass: 6.940000
    reduced_to: 1
  - symbol: Li # 3
    coordinates: [  0.500000000069727,  0.249999999670424,  0.000000000073440 ]
    mass: 6.940000
    reduced_to: 1
  - symbol: Li # 4
    coordinates: [  0.750000000069727,  0.249999999670424,  0.000000000073440 ]
    mass: 6.940000
    reduced_to: 1
  - symbol: Li # 5
    coordinates: [  0.000000000069727,  0.499999999670425,  0.000000000073440 ]
    mass: 6.940000
    reduced_to: 1
  - symbol: Li # 6
    coordinates: [  0.250000000069727,  0.499999999670425,  0.000000000073440 ]
    mass: 6.940000
    reduced_to: 1
  - symbol: Li # 7
    coordinates: [  0.500000000069727,  0.499999999670425,  0.000000000073440 ]
    mass: 6.940000
    reduced_to: 1
  - symbol: Li # 8
    coordinates: [  0.750000000069727,  0.499999999670425,  0.000000000073440 ]
    mass: 6.940000
    reduced_to: 1
  - symbol: Li # 9
    coordinates: [  0.000000000069727,  0.749999999670425,  0.000000000073440 ]
    mass: 6.940000
    reduced_to: 1
  - symbol: Li # 10
    coordinates: [  0.250000000069727,  0.749999999670425,  0.000000000073440 ]
    mass: 6.940000
    reduced_to: 1
  - symbol: Li # 11
    coordinates: [  0.500000000069727,  0.749999999670425,  0.000000000073440 ]
    mass: 6.940000
    reduced_to: 1
  - symbol: Li # 12
    coordinates: [  0.750000000069727,  0.749999999670425,  0.000000000073440 ]
    mass: 6.940000
    reduced_to: 1
  - symbol: Li # 13
    coordinates: [  0.000000000069727,  0.999999999670425,  0.000000000073440 ]
    mass: 6.940000
    reduced_to: 1
  - symbol: Li # 14
    coordinates: [  0.250000000069727,  0.999999999670425,  0.000000000073440 ]
    mass: 6.940000
    reduced_to: 1
  - symbol: Li # 15
    coordinates: [  0.500000000069727,  0.999999999670425,  0.000000000073440 ]
    mass: 6.940000
    reduced_to: 1
  - symbol: Li # 16
    coordinates: [  0.750000000069727,  0.999999999670425,  0.000000000073440 ]
    mass: 6.940000
    reduced_to: 1
  - symbol: Li # 17
    coordinates: [  0.000000000069727,  0.249999999670424,  0.333333333406773 ]
    mass: 6.940000
    reduced_to: 1
  - symbol: Li # 18
    coordinates: [  0.250000000069727,  0.249999999670424,  0.333333333406773 ]
    mass: 6.940000
    reduced_to: 1
  - symbol: Li # 19
    coordinates: [  0.500000000069727,  0.249999999670424,  0.333333333406773 ]
    mass: 6.940000
    reduced_to: 1
  - symbol: Li # 20
    coordinates: [  0.750000000069727,  0.249999999670424,  0.333333333406773 ]
    mass: 6.940000
    reduced_to: 1
  - symbol: Li # 21
    coordinates: [  0.000000000069727,  0.499999999670425,  0.333333333406773 ]
    mass: 6.940000
    reduced_to: 1
  - symbol: Li # 22
    coordinates: [  0.250000000069727,  0.499999999670425,  0.333333333406773 ]
    mass: 6.940000
    reduced_to: 1
  - symbol: Li # 23
    coordinates: [  0.500000000069727,  0.499999999670425,  0.333333333406773 ]
    mass: 6.940000
    reduced_to: 1
  - symbol: Li # 24
    coordinates: [  0.750000000069727,  0.499999999670425,  0.333333333406773 ]
    mass: 6.940000
    reduced_to: 1
  - symbol: Li # 25
    coordinates: [  0.000000000069727,  0.749999999670425,  0.333333333406773 ]
    mass: 6.940000
    reduced_to: 1
  - symbol: Li # 26
    coordinates: [  0.250000000069727,  0.749999999670425,  0.333333333406773 ]
    mass: 6.940000
    reduced_to: 1
  - symbol: Li # 27
    coordinates: [  0.500000000069727,  0.749999999670425,  0.333333333406773 ]
    mass: 6.940000
    reduced_to: 1
  - symbol: Li # 28
    coordinates: [  0.750000000069727,  0.749999999670425,  0.333333333406773 ]
    mass: 6.940000
    reduced_to: 1
  - symbol: Li # 29
    coordinates: [  0.000000000069727,  0.999999999670425,  0.333333333406773 ]
    mass: 6.940000
    reduced_to: 1
  - symbol: Li # 30
    coordinates: [  0.250000000069727,  0.999999999670425,  0.333333333406773 ]
    mass: 6.940000
    reduced_to: 1
  - symbol: Li # 31
    coordinates: [  0.500000000069727,  0.999999999670425,  0.333333333406773 ]
    mass: 6.940000
    reduced_to: 1
  - symbol: Li # 32
    coordinates: [  0.750000000069727,  0.999999999670425,  0.333333333406773 ]
    mass: 6.940000
    reduced_to: 1
  - symbol: Li # 33
    coordinates: [  0.000000000069727,  0.249999999670424,  0.666666666740106 ]
    mass: 6.940000
    reduced_to: 1
  - symbol: Li # 34
    coordinates: [  0.250000000069727,  0.249999999670424,  0.666666666740106 ]
    mass: 6.940000
    reduced_to: 1
  - symbol: Li # 35
    coordinates: [  0.500000000069727,  0.249999999670424,  0.666666666740106 ]
    mass: 6.940000
    reduced_to: 1
  - symbol: Li # 36
    coordinates: [  0.750000000069727,  0.249999999670424,  0.666666666740106 ]
    mass: 6.940000
    reduced_to: 1
  - symbol: Li # 37
    coordinates: [  0.000000000069727,  0.499999999670425,  0.666666666740106 ]
    mass: 6.940000
    reduced_to: 1
  - symbol: Li # 38
    coordinates: [  0.250000000069727,  0.499999999670425,  0.666666666740106 ]
    mass: 6.940000
    reduced_to: 1
  - symbol: Li # 39
    coordinates: [  0.500000000069727,  0.499999999670425,  0.666666666740106 ]
    mass: 6.940000
    reduced_to: 1
  - symbol: Li # 40
    coordinates: [  0.750000000069727,  0.499999999670425,  0.666666666740106 ]
    mass: 6.940000
    reduced_to: 1
  - symbol: Li # 41
    coordinates: [  0.000000000069727,  0.749999999670425,  0.666666666740106 ]
    mass: 6.940000
    reduced_to: 1
  - symbol: Li # 42
    coordinates: [  0.250000000069727,  0.749999999670425,  0.666666666740106 ]
    mass: 6.940000
    reduced_to: 1
  - symbol: Li # 43
    coordinates: [  0.500000000069727,  0.749999999670425,  0.666666666740106 ]
    mass: 6.940000
    reduced_to: 1
  - symbol: Li # 44
    coordinates: [  0.750000000069727,  0.749999999670425,  0.666666666740106 ]
    mass: 6.940000
    reduced_to: 1
  - symbol: Li # 45
    coordinates: [  0.000000000069727,  0.999999999670425,  0.666666666740106 ]
    mass: 6.940000
    reduced_to: 1
  - symbol: Li # 46
    coordinates: [  0.250000000069727,  0.999999999670425,  0.666666666740106 ]
    mass: 6.940000
    reduced_to: 1
  - symbol: Li # 47
    coordinates: [  0.500000000069727,  0.999999999670425,  0.666666666740106 ]
    mass: 6.940000
    reduced_to: 1
  - symbol: Li # 48
    coordinates: [  0.750000000069727,  0.999999999670425,  0.666666666740106 ]
    mass: 6.940000
    reduced_to: 1
  - symbol: Sn # 49
    coordinates: [  0.166666666588579,  0.083333333670443,  0.166666666593602 ]
    mass: 118.710000
    reduced_to: 49
  - symbol: Sn # 50
    coordinates: [  0.416666666588579,  0.083333333670443,  0.166666666593602 ]
    mass: 118.710000
    reduced_to: 49
  - symbol: Sn # 51
    coordinates: [  0.666666666588579,  0.083333333670443,  0.166666666593602 ]
    mass: 118.710000
    reduced_to: 49
  - symbol: Sn # 52
    coordinates: [  0.916666666588579,  0.083333333670443,  0.166666666593602 ]
    mass: 118.710000
    reduced_to: 49
  - symbol: Sn # 53
    coordinates: [  0.166666666588579,  0.333333333670442,  0.166666666593602 ]
    mass: 118.710000
    reduced_to: 49
  - symbol: Sn # 54
    coordinates: [  0.416666666588579,  0.333333333670442,  0.166666666593602 ]
    mass: 118.710000
    reduced_to: 49
  - symbol: Sn # 55
    coordinates: [  0.666666666588579,  0.333333333670442,  0.166666666593602 ]
    mass: 118.710000
    reduced_to: 49
  - symbol: Sn # 56
    coordinates: [  0.916666666588579,  0.333333333670442,  0.166666666593602 ]
    mass: 118.710000
    reduced_to: 49
  - symbol: Sn # 57
    coordinates: [  0.166666666588579,  0.583333333670442,  0.166666666593602 ]
    mass: 118.710000
    reduced_to: 49
  - symbol: Sn # 58
    coordinates: [  0.416666666588579,  0.583333333670442,  0.166666666593602 ]
    mass: 118.710000
    reduced_to: 49
  - symbol: Sn # 59
    coordinates: [  0.666666666588579,  0.583333333670442,  0.166666666593602 ]
    mass: 118.710000
    reduced_to: 49
  - symbol: Sn # 60
    coordinates: [  0.916666666588579,  0.583333333670442,  0.166666666593602 ]
    mass: 118.710000
    reduced_to: 49
  - symbol: Sn # 61
    coordinates: [  0.166666666588579,  0.833333333670442,  0.166666666593602 ]
    mass: 118.710000
    reduced_to: 49
  - symbol: Sn # 62
    coordinates: [  0.416666666588579,  0.833333333670442,  0.166666666593602 ]
    mass: 118.710000
    reduced_to: 49
  - symbol: Sn # 63
    coordinates: [  0.666666666588579,  0.833333333670442,  0.166666666593602 ]
    mass: 118.710000
    reduced_to: 49
  - symbol: Sn # 64
    coordinates: [  0.916666666588579,  0.833333333670442,  0.166666666593602 ]
    mass: 118.710000
    reduced_to: 49
  - symbol: Sn # 65
    coordinates: [  0.166666666588579,  0.083333333670443,  0.499999999926935 ]
    mass: 118.710000
    reduced_to: 49
  - symbol: Sn # 66
    coordinates: [  0.416666666588579,  0.083333333670443,  0.499999999926935 ]
    mass: 118.710000
    reduced_to: 49
  - symbol: Sn # 67
    coordinates: [  0.666666666588579,  0.083333333670443,  0.499999999926935 ]
    mass: 118.710000
    reduced_to: 49
  - symbol: Sn # 68
    coordinates: [  0.916666666588579,  0.083333333670443,  0.499999999926935 ]
    mass: 118.710000
    reduced_to: 49
  - symbol: Sn # 69
    coordinates: [  0.166666666588579,  0.333333333670442,  0.499999999926935 ]
    mass: 118.710000
    reduced_to: 49
  - symbol: Sn # 70
    coordinates: [  0.416666666588579,  0.333333333670442,  0.499999999926935 ]
    mass: 118.710000
    reduced_to: 49
  - symbol: Sn # 71
    coordinates: [  0.666666666588579,  0.333333333670442,  0.499999999926935 ]
    mass: 118.710000
    reduced_to: 49
  - symbol: Sn # 72
    coordinates: [  0.916666666588579,  0.333333333670442,  0.499999999926935 ]
    mass: 118.710000
    reduced_to: 49
  - symbol: Sn # 73
    coordinates: [  0.166666666588579,  0.583333333670442,  0.499999999926935 ]
    mass: 118.710000
    reduced_to: 49
  - symbol: Sn # 74
    coordinates: [  0.416666666588579,  0.583333333670442,  0.499999999926935 ]
    mass: 118.710000
    reduced_to: 49
  - symbol: Sn # 75
    coordinates: [  0.666666666588579,  0.583333333670442,  0.499999999926935 ]
    mass: 118.710000
    reduced_to: 49
  - symbol: Sn # 76
    coordinates: [  0.916666666588579,  0.583333333670442,  0.499999999926935 ]
    mass: 118.710000
    reduced_to: 49
  - symbol: Sn # 77
    coordinates: [  0.166666666588579,  0.833333333670442,  0.499999999926935 ]
    mass: 118.710000
    reduced_to: 49
  - symbol: Sn # 78
    coordinates: [  0.416666666588579,  0.833333333670442,  0.499999999926935 ]
    mass: 118.710000
    reduced_to: 49
  - symbol: Sn # 79
    coordinates: [  0.666666666588579,  0.833333333670442,  0.499999999926935 ]
    mass: 118.710000
    reduced_to: 49
  - symbol: Sn # 80
    coordinates: [  0.916666666588579,  0.833333333670442,  0.499999999926935 ]
    mass: 118.710000
    reduced_to: 49
  - symbol: Sn # 81
    coordinates: [  0.166666666588579,  0.083333333670443,  0.833333333260269 ]
    mass: 118.710000
    reduced_to: 49
  - symbol: Sn # 82
    coordinates: [  0.416666666588579,  0.083333333670443,  0.833333333260269 ]
    mass: 118.710000
    reduced_to: 49
  - symbol: Sn # 83
    coordinates: [  0.666666666588579,  0.083333333670443,  0.833333333260269 ]
    mass: 118.710000
    reduced_to: 49
  - symbol: Sn # 84
    coordinates: [  0.916666666588579,  0.083333333670443,  0.833333333260269 ]
    mass: 118.710000
    reduced_to: 49
  - symbol: Sn # 85
    coordinates: [  0.166666666588579,  0.333333333670442,  0.833333333260269 ]
    mass: 118.710000
    reduced_to: 49
  - symbol: Sn # 86
    coordinates: [  0.416666666588579,  0.333333333670442,  0.833333333260269 ]
    mass: 118.710000
    reduced_to: 49
  - symbol: Sn # 87
    coordinates: [  0.666666666588579,  0.333333333670442,  0.833333333260269 ]
    mass: 118.710000
    reduced_to: 49
  - symbol: Sn # 88
    coordinates: [  0.916666666588579,  0.333333333670442,  0.833333333260269 ]
    mass: 118.710000
    reduced_to: 49
  - symbol: Sn # 89
    coordinates: [  0.166666666588579,  0.583333333670442,  0.833333333260269 ]
    mass: 118.710000
    reduced_to: 49
  - symbol: Sn # 90
    coordinates: [  0.416666666588579,  0.583333333670442,  0.833333333260269 ]
    mass: 118.710000
    reduced_to: 49
  - symbol: Sn # 91
    coordinates: [  0.666666666588579,  0.583333333670442,  0.833333333260269 ]
    mass: 118.710000
    reduced_to: 49
  - symbol: Sn # 92
    coordinates: [  0.916666666588579,  0.583333333670442,  0.833333333260269 ]
    mass: 118.710000
    reduced_to: 49
  - symbol: Sn # 93
    coordinates: [  0.166666666588579,  0.833333333670442,  0.833333333260269 ]
    mass: 118.710000
    reduced_to: 49
  - symbol: Sn # 94
    coordinates: [  0.416666666588579,  0.833333333670442,  0.833333333260269 ]
    mass: 118.710000
    reduced_to: 49
  - symbol: Sn # 95
    coordinates: [  0.666666666588579,  0.833333333670442,  0.833333333260269 ]
    mass: 118.710000
    reduced_to: 49
  - symbol: Sn # 96
    coordinates: [  0.916666666588579,  0.833333333670442,  0.833333333260269 ]
    mass: 118.710000
    reduced_to: 49

displacements:
- atom:    1
  displacement:
    [   0.0068866059739255, -0.0000000000003167,  0.0072508384453037 ]
  forces:
  - [  -0.0100185722112656, -0.0000400287390221, -0.0234019290655851 ]
  - [   0.0016461649211124, -0.0002293144061696, -0.0003127530508209 ]
  - [  -0.0002673622220755,  0.0000001469161361, -0.0000847515184432 ]
  - [   0.0016221555415541,  0.0002301756758243, -0.0003023885656148 ]
  - [   0.0003411583602428, -0.0009758335072547, -0.0003027273342013 ]
  - [   0.0003394568921067,  0.0009775196667761, -0.0003126536612399 ]
  - [   0.0000106545639937, -0.0000054847914726,  0.0000235163170146 ]
  - [   0.0000105334911495,  0.0000054449774325,  0.0000242472160608 ]
  - [  -0.0000837845727801,  0.0001061353832483, -0.0000841211440274 ]
  - [   0.0000199079513550,  0.0000004153698683,  0.0000245933770202 ]
  - [  -0.0000839810818434, -0.0001053912710631, -0.0000837871921249 ]
  - [   0.0000195903703570,  0.0000009897630662,  0.0000249857548624 ]
  - [   0.0003389654739294, -0.0005177865969017, -0.0003065151977353 ]
  - [   0.0000099677126855,  0.0000058077494032,  0.0000246495183092 ]
  - [   0.0000102566555142, -0.0000050734088290,  0.0000246874114964 ]
  - [   0.0003416833933443,  0.0005171579541638, -0.0003062579780817 ]
  - [   0.0000830144854262,  0.0000007795169950, -0.0006899770814925 ]
  - [  -0.0004040416097268,  0.0003280600067228, -0.0006782277487218 ]
  - [   0.0000079655437730, -0.0000053013209254,  0.0000415109097958 ]
  - [   0.0001314210239798,  0.0000515149440616, -0.0001707226037979 ]
  - [  -0.0000060431193560, -0.0000956894364208, -0.0001415417063981 ]
  - [   0.0000556042323296, -0.0005582512822002, -0.0007086417172104 ]
  - [   0.0000047178482419,  0.0000000253785402, -0.0000190495047718 ]
  - [  -0.0000079758465290,  0.0000070662936196, -0.0000054412521422 ]
  - [   0.0000003413367722, -0.0000039702281356,  0.0000364279840142 ]
  - [   0.0000038966536522, -0.0000077299773693, -0.0000128957617562 ]
  - [  -0.0000086829531938,  0.0000103521160781,  0.0000446143094450 ]
  - [   0.0000038631260395, -0.0000064882915467, -0.0000130408443511 ]
  - [  -0.0002733600849751,  0.0000915064010769, -0.0003951874095947 ]
  - [  -0.0000096580479294,  0.0000080519530457, -0.0000062835315475 ]
  - [   0.0000055655696087,  0.0000012519303709, -0.0000186664983630 ]
  - [   0.0003229666035622,  0.0001820548204705, -0.0004549829754978 ]
  - [   0.0000817222753540,  0.0000004301546142, -0.0006834224332124 ]
  - [   0.0001304332399741, -0.0000524456845596, -0.0001711479853839 ]
  - [   0.0000083056511357,  0.0000051581300795,  0.0000414489768445 ]
  - [  -0.0004053688608110, -0.0003272473113611, -0.0006801073905081 ]
  - [   0.0000543415080756,  0.0005577597767115, -0.0007081448566169 ]
  - [  -0.0000060516522353,  0.0000960978213698, -0.0001426367089152 ]
  - [  -0.0000077874856288, -0.0000066845677793, -0.0000050195958465 ]
  - [   0.0000045883934945, -0.0000004533212632, -0.0000203810632229 ]
  - [  -0.0000084810817498, -0.0000094377901405,  0.0000459426082671 ]
  - [   0.0000041602179408,  0.0000095590949059, -0.0000119027681649 ]
  - [   0.0000004339963198,  0.0000053130788729,  0.0000367201864719 ]
  - [   0.0000035176053643,  0.0000078685116023, -0.0000128513202071 ]
  - [   0.0003225442778785, -0.0001812342088670, -0.0004545173142105 ]
  - [   0.0000054154079407, -0.0000008105416782, -0.0000181762734428 ]
  - [  -0.0000095605064416, -0.0000074986601248, -0.0000063357874751 ]
  - [  -0.0002738782204688, -0.0000930067617446, -0.0003974139690399 ]
  - [  -0.0000886623747647,  0.0000287280417979, -0.0000349930487573 ]
  - [   0.0000317102530971, -0.0000341944396496,  0.0000153847504407 ]
  - [   0.0002018110826612,  0.0001389775425196,  0.0000126915401779 ]
  - [   0.0000877704005688, -0.0028289861511439,  0.0053248321637511 ]
  - [   0.0038431696593761,  0.0021709557622671,  0.0082457670941949 ]
  - [  -0.0000407854095101,  0.0000210776925087, -0.0000614784075879 ]
  - [   0.0000632721930742, -0.0000351164489985, -0.0000117984600365 ]
  - [  -0.0010786214843392,  0.0006782151758671,  0.0024565360508859 ]
  - [  -0.0000392115907744, -0.0001672420185059, -0.0000098797027022 ]
  - [  -0.0000150261912495, -0.0000353432260454, -0.0000700801610947 ]
  - [   0.0000143390498124, -0.0000013336539268,  0.0000065034255385 ]
  - [   0.0000501461327076, -0.0000505232019350, -0.0000036444980651 ]
  - [   0.0000483447220176,  0.0000100360484794,  0.0000041599851102 ]
  - [  -0.0000122198880490,  0.0000229505822062,  0.0000266763381660 ]
  - [   0.0000040838494897,  0.0000535272993147, -0.0000452125677839 ]
  - [  -0.0000357434619218,  0.0000439982395619, -0.0000290365424007 ]
  - [  -0.0000045758206397, -0.0000246021663770,  0.0000844327732921 ]
  - [  -0.0000259340740740, -0.0000002421438694, -0.0000314265489578 ]
  - [  -0.0000025946646929,  0.0000255350023508,  0.0000857464619912 ]
  - [   0.0000337883830070, -0.0000006869668141,  0.0000412119552493 ]
  - [   0.0000016000165033, -0.0000191330909729,  0.0000396371469833 ]
  - [  -0.0000018291175365,  0.0000263061374426,  0.0000137303140946 ]
  - [  -0.0000013336539268, -0.0000256374478340,  0.0000162350479513 ]
  - [   0.0000015106052160,  0.0000202637165785,  0.0000418287236243 ]
  - [  -0.0000473211985081, -0.0000011561205611,  0.0000860209111124 ]
  - [   0.0000252169556916, -0.0000027301721275,  0.0000149088446051 ]
  - [  -0.0000040825107135, -0.0000007841736078, -0.0000123404897749 ]
  - [   0.0000260027591139,  0.0000014447141439,  0.0000162557698786 ]
  - [   0.0000088326632977,  0.0000206853728741, -0.0000315960496664 ]
  - [   0.0000082135638877, -0.0000214013271034, -0.0000310000032187 ]
  - [  -0.0000086203217506, -0.0000097886659205,  0.0000159353367053 ]
  - [  -0.0000079798046499,  0.0000097415177152,  0.0000145842786878 ]
  - [   0.0002016723155975, -0.0001392392441630,  0.0000128021929413 ]
  - [   0.0000308966264129,  0.0000339499674737,  0.0000148721155711 ]
  - [  -0.0000850670039654, -0.0000274265184999, -0.0000306467409246 ]
  - [   0.0001082587987185,  0.0027589588426054,  0.0052632829174399 ]
  - [  -0.0010793814435601, -0.0006828121840954,  0.0024911477230489 ]
  - [   0.0000647390261292,  0.0000350698828697, -0.0000112006091513 ]
  - [  -0.0000406485050917, -0.0000189538113773, -0.0000646101543680 ]
  - [   0.0036794282495975, -0.0020569544285536,  0.0079882796853781 ]
  - [  -0.0000390615314245,  0.0001655635423958, -0.0000099352328107 ]
  - [   0.0000496469438076,  0.0000490583479404, -0.0000035124248825 ]
  - [   0.0000133477151394, -0.0000005364418030,  0.0000061507453211 ]
  - [  -0.0000143274664879,  0.0000330107286572, -0.0000714457128197 ]
  - [  -0.0000114091672003, -0.0000241815578192,  0.0000259903026745 ]
  - [   0.0000468563448521, -0.0000116960145533,  0.0000037715653889 ]
  - [  -0.0000353362411261, -0.0000450322404504, -0.0000298823579215 ]
  - [   0.0000044116750360, -0.0000538013409823, -0.0000444040051661 ]
- atom:   49
  displacement:
    [   0.0068866059739255, -0.0000000000003167,  0.0072508384453037 ]
  forces:
  - [   0.0000346192391589, -0.0000427161285188, -0.0001480399514548 ]
  - [   0.0001142473192886, -0.0033890951890498,  0.0052656983025372 ]
  - [   0.0000824015587568,  0.0000685856211931,  0.0001259865239263 ]
  - [   0.0000306251458824,  0.0000140983611345,  0.0000148057006299 ]
  - [   0.0000061523169279, -0.0000138904142659,  0.0000427912018495 ]
  - [  -0.0000077448048614,  0.0000473186373711, -0.0000571534765186 ]
  - [  -0.0000241880752583,  0.0000235149636865, -0.0000202076626010 ]
  - [   0.0000297611113638,  0.0000004036119208, -0.0000131083652377 ]
  - [  -0.0000381618738174, -0.0000271685421467, -0.0000102578778751 ]
  - [   0.0000527529045939, -0.0000336654484272, -0.0000056569842855 ]
  - [   0.0000131279230118,  0.0000010159856174,  0.0000063597599365 ]
  - [  -0.0000174306333065,  0.0000137463212013, -0.0000665674451739 ]
  - [   0.0042265397496521,  0.0023714588023722,  0.0074675553478301 ]
  - [  -0.0016140786465257,  0.0009952610125765,  0.0030009276233613 ]
  - [   0.0000363674480468, -0.0000356541495421,  0.0000145533267641 ]
  - [  -0.0000141942873597, -0.0000124418875203, -0.0000838795676827 ]
  - [   0.0000792379723862, -0.0000693022739142,  0.0001283220481128 ]
  - [   0.0000842412700877,  0.0034697763621807,  0.0053224889561534 ]
  - [   0.0000310859177262,  0.0000401150900871, -0.0001449948176742 ]
  - [   0.0000314328353852, -0.0000131482956931,  0.0000156830064952 ]
  - [   0.0000297243241221, -0.0000008123461157, -0.0000125523656607 ]
  - [  -0.0000232969523495, -0.0000262076500803, -0.0000162671785802 ]
  - [  -0.0000073087858254, -0.0000477049034089, -0.0000550656113774 ]
  - [   0.0000062312465161,  0.0000143089564517,  0.0000438319984823 ]
  - [  -0.0000396701434511,  0.0000281182583421, -0.0000092806294560 ]
  - [  -0.0000179447233677, -0.0000118017196655, -0.0000686356215738 ]
  - [   0.0000130562111735,  0.0000008441274986,  0.0000062498729676 ]
  - [   0.0000533852726221,  0.0000359020195901, -0.0000073285773396 ]
  - [  -0.0016446638619527, -0.0010010774713010,  0.0029903319664299 ]
  - [   0.0043955286964774, -0.0024920674040914,  0.0077204843983054 ]
  - [  -0.0000165957171703,  0.0000145112862810, -0.0000895541161299 ]
  - [   0.0000415293034166,  0.0000379107659683,  0.0000107674859464 ]
  - [  -0.0000033095707295, -0.0000250375596806,  0.0000871547963470 ]
  - [   0.0000347396126017, -0.0000004537869245,  0.0000439924187958 ]
  - [  -0.0000045750639401,  0.0000240956433117,  0.0000875501427799 ]
  - [  -0.0000266598071903, -0.0000001587904990, -0.0000297375954688 ]
  - [   0.0000083066988736,  0.0000204259995371, -0.0000295683275908 ]
  - [  -0.0000083250106400,  0.0000215172767639,  0.0000170266721398 ]
  - [  -0.0000081711905295, -0.0000213764142245,  0.0000167880207300 ]
  - [   0.0000084284693003, -0.0000206842087209, -0.0000308174639940 ]
  - [  -0.0000464362019557,  0.0000010021030903,  0.0000873319804668 ]
  - [   0.0000256532803178, -0.0000091418623924,  0.0000169489794644 ]
  - [  -0.0000048838555813,  0.0000007813796401, -0.0000121041666716 ]
  - [   0.0000251913443208,  0.0000106568913907,  0.0000159998890013 ]
  - [   0.0000014346628632, -0.0000193894375116,  0.0000429383944720 ]
  - [   0.0000007804483175,  0.0000199696078198,  0.0000432408123743 ]
  - [  -0.0000017746492631, -0.0000135074369609,  0.0000165281817317 ]
  - [  -0.0000012612435967,  0.0000137772876769,  0.0000167971011251 ]
  - [  -0.0164869241416454,  0.0000645315740258, -0.0298271346837282 ]
  - [   0.0035019004717469,  0.0000449530780315, -0.0003339534159750 ]
  - [   0.0021112747490406,  0.0000014002434909,  0.0000399763230234 ]
  - [   0.0033853924833238, -0.0000492901308462, -0.0003139765467495 ]
  - [   0.0000839857384562, -0.0018838364630938, -0.0003177302423865 ]
  - [   0.0000787740573287,  0.0019055474549532, -0.0003297965158708 ]
  - [   0.0001830346882343,  0.0002505453303456, -0.0000641085789539 ]
  - [   0.0001904815435410, -0.0002529863268137, -0.0000622289953753 ]
  - [   0.0005487723974511, -0.0009031119989231,  0.0000399712007493 ]
  - [  -0.0002502324059606, -0.0000038270372897, -0.0000631662551314 ]
  - [   0.0005496853846125,  0.0009000729769468,  0.0000398918054998 ]
  - [  -0.0002507399767637,  0.0000018416903913, -0.0000631825532764 ]
  - [   0.0000845503527671, -0.0020049950107932, -0.0003275300841779 ]
  - [   0.0001828514505178, -0.0002522887662053, -0.0000635578762740 ]
  - [   0.0001909499987960,  0.0002533923834562, -0.0000631249276921 ]
  - [   0.0000784813892096,  0.0019696815870702, -0.0003200976643711 ]
  - [   0.0000111320987344, -0.0000005679903552,  0.0004039921332151 ]
  - [  -0.0002271638950333, -0.0002870634198189, -0.0002245963551104 ]
  - [  -0.0000032689422369, -0.0000150562264025, -0.0000024069449864 ]
  - [   0.0000729023013264, -0.0000807895557955,  0.0000615394674242 ]
  - [   0.0002506002783775, -0.0000878870487213, -0.0001616300432943 ]
  - [  -0.0002181567251682,  0.0000117309391499, -0.0000013837125152 ]
  - [   0.0000255163758993,  0.0000127642415464,  0.0000675575574860 ]
  - [  -0.0000114403665066,  0.0000097509473562,  0.0000066118082032 ]
  - [   0.0000085809733719,  0.0000068009831011, -0.0000139542389661 ]
  - [   0.0000039383303374,  0.0000346068991348,  0.0000367751345038 ]
  - [  -0.0000170847051777,  0.0000066999346018,  0.0000118848402053 ]
  - [   0.0000042947940528, -0.0000220634974539,  0.0000377008691430 ]
  - [   0.0001001562923193,  0.0003801891580224, -0.0003053105901927 ]
  - [   0.0000383019178116, -0.0000203894451261,  0.0000552530400455 ]
  - [  -0.0000240299850702, -0.0000161966308951,  0.0000197585322894 ]
  - [  -0.0000678533688188,  0.0000657450873405,  0.0001415107399225 ]
  - [   0.0000091111287475, -0.0000007362104952,  0.0003849828499369 ]
  - [   0.0000744452700019,  0.0000800006091595,  0.0000650535221212 ]
  - [  -0.0000023320317268,  0.0000154292210937, -0.0000011421507224 ]
  - [  -0.0002257861196995,  0.0002814745530486, -0.0002187389764003 ]
  - [  -0.0002158069983125, -0.0000086147338152, -0.0000000346917659 ]
  - [   0.0002477858215570,  0.0000877901911736, -0.0001554224872962 ]
  - [  -0.0000127274543047, -0.0000086305662990,  0.0000080300378613 ]
  - [   0.0000257100909948, -0.0000115297734737,  0.0000652234302834 ]
  - [  -0.0000176876783371, -0.0000087721273303,  0.0000108815147541 ]
  - [   0.0000036396086216, -0.0000357809476554,  0.0000367259490304 ]
  - [   0.0000096354633570, -0.0000079385936260, -0.0000139840412885 ]
  - [   0.0000040791928768,  0.0000220569781959,  0.0000367728061974 ]
  - [  -0.0000658766366541, -0.0000662663951516,  0.0001427401439287 ]
  - [  -0.0000239063592744,  0.0000146343372762,  0.0000188899575733 ]
  - [   0.0000366866588593,  0.0000181775540113,  0.0000543275964446 ]
  - [   0.0000984652433544, -0.0003737810766324, -0.0002962123253383 ]

force_constants:
  format: "full"
  shape: [ 96, 96 ]
  elements:
  - # (1, 1)
    - [     1.454785893870653,     0.000000000122144,    -0.000000001648727 ]
    - [     0.000000000122144,     1.454785896018682,    -0.000000000019769 ]
    - [    -0.000000001648727,    -0.000000000019769,     3.227517962950765 ]
  - # (1, 2)
    - [    -0.237306649165950,     0.033347307961124,    -0.000000000202817 ]
    - [    -0.033347312759806,     0.013210080885266,    -0.000000000037697 ]
    - [    -0.000000000607766,     0.000000000086604,     0.042408644172482 ]
  - # (1, 3)
    - [     0.038804296273739,     0.000000000081998,     0.000000000056052 ]
    - [     0.000000001384429,     0.003308645716140,     0.000000000022400 ]