# Thermal properties / unit cell (natom)

unit:
  temperature:   K
  free_energy:   kJ/mol
  entropy:       J/K/mol
  heat_capacity: J/K/mol

natom: 2    
cutoff_frequency: 0.00000
num_modes: 161700
num_integrated_modes: 161700

zero_point_energy:       6.2406207

thermal_properties:
- temperature:         0.0000000
  free_energy:         6.2406207
  entropy:             0.0000000
  heat_capacity:       0.0000000
  energy:              6.2406207

- temperature:        10.0000000
  free_energy:         6.2401034
  entropy:             0.1861094
  heat_capacity:       0.6268112
  energy:              6.2419645

- temperature:        20.0000000
  free_energy:         6.2318215
  entropy:             1.8127531
  heat_capacity:       5.2401264
  energy:              6.2680766

- temperature:        30.0000000
  free_energy:         6.1982936
  entropy:             5.0696566
  heat_capacity:      11.0713792
  energy:              6.3503833

- temperature:        40.0000000
  free_energy:         6.1285773
  entropy:             8.9066310
  heat_capacity:      15.5940800
  energy:              6.4848425

- temperature:        50.0000000
  free_energy:         6.0201050
  entropy:            12.7728256
  heat_capacity:      19.0597850
  energy:              6.6587463

- temperature:        60.0000000
  free_energy:         5.8735604
  entropy:            16.5108343
  heat_capacity:      21.9674690
  energy:              6.8642105

- temperature:        70.0000000
  free_energy:         5.6904027
  entropy:            20.0953304
  heat_capacity:      24.5640817
  energy:              7.0970759

- temperature:        80.0000000
  free_energy:         5.4721448
  entropy:            23.5325920
  heat_capacity:      26.9367802
  energy:              7.3547521

- temperature:        90.0000000
  free_energy:         5.2202081
  entropy:            26.8326199
  heat_capacity:      29.1087083
  energy:              7.6351439

- temperature:       100.0000000
  free_energy:         4.9359226
  entropy:            30.0035175
  heat_capacity:      31.0850690
  energy:              7.9362743

- temperature:       110.0000000
  free_energy:         4.6205475
  entropy:            33.0514579
  heat_capacity:      32.8703514
  energy:              8.2562078

- temperature:       120.0000000
  free_energy:         4.2752862
  entropy:            35.9815466
  heat_capacity:      34.4728995
  energy:              8.5930718

- temperature:       130.0000000
  free_energy:         3.9012937
  entropy:            38.7984848
  heat_capacity:      35.9047934
  energy:              8.9450967

- temperature:       140.0000000
  free_energy:         3.4996782
  entropy:            41.5069182
  heat_capacity:      37.1804427
  energy:              9.3106468

- temperature:       150.0000000
  free_energy:         3.0715013
  entropy:            44.1115637
  heat_capacity:      38.3151699
  energy:              9.6882359

- temperature:       160.0000000
  free_energy:         2.6177769
  entropy:            46.6172137
  heat_capacity:      39.3241554
  energy:             10.0765311

- temperature:       170.0000000
  free_energy:         2.1394710
  entropy:            49.0286877
  heat_capacity:      40.2217690
  energy:             10.4743479

- temperature:       180.0000000
  free_energy:         1.6375012
  entropy:            51.3507681
  heat_capacity:      41.0212097
  energy:             10.8806394

- temperature:       190.0000000
  free_energy:         1.1127379
  entropy:            53.5881401
  heat_capacity:      41.7343570
  energy:             11.2944846

- temperature:       200.0000000
  free_energy:         0.5660056
  entropy:            55.7453432
  heat_capacity:      42.3717571
  energy:             11.7150742

- temperature:       210.0000000
  free_energy:        -0.0019162
  entropy:            57.8267358
  heat_capacity:      42.9426864
  energy:             12.1416983

- temperature:       220.0000000
  free_energy:        -0.5902903
  entropy:            59.8364720
  heat_capacity:      43.4552556
  energy:             12.5737335

- temperature:       230.0000000
  free_energy:        -1.1984200
  entropy:            61.7784890
  heat_capacity:      43.9165295
  energy:             13.0106325

- temperature:       240.0000000
  free_energy:        -1.8256468
  entropy:            63.6565019
  heat_capacity:      44.3326490
  energy:             13.4519137

- temperature:       250.0000000
  free_energy:        -2.4713483
  entropy:            65.4740046
  heat_capacity:      44.7089472
  energy:             13.8971528

- temperature:       260.0000000
  free_energy:        -3.1349361
  entropy:            67.2342751
  heat_capacity:      45.0500556
  energy:             14.3459754

- temperature:       270.0000000
  free_energy:        -3.8158533
  entropy:            68.9403831
  heat_capacity:      45.3599993
  energy:             14.7980501

- temperature:       280.0000000
  free_energy:        -4.5135728
  entropy:            70.5952002
  heat_capacity:      45.6422804
  energy:             15.2530832

- temperature:       290.0000000
  free_energy:        -5.2275953
  entropy:            72.2014105
  heat_capacity:      45.8999504
  energy:             15.7108137

- temperature:       300.0000000
  free_energy:        -5.9574474
  entropy:            73.7615217
  heat_capacity:      46.1356730
  energy:             16.1710091

- temperature:       310.0000000
  free_energy:        -6.7026799
  entropy:            75.2778766
  heat_capacity:      46.3517780
  energy:             16.6334618

- temperature:       320.0000000
  free_energy:        -7.4628664
  entropy:            76.7526641
  heat_capacity:      46.5503070
  energy:             17.0979861

- temperature:       330.0000000
  free_energy:        -8.2376015
  entropy:            78.1879299
  heat_capacity:      46.7330535
  energy:             17.5644154

- temperature:       340.0000000
  free_energy:        -9.0264996
  entropy:            79.5855867
  heat_capacity:      46.9015961
  energy:             18.0325999

- temperature:       350.0000000
  free_energy:        -9.8291938
  entropy:            80.9474241
  heat_capacity:      47.0573275
  energy:             18.5024046

- temperature:       360.0000000
  free_energy:       -10.6453343
  entropy:            82.2751171
  heat_capacity:      47.2014791
  energy:             18.9737078

- temperature:       370.0000000
  free_energy:       -11.4745876
  entropy:            83.5702347
  heat_capacity:      47.3351421
  energy:             19.4463992

- temperature:       380.0000000
  free_energy:       -12.3166353
  entropy:            84.8342481
  heat_capacity:      47.4592859
  energy:             19.9203789

- temperature:       390.0000000
  free_energy:       -13.1711735
  entropy:            86.0685375
  heat_capacity:      47.5747729
  energy:             20.3955561

- temperature:       400.0000000
  free_energy:       -14.0379113
  entropy:            87.2743986
  heat_capacity:      47.6823725
  energy:             20.8718481

- temperature:       410.0000000
  free_energy:       -14.9165708
  entropy:            88.4530496
  heat_capacity:      47.7827726
  energy:             21.3491796

- temperature:       420.0000000
  free_energy:       -15.8068855
  entropy:            89.6056359
  heat_capacity:      47.8765891
  energy:             21.8274816

- temperature:       430.0000000
  free_energy:       -16.7086002
  entropy:            90.7332360
  heat_capacity:      47.9643747
  energy:             22.3066913

- temperature:       440.0000000
  free_energy:       -17.6214703
  entropy:            91.8368658
  heat_capacity:      48.0466266
  energy:             22.7867507

- temperature:       450.0000000
  free_energy:       -18.5452608
  entropy:            92.9174837
  heat_capacity:      48.1237926
  energy:             23.2676068

- temperature:       460.0000000
  free_energy:       -19.4797463
  entropy:            93.9759939
  heat_capacity:      48.1962769
  energy:             23.7492109

- temperature:       470.0000000
  free_energy:       -20.4247099
  entropy:            95.0132508
  heat_capacity:      48.2644449
  energy:             24.2315180

- temperature:       480.0000000
  free_energy:       -21.3799431
  entropy:            96.0300619
  heat_capacity:      48.3286279
  energy:             24.7144866

- temperature:       490.0000000
  free_energy:       -22.3452455
  entropy:            97.0271914
  heat_capacity:      48.3891261
  energy:             25.1980783

- temperature:       500.0000000
  free_energy:       -23.3204238
  entropy:            98.0053630
  heat_capacity:      48.4462125
  energy:             25.6822577

- temperature:       510.0000000
  free_energy:       -24.3052919
  entropy:            98.9652624
  heat_capacity:      48.5001358
  energy:             26.1669920

- temperature:       520.0000000
  free_energy:       -25.2996703
  entropy:            99.9075402
  heat_capacity:      48.5511225
  energy:             26.6522506

- temperature:       530.0000000
  free_energy:       -26.3033860
  entropy:           100.8328138
  heat_capacity:      48.5993795
  energy:             27.1380053

- temperature:       540.0000000
  free_energy:       -27.3162718
  entropy:           101.7416696
  heat_capacity:      48.6450961
  energy:             27.6242298

- temperature:       550.0000000
  free_energy:       -28.3381665
  entropy:           102.6346652
  heat_capacity:      48.6884456
  energy:             28.1108994

- temperature:       560.0000000
  free_energy:       -29.3689141
  entropy:           103.5123310
  heat_capacity:      48.7295869
  energy:             28.5979913

- temperature:       570.0000000
  free_energy:       -30.4083637
  entropy:           104.3751719
  heat_capacity:      48.7686660
  energy:             29.0854842

- temperature:       580.0000000
  free_energy:       -31.4563697
  entropy:           105.2236688
  heat_capacity:      48.8058170
  energy:             29.5733582

- temperature:       590.0000000
  free_energy:       -32.5127908
  entropy:           106.0582803
  heat_capacity:      48.8411636
  energy:             30.0615946

- temperature:       600.0000000
  free_energy:       -33.5774905
  entropy:           106.8794438
  heat_capacity:      48.8748197
  energy:             30.5501758

- temperature:       610.0000000
  free_energy:       -34.6503363
  entropy:           107.6875769
  heat_capacity:      48.9068905
  energy:             31.0390857

- temperature:       620.0000000
  free_energy:       -35.7311999
  entropy:           108.4830784
  heat_capacity:      48.9374731
  energy:             31.5283087

- temperature:       630.0000000
  free_energy:       -36.8199570
  entropy:           109.2663293
  heat_capacity:      48.9666575
  energy:             32.0178305

- temperature:       640.0000000
  free_energy:       -37.9164869
  entropy:           110.0376943
  heat_capacity:      48.9945269
  energy:             32.5076375

- temperature:       650.0000000
  free_energy:       -39.0206724
  entropy:           110.7975220
  heat_capacity:      49.0211586
  energy:             32.9977169

- temperature:       660.0000000
  free_energy:       -40.1324000
  entropy:           111.5461465
  heat_capacity:      49.0466242
  energy:             33.4880568

- temperature:       670.0000000
  free_energy:       -41.2515591
  entropy:           112.2838877
  heat_capacity:      49.0709904
  energy:             33.9786457

- temperature:       680.0000000
  free_energy:       -42.3780425
  entropy:           113.0110523
  heat_capacity:      49.0943190
  energy:             34.4694731

- temperature:       690.0000000
  free_energy:       -43.5117458
  entropy:           113.7279343
  heat_capacity:      49.1166678
  energy:             34.9605288

- temperature:       700.0000000
  free_energy:       -44.6525678
  entropy:           114.4348160
  heat_capacity:      49.1380905
  energy:             35.4518034

- temperature:       710.0000000
  free_energy:       -45.8004097
  entropy:           115.1319682
  heat_capacity:      49.1586373
  energy:             35.9432877

- temperature:       720.0000000
  free_energy:       -46.9551756
  entropy:           115.8196513
  heat_capacity:      49.1783549
  energy:             36.4349734

- temperature:       730.0000000
  free_energy:       -48.1167720
  entropy:           116.4981154
  heat_capacity:      49.1972871
  energy:             36.9268522

- temperature:       740.0000000
  free_energy:       -49.2851080
  entropy:           117.1676008
  heat_capacity:      49.2154749
  energy:             37.4189166

- temperature:       750.0000000
  free_energy:       -50.4600949
  entropy:           117.8283390
  heat_capacity:      49.2329565
  energy:             37.9111593

- temperature:       760.0000000
  free_energy:       -51.6416464
  entropy:           118.4805525
  heat_capacity:      49.2497679
  energy:             38.4035735

- temperature:       770.0000000
  free_energy:       -52.8296782
  entropy:           119.1244556
  heat_capacity:      49.2659426
  energy:             38.8961526

- temperature:       780.0000000
  free_energy:       -54.0241085
  entropy:           119.7602549
  heat_capacity:      49.2815122
  energy:             39.3888903

- temperature:       790.0000000
  free_energy:       -55.2248570
  entropy:           120.3881492
  heat_capacity:      49.2965064
  energy:             39.8817809

- temperature:       800.0000000
  free_energy:       -56.4318457
  entropy:           121.0083305
  heat_capacity:      49.3109531
  energy:             40.3748186

- temperature:       810.0000000
  free_energy:       -57.6449985
  entropy:           121.6209836
  heat_capacity:      49.3248785
  energy:             40.8679982

- temperature:       820.0000000
  free_energy:       -58.8642409
  entropy:           122.2262872
  heat_capacity:      49.3383071
  energy:             41.3613146

- temperature:       830.0000000
  free_energy:       -60.0895003
  entropy:           122.8244134
  heat_capacity:      49.3512624
  energy:             41.8547628

- temperature:       840.0000000
  free_energy:       -61.3207058
  entropy:           123.4155287
  heat_capacity:      49.3637661
  energy:             42.3483383

- temperature:       850.0000000
  free_energy:       -62.5577881
  entropy:           123.9997938
  heat_capacity:      49.3758389
  energy:             42.8420367

- temperature:       860.0000000
  free_energy:       -63.8006794
  entropy:           124.5773640
  heat_capacity:      49.3875003
  energy:             43.3358537

- temperature:       870.0000000
  free_energy:       -65.0493135
  entropy:           125.1483895
  heat_capacity:      49.3987687
  energy:             43.8297854

- temperature:       880.0000000
  free_energy:       -66.3036258
  entropy:           125.7130155
  heat_capacity:      49.4096614
  energy:             44.3238278

- temperature:       890.0000000
  free_energy:       -67.5635530
  entropy:           126.2713825
  heat_capacity:      49.4201950
  energy:             44.8179774

- temperature:       900.0000000
  free_energy:       -68.8290331
  entropy:           126.8236263
  heat_capacity:      49.4303850
  energy:             45.3122306

- temperature:       910.0000000
  free_energy:       -70.1000055
  entropy:           127.3698786
  heat_capacity:      49.4402461
  energy:             45.8065840

- temperature:       920.0000000
  free_energy:       -71.3764111
  entropy:           127.9102669
  heat_capacity:      49.4497923
  energy:             46.3010345

- temperature:       930.0000000
  free_energy:       -72.6581917
  entropy:           128.4449146
  heat_capacity:      49.4590367
  energy:             46.7955789

- temperature:       940.0000000
  free_energy:       -73.9452906
  entropy:           128.9739414
  heat_capacity:      49.4679920
  energy:             47.2902142

- temperature:       950.0000000
  free_energy:       -75.2376522
  entropy:           129.4974631
  heat_capacity:      49.4766699
  energy:             47.7849378

- temperature:       960.0000000
  free_energy:       -76.5352219
  entropy:           130.0155924
  heat_capacity:      49.4850819
  energy:             48.2797467

- temperature:       970.0000000
  free_energy:       -77.8379464
  entropy:           130.5284381
  heat_capacity:      49.4932386
  energy:             48.7746386

- temperature:       980.0000000
  free_energy:       -79.1457734
  entropy:           131.0361063
  heat_capacity:      49.5011502
  energy:             49.2696107

- temperature:       990.0000000
  free_energy:       -80.4586517
  entropy:           131.5386994
  heat_capacity:      49.5088264
  energy:             49.7646608

- temperature:      1000.0000000
  free_energy:       -81.7765308
  entropy:           132.0363173
  heat_capacity:      49.5162764
  energy:             50.2597865
