# Tetrahedron method
       -1.0731230805        0.0000000000
       -1.0087356989        0.0000000000
       -0.9443483173        0.0000000000
       -0.8799609357        0.0000000000
       -0.8155735541        0.0000000000
       -0.7511861725        0.0000000000
       -0.6867987909        0.0000000000
       -0.6224114093        0.0000000000
       -0.5580240277        0.0000000000
       -0.4936366461        0.0000000000
       -0.4292492645        0.0000000000
       -0.3648618829        0.0000000000
       -0.3004745013        0.0000000000
       -0.2360871197        0.0000000000
       -0.1716997381        0.0000000000
       -0.1073123565        0.0000000000
       -0.0429249749        0.0000000000
        0.0214624067        0.0000926618
        0.0858497883        0.0012766866
        0.1502371699        0.0045692135
        0.2146245515        0.0147433334
        0.2790119331        0.0265157589
        0.3433993146        0.0448689541
        0.4077866962        0.0612249717
        0.4721740778        0.0848724580
        0.5365614594        0.1093696326
        0.6009488410        0.1388404238
        0.6653362226        0.1705241802
        0.7297236042        0.2059018935
        0.7941109858        0.2510258843
        0.8584983674        0.2932580870
        0.9228857490        0.3430133124
        0.9872731306        0.3999685563
        1.0516605122        0.4657252273
        1.1160478938        0.5416402299
        1.1804352754        0.6230206506
        1.2448226570        0.7278908787
        1.3092100386        0.8442563431
        1.3735974202        1.0050890773
        1.4379848018        1.2320278376
        1.5023721834        1.4784807653
        1.5667595650        1.8634905397
        1.6311469466        2.7546906333
        1.6955343282        2.1935544468
        1.7599217097        1.7821028056
        1.8243090913        1.6086604644
        1.8886964729        1.6237105087
        1.9530838545        2.0787168935
        2.0174712361        2.4831574839
        2.0818586177        2.6781028664
        2.1462459993        3.1794513122
        2.2106333809        2.6221070150
        2.2750207625        2.7655040578
        2.3394081441        2.9059586101
        2.4037955257        2.9257063378
        2.4681829073        2.4093946987
        2.5325702889        1.3988062232
        2.5969576705        0.1163951745
        2.6613450521        0.0000000000
        2.7257324337        0.0000000000
        2.7901198153        0.0000000000
        2.8545071969        0.0000000000
        2.9188945785        0.0000000000
        2.9832819601        0.0000000000
        3.0476693417        0.0000000000
        3.1120567233        0.0000000000
        3.1764441048        0.0000000000
        3.2408314864        0.0000000000
        3.3052188680        0.0000000000
        3.3696062496        0.0000000000
        3.4339936312        0.0000000000
        3.4983810128        0.0000000000
        3.5627683944        0.0000000000
        3.6271557760        0.0000000000
        3.6915431576        0.0000000000
        3.7559305392        0.0000000000
        3.8203179208        0.0000000000
        3.8847053024        0.0000000000
        3.9490926840        0.0000000000
        4.0134800656        0.0000000000
        4.0778674472        0.0000000000
        4.1422548288        0.0000000000
        4.2066422104        0.0000000000
        4.2710295920        0.0000000000
        4.3354169736        0.0000000000
        4.3998043552        0.0000000000
        4.4641917368        0.0000000000
        4.5285791184        0.0000000000
        4.5929664999        0.0000000000
        4.6573538815        0.0000000000
        4.7217412631        0.0000000000
        4.7861286447        0.0000000000
        4.8505160263        0.0000000000
        4.9149034079        0.0000000000
        4.9792907895        0.0000000000
        5.0436781711        0.0000000000
        5.1080655527        0.0012468417
        5.1724529343        0.0967327831
        5.2368403159        0.1590855182
        5.3012276975        0.2909204745
        5.3656150791        0.3379754249
        5.4300024607        0.4485286208
        5.4943898423        0.7691894932
        5.5587772239        0.9264367145
        5.6231646055        1.3014671024
        5.6875519871        1.4486330101
        5.7519393687        1.6432850679
        5.8163267503        1.3943741807
        5.8807141319        1.1657581696
        5.9451015135        1.1992761598
        6.0094888950        0.8196740846
        6.0738762766        0.6939904550
        6.1382636582        0.6142682159
        6.2026510398        0.5700347766
        6.2670384214        0.5425684797
        6.3314258030        0.5335566151
        6.3958131846        0.5314198543
        6.4602005662        0.5666418801
        6.5245879478        0.5870365879
        6.5889753294        0.5486612837
        6.6533627110        0.5113978324
        6.7177500926        0.4861820475
        6.7821374742        0.4813959551
        6.8465248558        0.4884207810
        6.9109122374        0.4990281635
        6.9752996190        0.5257157664
        7.0396870006        0.5502569260
        7.1040743822        0.5579800279
        7.1684617638        0.5651193376
        7.2328491454        0.5800381752
        7.2972365270        0.5951742667
        7.3616239086        0.6085034481
        7.4260112901        0.5812352647
        7.4903986717        0.5863295182
        7.5547860533        0.6078903138
        7.6191734349        0.5909202679
        7.6835608165        0.5765827740
        7.7479481981        0.5706890918
        7.8123355797        0.5637217494
        7.8767229613        0.5205193471
        7.9411103429        0.4507801552
        8.0054977245        0.4140477203
        8.0698851061        0.3896079415
        8.1342724877        0.3856238774
        8.1986598693        0.3779213710
        8.2630472509        0.3739380231
        8.3274346325        0.3732023841
        8.3918220141        0.3717047146
        8.4562093957        0.3603297659
        8.5205967773        0.3925958413
        8.5849841589        0.4310169829
        8.6493715405        0.4818094226
        8.7137589221        0.5536812684
        8.7781463037        0.6609207956
        8.8425336852        0.8437650137
        8.9069210668        1.3175363574
        8.9713084484        1.6528318391
        9.0356958300        1.1819351128
        9.1000832116        0.9902037272
        9.1644705932        0.8772359097
        9.2288579748        0.8038169464
        9.2932453564        0.7410586954
        9.3576327380        0.7020834810
        9.4220201196        0.6598943088
        9.4864075012        0.5000422902
        9.5507948828        0.3760173063
        9.6151822644        0.2888057145
        9.6795696460        0.2285272695
        9.7439570276        0.1700319075
        9.8083444092        0.1173311397
        9.8727317908        0.1045199454
        9.9371191724        0.0942955670
       10.0015065540        0.0824549741
       10.0658939356        0.0753731985
       10.1302813172        0.0676562617
       10.1946686988        0.0603699203
       10.2590560803        0.0524011487
       10.3234434619        0.0476926840
       10.3878308435        0.0412969948
       10.4522182251        0.0350677811
       10.5166056067        0.0297860358
       10.5809929883        0.0228152913
       10.6453803699        0.0152771735
       10.7097677515        0.0031761340
       10.7741551331        0.0000000000
       10.8385425147        0.0000000000
       10.9029298963        0.0000000000
       10.9673172779        0.0000000000
       11.0317046595        0.0000000000
       11.0960920411        0.0000000000
       11.1604794227        0.0000000000
       11.2248668043        0.0000000000
       11.2892541859        0.0000000000
       11.3536415675        0.0000000000
       11.4180289491        0.0000000000
       11.4824163307        0.0000000000
       11.5468037123        0.0000000000
       11.6111910939        0.0000000000
       11.6755784754        0.0000000000
       11.7399658570        0.0000000000
       11.8043532386        0.0000000000
