4
Lattice="4.199263080375646 0.0020114627536111326 -0.000606955791623416 -0.006121192808255676 4.197331606456489 -0.007725014567975652 0.00011375224138582511 0.0013455044013375467 4.270504399010531" Properties=species:S:1:pos:R:3:forces:R:3 structure_index=0 total_energy=-11.990312576293945 stress="-0.0941879153251648 -0.005249329376965761 -0.0003713357145898044 -0.005249278619885445 -0.10092943161725998 -0.004644343163818121 -0.00037126956158317626 -0.004644409753382206 0.10386117547750473" pbc="T T T"
Li       3.35817555       1.67413417       0.34243884      -0.00014243      -0.00031069       0.00029362
Li       1.25558078       3.77181618       0.33958304      -0.00035335      -0.00021429      -0.00050609
Ga       1.25832417       1.67391176       2.47833225      -0.00002584      -0.00068621      -0.00002270
Sn       3.35469722       3.77270418       2.47402873       0.00052163       0.00121118       0.00023517
5
Lattice="3.3973985027224094 0.0005213574287642489 -0.741430231459599 -0.16295939126563827 3.3952165548573308 -0.7417971638757178 -0.010199813975172684 -0.011649089125473633 8.110160999176736" Properties=species:S:1:pos:R:3:forces:R:3 structure_index=1 total_energy=-15.028938293457031 stress="0.004438897129148245 0.0023812546860426664 0.015547470189630985 0.0023812642320990562 0.002329972805455327 0.01761256530880928 0.015547486022114754 0.017612574622035027 0.07813382893800735" pbc="T T T"
Li       1.20133078       1.19200518       3.27226773      -0.00269403      -0.00165540      -0.01145089
Li       1.88988643       1.91674130       6.43012724       0.00331681       0.00274175       0.01206319
Ga       2.50729777       2.56442485       1.10687052       0.00923552       0.00895356       0.03522558
Ga       0.59727478       0.55890654       0.49734526      -0.01158863      -0.01131674      -0.04519058
Sn       3.16164495       3.25147881       4.10290310       0.00173033       0.00127683       0.00935270
16
Lattice="4.154785353585413 -0.0006725425190160967 5.1806484957780075e-05 -2.076778355843991 4.82508083935121 0.6001499810502647 0.0020749405811598264 0.4189604010024187 15.555294263241525" Properties=species:S:1:pos:R:3:forces:R:3 structure_index=2 total_energy=-49.026466369628906 stress="-0.004367560613900423 -0.0005063440185040236 0.00043558471952565014 -0.0005063381977379322 0.024549830704927444 0.0019510695710778236 0.00043558591278269887 0.0019511310383677483 -0.006982526741921902" pbc="T T T"
Li       2.29156409       3.80645691       5.36555080      -0.00019684      -0.00734321      -0.00548097
Li       0.21515017       3.31593539      10.24527873       0.00028614       0.00317023       0.00895056
Li       0.21330739       1.06116672      13.79509661      -0.00027931      -0.01922812       0.00394231
Li       0.20953634       4.34368720       0.56987266       0.00100087       0.00504513      -0.01289277
Ga       0.21594678       0.31904138      10.73576608      -0.00117742      -0.00600798       0.03757406
Ga       0.21002192       1.38077108       1.01724231       0.00089338       0.01315350      -0.00748772
Ga       2.29172409       4.36543887       8.52037026       0.00044106      -0.00503877       0.00565737
Ga       2.28984708       3.26935358       2.19902919      -0.00045808       0.04114811      -0.01361096
Ga       0.21422927       4.04629901      13.33201394      -0.00024774      -0.00512568      -0.03619163
Ga       2.29291715       1.42523414       9.05637424      -0.00065791      -0.01080803       0.03066749
Ga       2.29003792       0.18710644       2.73707626      -0.00068960       0.00487302      -0.01987636
Ga       0.21444875       2.61594591       7.39694972      -0.00000158      -0.00496156       0.01160507
Ga       2.28946981       2.93583302      15.01213492       0.00065189      -0.01344340       0.00354667
Sn       2.29057614       0.76617646       6.07140601       0.00069269       0.00411046       0.00727915
Sn       0.21358881       2.02292316       4.02594478      -0.00037884       0.00394067      -0.03124118
Sn       2.29220720       2.18437868      12.05241039       0.00012128      -0.00348434       0.01755891
15
Lattice="5.552317107907219 -0.06374403465900276 -2.3100654399311993 -1.2570720904331387 6.952983186039528 0.6360601187658503 -0.005519223292922302 0.16148817230313592 7.603455817969368" Properties=species:S:1:pos:R:3:forces:R:3 structure_index=3 total_energy=-45.44322204589844 stress="0.010367350652813911 -0.024152470752596855 0.0037763072177767754 -0.024152519181370735 -0.00535932183265686 0.00444262009114027 0.0037762096617370844 0.004442646633833647 0.01223286334425211" pbc="T T T"
Li       3.10239559       2.66736123       6.09129678      -0.00466454      -0.01449704       0.00396346
Ga       3.99926115       0.66019179       4.13648791      -0.02470359      -0.00144450      -0.03252245
Ga       2.73422515       0.65135040       1.37313812      -0.01671149       0.01462383       0.00267778
Ga       1.45103664       5.16961809       5.54627457       0.01462968       0.00423159      -0.02394161
Ga       4.43730687       5.09130754       5.34989186       0.00345253      -0.03684491       0.03153394
Ga       4.42410025       2.66176695       1.24762960       0.02501767       0.00122499       0.01290157
Ga       0.06053179       2.95141461       6.16882070       0.00621855      -0.00943142       0.00432612
Ga       0.28684789       1.86063480       1.18519588      -0.00721079      -0.00681591      -0.00255319
Ga       3.02819939       6.51838103      -0.12704614      -0.02068809       0.01650111      -0.00795855
Ga       1.49871235       0.41637064       6.39700746      -0.02034646      -0.02702237       0.02383467
Ga       3.92567037       6.21361032       2.61292751       0.02154079       0.01801143      -0.00744367
Ga       2.89835574       3.74528518       3.38945831       0.02002089       0.00936734      -0.00357847
Ga       2.00583965       4.05783928       0.65481881       0.00440264       0.00125220      -0.00257843
Ga       1.35617793       1.52420960       3.85692402      -0.00636800       0.02618144       0.00550174
Sn       0.19156735       5.15182114       2.77987960       0.00541022       0.00466219      -0.00416290
8
Lattice="5.007170700080584 0.0004627530158143157 0.003748758270203428 0.00120432099553501 5.086665993553151 -3.427920378278796 -0.0008188702847190405 -0.16891276067703082 6.130566566014021" Properties=species:S:1:pos:R:3:forces:R:3 structure_index=4 total_energy=-23.91862678527832 stress="-0.010100525803864002 0.00015373219503089786 0.00020253386173862964 0.0001537740754429251 -0.023547429591417313 0.008092526346445084 0.00020249788940418512 0.008092313073575497 -0.03391150385141373" pbc="T T T"
Li       3.43724759       4.23737808       1.17882491      -0.00001207      -0.00809971       0.00851418
Li       0.93196513       0.04011704       2.98928044       0.00099512      -0.00395585       0.00723262
Ga       0.93576769       2.52135719       4.30059496      -0.00063462       0.00676102      -0.01303999
Ga       3.43860524       1.69571415       2.88339623      -0.00050406       0.00726334      -0.02049747
Ga       0.93511988      -0.10490013       6.09175229      -0.00135768       0.00010828       0.04469187
Ga       3.43928200       4.32672378      -1.89014661       0.00015044       0.01534167      -0.01950514
Ga       0.93339228       2.58060149       1.34684658       0.00110189      -0.03624348       0.02169598
Sn       3.43909077       1.77789170      -0.17550989       0.00026099       0.01882473      -0.02909201
10
Lattice="3.398804678514327 0.0007349286586057625 -0.0001346255623116971 -0.0005923062689133072 3.3987072245597156 -0.00016950787960729824 0.0007517465703109502 0.0006087840066676195 17.051910677896895" Properties=species:S:1:pos:R:3:forces:R:3 structure_index=5 total_energy=-31.546775817871094 stress="0.027316099032759666 0.0004188694292679429 8.529458864359185e-05 0.00041886509279720485 0.027042657136917114 5.787630652775988e-05 8.532182982889935e-05 5.788343332824297e-05 0.02787705324590206" pbc="T T T"
Li       0.50617182       3.36456350      11.11404292       0.00039571       0.00003825       0.00670287
Li       0.50623844       3.36505149      14.68410655       0.00053197      -0.00021090       0.00664436
Li       0.50550259       3.36446655       1.22667875       0.00006644      -0.00035590      -0.01002149
Li       0.50520104       3.36410117       7.60656692       0.00047336       0.00018620       0.03658666
Li       0.50508931       3.36451160       4.74190875       0.00023277      -0.00050535      -0.03967734
Ga       2.20498538       1.66519886       6.16942190      -0.00010638       0.00013211       0.00535947
Sn       2.20580452       1.66551726       9.31827969      -0.00047540      -0.00018797       0.00158840
Sn       2.20666348       1.66572258      12.92192857      -0.00079302       0.00011194      -0.02392740
Sn       2.20506461       1.66481172       3.03045971      -0.00009638       0.00068277      -0.00986157
Sn       2.20619051       1.66596769      16.45805675      -0.00022907       0.00010887       0.02660603
6
Lattice="4.241615999445253 -0.0034491887726562707 0.00042409232348342054 0.0014138837869309068 4.24185013740507 0.003242122840512953 -0.00827570350311712 -0.008500753075534448 6.66204890986214" Properties=species:S:1:pos:R:3:forces:R:3 structure_index=6 total_energy=-18.960237503051758 stress="-0.052470989525318146 -0.001821172540076077 -0.003549989778548479 -0.0018211273709312081 -0.051868751645088196 -0.0033621652983129025 -0.0035501604434102774 -0.0033622782211750746 -0.0650528147816658" pbc="T T T"
Li       4.02468578       3.52977132       4.89120471      -0.00053625       0.00103906       0.00023413
Li       1.90203790       1.41227688       4.88977151       0.00018119      -0.00025651      -0.00011094
Ga       1.90467538       3.53566623       2.99168515       0.00040834       0.00020638      -0.04704550
Ga       4.02961793       1.41674348       0.12728443      -0.00031592      -0.00069510       0.04715095
Sn       4.02467155       1.41346707       2.84183325      -0.00046073      -0.00104892       0.02976513
Sn       1.90963547       3.53851163       0.27722522       0.00072337       0.00075511      -0.02999376
6
Lattice="4.181600679021577 -0.03685562095655462 0.023234388466565205 -2.02508815622573 4.530987569172023 -1.5314697109186413 -0.013771980166182574 -0.0628961804623611 5.845113665415265" Properties=species:S:1:pos:R:3:forces:R:3 structure_index=7 total_energy=-17.290245056152344 stress="-0.06529034674167633 0.001666090334765613 0.003187266644090414 0.0016659552929922938 0.026001086458563805 0.0022165095433592796 0.0031872885301709175 0.0022166725248098373 0.007071395870298147" pbc="T T T"
Li      -0.12549687       1.61008124       4.98846668       0.00092226      -0.03781211      -0.01973742
Li       1.98763575       3.24161209       0.59646505       0.00279019       0.02373095      -0.00352400
Li       1.98584898       3.20452665       3.54496329       0.00073610       0.00664883       0.02086342
Ga       1.95156482       0.15101839       0.56564598       0.00355418       0.05042555      -0.00271002
Ga       1.95285011       0.18639519       3.68482555      -0.00411433      -0.04046702       0.02385137
Sn      -0.11615754       1.64787816       2.04353043      -0.00388840      -0.00252620      -0.01874335
18
Lattice="6.126160086080862 0.0023703184015423273 0.0009922964118029645 -0.003487621158899639 7.023733522278625 -4.062528550997953 0.001999114840822862 0.006484622984088896 8.115708976999153" Properties=species:S:1:pos:R:3:forces:R:3 structure_index=8 total_energy=-55.08141326904297 stress="-0.001689078868366778 -1.3829413774146815e-06 4.8290621634805575e-05 -1.371836901853385e-06 0.01250139344483614 5.1962379075121135e-05 4.8260299081448466e-05 5.200337909627706e-05 0.012827771715819836" pbc="T T T"
Li       2.11557402       1.15936135       5.80560562      -0.00524222       0.00427005      -0.00172501
Li       5.16855497       1.15772941       5.80799995       0.00271995       0.00628330      -0.00356020
Li       5.17145113       3.49527895       1.74175447       0.00035421       0.00794679       0.00168652
Li       5.16412469       5.84300143       0.06120014       0.00519807      -0.00153929       0.03651757
Li       2.11257738       3.78999889       4.61027613      -0.00365860      -0.03562066      -0.01833586
Li       5.17434954       3.78672191       4.61328092      -0.00009987      -0.03037627      -0.01784098
Li       2.11261543       0.86676964       0.56129367      -0.00396194       0.04070062      -0.02490395
Li       5.17310574       0.87337150       0.55830735       0.00073856       0.03334203      -0.02057148
Li       2.10763884       5.84101866       0.06333679      -0.00404329       0.00371740       0.03313781
Li       2.10931068       3.50131629       1.73486045      -0.00292991      -0.00379017       0.01019432
Ga       3.63829700       5.84644292      -2.31590830       0.00140694      -0.01028046       0.00057151
Ga       0.57632652       5.84111543      -2.32137276      -0.00316819      -0.00519169       0.00995588
Sn       3.64131927       1.36071804       3.21390644      -0.00282321      -0.00627284      -0.00172968
Sn       3.63711691       5.84018203       2.86822728       0.00208650       0.00540970       0.00093160
Sn       0.57550693       3.29913165      -0.84924727      -0.00080107       0.00739564      -0.00542585
Sn       0.57295605       5.84137811       2.85894917       0.00430449      -0.00119178       0.01490677
Sn       3.63708465       3.30815643      -0.84907289       0.00482442      -0.00829874      -0.00349175
Sn       0.57665017       1.35621649       3.21561432       0.00509515      -0.00650363      -0.01031723
4
Lattice="4.245117932782208 0.00014662616275783565 -0.001610694560248767 -0.000885482773359521 4.212090469276878 -0.001134131420532174 0.0002772873761705204 0.00035661104806163036 4.213172243062766" Properties=species:S:1:pos:R:3:forces:R:3 structure_index=9 total_energy=-11.990678787231445 stress="0.05024920776486397 -0.0005702846683561802 -0.0010476077441126108 -0.000570187927223742 0.001254867296665907 -0.0009951316751539707 -0.0010476071620360017 -0.0009951780084520578 0.005020617973059416" pbc="T T T"
Li       1.01844866       2.87209805       1.89662958       0.00117939      -0.00013149       0.00030462
Li       1.01905069       0.76618608       4.00431613       0.00116319      -0.00014772      -0.00018137
Ga       3.14210970       0.76657768       1.89721636      -0.00031843      -0.00091069      -0.00070105
Sn       3.14256308       2.87172823       4.00251559      -0.00202414       0.00118989       0.00057779
7
Lattice="4.4912796876207715 -0.017677201092217446 -0.008620115584087052 -2.228801746092625 5.0363137837099465 0.4047038025870357 0.012472778515013197 0.12747714653762793 6.355451079747133" Properties=species:S:1:pos:R:3:forces:R:3 structure_index=10 total_energy=-21.97072982788086 stress="0.016463300213217735 -0.004787092097103596 0.0027510744985193014 -0.004787109792232513 0.029769646003842354 0.011161405593156815 0.002751097781583667 0.011161363683640957 -0.00616228673607111" pbc="T T T"
Li       3.46343056       1.22416525       6.09090753      -0.00021523       0.00401922      -0.01121498
Li      -1.02825091       2.84571348       3.50008259      -0.00006874      -0.00317392       0.01144412
Ga       1.22091401       3.26562790       5.36116970       0.00056765      -0.02276486       0.01158541
Ga       1.21129867       1.97127806       1.61768248      -0.00011908       0.00002801       0.00045375
Ga       1.21365995       0.80644499       4.23131584      -0.00040506       0.02173615      -0.01234031
Sn      -1.03075589       4.03390199       0.68270938       0.00090659      -0.01112923      -0.01003980
Sn       1.22405814       4.94563162       2.95891582      -0.00066615       0.01128462       0.01011180
8
Lattice="4.393925814130491 -0.007821043638401142 0.004772972162420685 0.004661018535588006 4.397207039094383 0.004462489104159446 -0.017112985756681708 -0.013145458261775997 8.607152620923507" Properties=species:S:1:pos:R:3:forces:R:3 structure_index=11 total_energy=-25.446735382080078 stress="0.004586650524288416 -0.005521968938410282 -0.0056947823613882065 -0.005522093735635281 0.01929372176527977 -0.0036461905110627413 -0.005694846622645855 -0.003646204946562648 0.012940289452672005" pbc="T T T"
Li       2.13567997       1.74040179       3.07754273      -0.00071762      -0.00035165       0.01044625
Li       4.32545864       3.92683341       7.51544821      -0.00005834       0.00096821      -0.00002500
Li       4.33549440       3.93658115       3.04005296      -0.00077102      -0.00080732       0.00615011
Ga       2.14264379       3.94256394       1.03213999      -0.00098022       0.00074819      -0.04904849
Ga       2.12511966       1.73314007       7.56654992       0.00027907      -0.00060428      -0.00123633
Sn       4.32619982       1.73252448       5.24557375       0.00198331      -0.00178203       0.04246016
Sn       4.33595968       1.74102197       1.03699818       0.00116306      -0.00138243      -0.02308355
Sn       2.13273560       3.93317559       5.25435562      -0.00089824       0.00321132       0.01433687
12
Lattice="5.556329279173878 -0.0003663755881903991 -2.113266566735941 -0.7805907983318041 5.380948762703084 -2.0595427512873496 0.0035512064825585004 0.05806372210901149 8.374294654125686" Properties=species:S:1:pos:R:3:forces:R:3 structure_index=12 total_energy=-36.30048370361328 stress="0.017840391024947166 0.0014384305104613304 -0.013515028171241283 0.0014383663656190038 -0.027335120365023613 0.008908732794225216 -0.013514923863112926 0.008908761665225029 -0.0038386788219213486" pbc="T T T"
Li       0.81406224       2.18108751       0.65627987      -0.01593847       0.00717815      -0.04529315
Li       2.77756665       1.14375154       5.83159038       0.01614642      -0.00899258       0.04504804
Li       3.21824003       4.73777025      -1.38302953      -0.00989927      -0.03873802      -0.02366481
Li      -0.40638947       3.98057061       5.80636619       0.00885257       0.03924116       0.02317749
Li       0.40561559       1.66492032       3.77095969       0.00056770       0.00102226       0.00080479
Li       3.18498004       1.66429336       2.71264617      -0.00017034       0.00067514      -0.00195573
Ga       2.79577274       4.35591721       1.68521836       0.00104065      -0.00034792       0.00109847
Ga       0.01646494       4.35676108       2.74405489      -0.00025639       0.00001806      -0.00040494
Sn      -0.16272839       1.11978595       6.46328587       0.00068681       0.01397566       0.00088323
Sn       3.75290406       2.21762396       0.01991891      -0.00015253      -0.01228578       0.00053477
Sn       2.24796910       3.67568833       4.42462131       0.00484147      -0.00934482       0.00954453
Sn       0.56541151       5.02990697       0.00457265      -0.00571863       0.00759868      -0.00977269
7
Lattice="4.256449290003983 -0.0480561406616834 -0.6993177402752025 -2.5387922803241314 5.003928807342291 -0.9149689992001009 -0.06612896309112515 -0.07739885725900968 7.02283841475401" Properties=species:S:1:pos:R:3:forces:R:3 structure_index=13 total_energy=-22.421363830566406 stress="0.01886739954352379 0.007021279539912939 -0.017229853197932243 0.007021273486316204 0.0220722034573555 -0.014099273830652237 -0.017229905351996422 -0.014099174179136753 0.0466807521879673" pbc="T T T"
Li       2.30693516       1.22151949      -0.39391448      -0.00028722       0.00049792      -0.00150636
Ga      -0.02452852       1.68875535       4.86029493       0.00110191      -0.03869988      -0.01458764
Ga       2.47728710       2.44208008       2.17878466       0.04940028      -0.00232616      -0.00093827
Ga       0.31889209       0.72376313       2.06671137      -0.00299202       0.03674623       0.01774925
Ga      -0.46894512       4.92399295       3.14175908      -0.04865561       0.00332987      -0.00136789
Sn       0.12570988       3.43435893       0.56284522       0.01789062       0.01700734       0.01432213
Sn       1.88084511       3.93564380       4.75593767      -0.01645797      -0.01655532      -0.01367124
8
Lattice="4.811492288976643 -0.0016500911013823702 0.000649356283296922 -0.00027430981802048873 5.011861170504895 -2.962956164757361 0.001524475206852441 -0.10706203774372773 5.81372103944855" Properties=species:S:1:pos:R:3:forces:R:3 structure_index=14 total_energy=-21.85422134399414 stress="-0.01897694170475006 -0.00019234014325775206 0.00010709230264183134 -0.000192362887901254 0.0035396628081798553 -0.006213291548192501 0.00010712269431678578 -0.006213624961674213 0.009145978838205338" pbc="T T T"
Li       4.41884816       2.76283957       0.31228898      -0.00074257       0.01205875      -0.01862539
Li       4.41816792       2.68900499       3.33791625      -0.00039739       0.01705662      -0.01228855
Li       2.01191347       1.07383759       0.37671115       0.00016470      -0.01716875       0.01422176
Li       2.01230423       3.54842723       1.81591380       0.00053400      -0.00193563       0.02116705
Li       4.41700973       0.16672355       1.87162371      -0.00008145       0.00287217      -0.01978509
Ga       2.01012040       3.59479947      -1.10016593       0.00084608       0.00497656      -0.00978009
Ga       2.01273782       1.06864869       3.23616094      -0.00086215      -0.02261579       0.03184462
Sn       4.41910102       0.15617811       4.78252066       0.00053881       0.00475609      -0.00675430
14
Lattice="6.477270743680762 0.06959766915628149 -1.687397960764509 -4.093423420369461 5.969620162152315 -1.5870175248773237 0.14577874033651947 -0.07399720993532556 6.802920322202204" Properties=species:S:1:pos:R:3:forces:R:3 structure_index=15 total_energy=-38.88810348510742 stress="0.011668127961456776 0.0011940088588744402 0.0006792009808123112 0.0011941168922930956 0.009145449846982956 0.0039968593046069145 0.0006794778164476156 0.0039967019110918045 0.013111180625855923" pbc="T T T"
Li       1.61303158       1.63661081       2.06195399       0.00972374      -0.00913751       0.01769601
Li       4.11199264       1.66955513       3.69315900      -0.01584767       0.00479855      -0.00703964
Li       1.01947666       0.87200148       4.92032835       0.01761803      -0.01135475      -0.02150076
Li       0.05460741       3.47805874      -0.31896063      -0.00656915      -0.01467442       0.02899986
Li       4.38516482       0.34670108       1.27989891      -0.01202526       0.01587853      -0.00102012
Li      -2.41801415       4.77366015      -1.17418647      -0.02207957      -0.01156708      -0.01939286
Li       3.58457802       2.56931073      -0.44636098      -0.00113409       0.01484842       0.03385434
Li       1.38876807       4.71706229       1.92827452       0.02426401      -0.00980088       0.02069638
Ga      -0.53746526       5.69992273       3.98653502      -0.01139753       0.02542426       0.02394450
Ga       1.92319145       3.46073697       4.36976508      -0.00272065      -0.01585073      -0.03927835
Ga      -1.39635525       5.12792134       1.57371355       0.02307741      -0.00857384      -0.03916278
Ga       2.58330029       5.09190321      -0.50116024       0.01840464       0.01718900       0.02414593
Sn       5.93501570       0.78475420      -1.15152975       0.00571101      -0.01621538       0.01073436
Sn      -0.68319909       2.90559120       3.45217746      -0.02702487       0.01903582      -0.03267688
18
Lattice="6.504369660489324 -0.04386242553834113 -2.5092949453368107 -3.1780978889595404 6.254788263611391 -2.388939781369295 -0.0414632243280848 -0.1618568485282046 7.892474283418424" Properties=species:S:1:pos:R:3:forces:R:3 structure_index=16 total_energy=-49.45708084106445 stress="0.020781949162483215 -0.0017721325857564807 0.00044839768088422716 -0.0017721477197483182 0.017281338572502136 -0.003635254455730319 0.0004483938973862678 -0.0036353038158267736 0.020148660987615585" pbc="T T T"
Li       0.77200065       2.59122306       2.34477777       0.00391572       0.01403829       0.01220122
Li       3.68351509       1.07273827       4.25954343       0.02588271      -0.02308108      -0.03433241
Li       4.39780345       1.37083527      -0.88555939      -0.02432635      -0.03561618       0.00183274
Li      -1.47792121       4.25679796       2.75945006      -0.00191391       0.00795795      -0.01392150
Li      -0.16309986       2.47182572      -0.48807183      -0.00936618       0.01553253       0.00439817
Li       5.48189900       1.87406693       1.99811274       0.02892286       0.01404710      -0.00623466
Li      -0.77061120       4.82168873      -2.21916049      -0.00185935      -0.01183076       0.01423790
Li       1.91779777       5.51576577      -1.53094608      -0.00993418       0.00450317       0.01817167
Li       2.43323183       3.29641748      -0.05704582      -0.00651797       0.01518568      -0.00010017
Ga       1.01130637       4.98378449       3.50126027       0.01027671      -0.00986978      -0.00081561
Ga       0.16242796       4.93320890       0.63930586      -0.01167354       0.00432346      -0.00325747
Ga       3.34908947       3.34217757       2.80990506       0.01509938       0.00105793      -0.00953155
Ga       4.07405006       3.80500718      -2.37744333      -0.00359259      -0.01723498       0.00283907
Ga       1.17077975       0.28713076       3.73904091      -0.00334322       0.00776215      -0.00191556
Ga       0.25103514       0.14402419       1.20965829      -0.02756978       0.01536127      -0.00154494
Ga       2.85240372       1.00137631       1.50294662      -0.01040364      -0.00027510      -0.00542193
Ga       1.51794039       2.82664777       5.04098858       0.01410880      -0.00833930       0.01230213
Sn       3.02465257       5.86288629       1.36190147       0.01229451       0.00647766       0.01109290
12
Lattice="5.209805395529809 -0.014238611242897695 -0.8716864414923555 -2.6539685584092862 4.484306986501102 -0.8716710257822399 -0.009588536416644838 -0.013496652154642364 8.404951597709521" Properties=species:S:1:pos:R:3:forces:R:3 structure_index=17 total_energy=-30.646766662597656 stress="-0.007579104509204626 -0.0057191187515854836 0.005431761033833027 -0.005718905478715897 -0.007930013351142406 0.008531943894922733 0.005431444384157658 0.008531749248504639 -0.01555935014039278" pbc="T T T"
Li       0.01568820       3.92108853       4.13473085      -0.01779189      -0.03762734      -0.01262819
Li       3.97652317       1.71319635       4.11752885       0.00990764       0.01987755      -0.04048654
Li       2.62126143       3.90086781      -0.64178644       0.00140343       0.01451330       0.02650063
Li       1.78649050       2.45179409       2.88145390      -0.00213589      -0.00869602      -0.03110233
Li       1.34351497       1.66869388       0.22933837      -0.00169152       0.00830329       0.03002844
Li       0.23974903       4.30191059       1.11727702      -0.00191782      -0.00134988       0.00124434
Li      -0.85863949       2.39060270       7.39447874      -0.00714917      -0.02033692       0.04009464
Li       0.51223568       0.21453607       3.74849271      -0.01024187      -0.00675765      -0.02762190
Li       3.09984240       0.18650609       7.37965289       0.02292467       0.03221953       0.01451155
Ga       1.55552969       2.05189980       5.75499822       0.00686628       0.00232343       0.00405267
Ga      -2.37382617       4.30264750       5.75988641       0.00068448      -0.00294208      -0.00612138
Sn      -1.03933135       2.06673551       1.98930828      -0.00085838       0.00047281       0.00152809
9
Lattice="4.1918809894623985 0.0030497154424951258 -0.0009387292584578492 -2.1010976225509497 4.7136547198363825 -1.6175550067605928 0.0015863136453080648 -0.027052329603856073 9.611220777322144" Properties=species:S:1:pos:R:3:forces:R:3 structure_index=18 total_energy=-28.946216583251953 stress="-0.0018568206578493118 -2.975292591145262e-05 -0.00023214642715174705 -2.972540823975578e-05 -0.02713203988969326 0.012626543641090393 -0.00023215034161694348 0.01262657344341278 0.0347028486430645" pbc="T T T"
Li       2.88153222       0.45155376       7.24599277       0.00130589       0.01271255      -0.01616433
Li      -1.31034675       3.59531695       0.81029411      -0.00141257      -0.01321927       0.01580919
Ga       2.88231106       0.37323391       4.07466862       0.00150191       0.00296114       0.00788843
Ga      -1.31017657       3.67632557       7.26428490      -0.00246565      -0.03010449      -0.01800912
Ga      -1.31230254       3.67647875       3.97507551      -0.00056171      -0.00118159      -0.00375347
Ga       2.88352555       0.36616200       0.80061549      -0.00013057       0.03113576       0.01386952
Sn       0.78628138       2.00669219       8.83547398       0.00125970       0.00059412      -0.00136846
Sn       0.78453310       2.12613328       5.64030014       0.00114058      -0.03216246      -0.00059721
Sn       0.78634609       1.92535361       2.41509360      -0.00063759       0.02926425       0.00232545
6
Lattice="4.52196209884302 -3.117259722895273e-05 -0.0005025783096207871 -2.259974255342777 3.9180768210665473 -0.0006010368240150466 0.002119487870368685 0.0012657510781907888 7.254418904193114" Properties=species:S:1:pos:R:3:forces:R:3 structure_index=19 total_energy=-19.217632293701172 stress="-0.0007275947136804461 -0.0005777223268523812 0.0008766918908804655 -0.0005778172053396702 0.002208637073636055 6.0016252973582596e-05 0.0008766907267272472 6.0114049119874835e-05 -0.0341879166662693" pbc="T T T"
Li       1.01303205       1.08587470       3.12287592      -0.00161523       0.00037497      -0.00136603
Li       1.00926291       1.08855035       6.74592312       0.00063441      -0.00005851       0.00104829