5
Lattice="4.132355134246694 0.016377900481765177 1.608913013415591 1.5473218631220933 3.832547573688746 1.61389652895808 0.06468027743762961 0.03770151756771049 6.634342409014572" Properties=species:S:1:pos:R:3:forces:R:3 structure_index=0 total_energy=-15.45938491821289 stress="0.03311218321323395 0.014761710539460182 0.023577488958835602 0.014761744067072868 0.026162568479776382 0.01549956388771534 0.023577407002449036 0.015499595552682877 0.02237766608595848" pbc="T T T"
Li       1.30464318       2.63387560       2.56900304       0.01558772       0.01160578      -0.00821125
Ga       2.85398433       3.68536897       4.77208243       0.00638336       0.00101210       0.00347259
Ga       3.06004619       1.04035811       4.68935117      -0.02578150      -0.01699562      -0.01527831
Ga       2.21755188       0.46223676       7.39691258       0.01584871       0.01337037      -0.00286865
Sn       4.51363170       2.02091649       7.58630627      -0.01203828      -0.00899265       0.02288562
8
Lattice="4.235995102736106 9.628051618029692e-05 0.0009275453207495323 -8.711239639873403e-05 4.238171625301442 -0.0005608483664156146 -0.00012787743863728284 0.0007670420676172725 8.658848209926918" Properties=species:S:1:pos:R:3:forces:R:3 structure_index=1 total_energy=-24.501489639282227 stress="-0.04043709859251976 1.3932642104919069e-05 0.0001269397180294618 1.3904445950174704e-05 -0.04012688621878624 -3.52313945768401e-05 0.0001269425411010161 -3.524723069858737e-05 0.03775780647993088" pbc="T T T"
Li       1.06108457       0.21011532       0.95499562       0.00010833      -0.00004305       0.00192887
Ga       3.17923553       2.32945488       0.95784193      -0.00017012      -0.00029993       0.00040247
Ga       3.18012122       2.33013881       5.28896568      -0.00062139      -0.00013434      -0.00078509
Ga       3.17882239       0.21058344       7.63594605       0.00054718      -0.00012924       0.00189180
Ga       1.06076791       2.32959977       2.94255011       0.00054216      -0.00004904      -0.00573470
Ga       1.06143772       2.32921032       7.63312212      -0.00039476       0.00054359       0.00389433
Ga       3.17953862       0.21052629       2.93796443      -0.00056385       0.00011144      -0.00045794
Sn       1.06170888       0.21087904       5.28850820       0.00055245       0.00000056      -0.00113973
20
Lattice="7.520854164491975 0.07479094453716376 -2.178022146238033 -4.144346225096004 6.175412056903706 -2.1414700665054016 0.009084963875470704 0.05309476509055282 7.897836261696925" Properties=species:S:1:pos:R:3:forces:R:3 structure_index=2 total_energy=-58.65009307861328 stress="-0.012085417285561562 0.008145960047841072 0.004150932654738426 0.00814579613506794 -0.010207467712461948 0.005933338310569525 0.004150987137109041 0.005933355074375868 -0.0030905287712812424" pbc="T T T"
Li       0.76367599       1.53248203       2.93862839      -0.00946415       0.00096321      -0.00205495
Li       0.46873160       2.44713544       0.12936316       0.00736900      -0.00445103       0.00766842
Li       2.84458634       2.85072887      -1.63101857       0.00274946       0.00012717      -0.00016471
Li       2.43964756       4.70332850       0.79456417       0.00616121      -0.00687660      -0.00194267
Li      -0.55540380       6.18349968       4.68524681      -0.00230197       0.00539853       0.00922495
Li       5.77348666       1.36982832       2.48626738      -0.00725545      -0.00092310      -0.00120791
Li       5.57178302       2.28752129      -0.44014423      -0.00521191      -0.00694399       0.00296342
Li      -0.38607321       5.24231409      -0.33704227       0.00796547      -0.00140718       0.00430745
Ga      -2.30434032       4.02350591       4.06067029      -0.01954306      -0.00233542       0.00691542
Ga      -2.95863950       5.88361783      -1.40498578       0.00767693       0.01477543      -0.01627429
Ga       5.33184100       3.16648846      -3.15115739       0.00773025       0.01307360       0.00783788
Ga      -2.77960286       4.89275888       1.19569872       0.00091507      -0.01312841       0.00128283
Ga      -0.11796951       4.35302119       2.36892801       0.00435229      -0.01617919      -0.00322630
Ga       0.12741199       3.55726770       5.31089102       0.00940645      -0.00762967       0.00962387
Ga       2.07938804       5.64482359      -1.98852015       0.01379818      -0.01373976      -0.01563384
Ga       5.95923653       0.48089129       5.28711073       0.00013998       0.00920320      -0.00537167
Ga       3.44026357       0.83478496       4.06092589      -0.00492828       0.01400582       0.00153354
Sn       3.20982308       1.86466999       1.16042655       0.00120669       0.01229708       0.00499653
Sn       0.91684297       0.66473952       5.69598920      -0.00299077      -0.00047553       0.00123119
Sn       2.62323337       3.80758719       3.58200308      -0.01777537       0.00424584      -0.01170917
11
Lattice="3.10608034935938 -0.00015638651667683928 -2.1707289898647108e-05 -0.0014134560944251899 7.831229245465597 -0.6122030749820595 -0.0008760602255590873 0.02405807826666628 9.603952418058723" Properties=species:S:1:pos:R:3:forces:R:3 structure_index=3 total_energy=-36.08787536621094 stress="-0.022871168330311775 -0.00015290618466679007 -0.00016235069779213518 -0.0001529250293970108 0.023799235001206398 0.004663048777729273 -0.00016242198762483895 0.004663023166358471 0.02107197977602482" pbc="T T T"
Li       0.62825537       2.44420860       6.67507296      -0.00003250      -0.02350485      -0.01989871
Li       0.62875270       2.71624124       2.33138603      -0.00002835       0.02953895       0.01095596
Li       0.62804891       5.94329731       9.07666502      -0.00007050      -0.02519988      -0.00961502
Li       0.62826133       6.21202839       4.73964885       0.00011907       0.02611908       0.01763206
Ga       2.18153984       4.93462257       6.85541165      -0.00024942      -0.01271254       0.01277499
Ga       2.18107206       3.72545029       4.55733066       0.00035170       0.01213886      -0.01524992
Sn       2.18121751       0.83728109       4.38426695       0.00035357      -0.02659237       0.03275828
Sn       2.18033185       3.25377304       9.26575485       0.00072216      -0.03191210      -0.01336359
Sn       2.18147685       0.40172475       1.20988299       0.00055704       0.00154383      -0.00341147
Sn       2.18118831       7.82228958       7.02203947      -0.00037225       0.02582974      -0.02795519
Sn       2.18330857       5.41319012       2.14568573      -0.00135054       0.02475125       0.01537262
20
Lattice="8.486193295980891 0.014615632502826045 0.1125134858770847 0.032532733066688475 6.728782179267949 -0.042624650514042774 0.04113535050130788 0.04786561983651656 6.7910411596422735" Properties=species:S:1:pos:R:3:forces:R:3 structure_index=4 total_energy=-61.01248550415039 stress="0.017155582085251808 0.0001549959124531597 0.001459350693039596 0.00015498783614020795 0.007235049735754728 -0.0008313077269122005 0.0014593939995393157 -0.0008313569705933332 0.007443696726113558" pbc="T T T"
Li       4.14086338       0.23661758       6.43387224      -0.00808124      -0.01122821       0.00698489
Li       4.10612520       2.88701304       5.10172305       0.00372387       0.01540168      -0.01966790
Li       8.35439324       1.60574248       2.53811520       0.00742847      -0.02406092      -0.02016967
Li       8.29886694       4.22305090       0.99055305      -0.00013687       0.00407413      -0.02648274
Li       8.36119489       5.57348860       3.85916724      -0.00600054      -0.00057871       0.00604672
Li       4.02076075       1.56485459       2.45663296      -0.00022970       0.01140723       0.00649327
Ga       8.34425685       3.02857841       5.09911797       0.00555691      -0.03736686       0.03160598
Ga       1.91873237       0.94558953       4.42946086       0.00581888      -0.01537319       0.01485041
Ga       4.09372233       5.70501305       3.97604850       0.01086575      -0.03608610      -0.03283346
Ga       6.25428746       4.92853167       5.76823489       0.00133290       0.01596333      -0.00024809
Ga       1.98378684       4.93775298       5.69319267       0.00038925       0.01600464      -0.00102694
Ga       2.05338782       3.56029645       3.10352634      -0.02290737      -0.01812072       0.02179896
Ga       4.13429543       4.14305409       0.78436549       0.01328051       0.03595828       0.03328943
Ga       8.37801248       6.83934853       6.38168881      -0.00177536       0.05120169      -0.00266204
Ga       6.26074596       0.90858886       4.53929815      -0.00656343      -0.02068653       0.00448604
Ga       6.27709339       2.19465521       0.23509274      -0.01117115       0.02107285      -0.00530088
Sn       2.02840096       6.14083031       1.73215186      -0.00529969      -0.01015941      -0.00373485
Sn       1.91466373       2.17318033       0.31970208      -0.00125088       0.01784369      -0.00057024
Sn       6.14652120       3.55970910       3.02847702       0.00918863      -0.00888163      -0.00256591
Sn       6.21466208       6.34845755       1.74091709       0.00583106      -0.00638522      -0.01029298
8
Lattice="4.963499880719944 0.007858778511782892 -0.0006653343249054169 -0.008221604524448908 5.360168990566903 -0.010678334034071028 0.0010973217480218223 0.013856544587380767 6.000615235339247" Properties=species:S:1:pos:R:3:forces:R:3 structure_index=5 total_energy=-25.049039840698242 stress="0.009636306203901768 -1.2554575732792728e-05 0.00010990212467731908 -1.2569062164402567e-05 -0.010348256677389145 0.001071906997822225 0.00010996387572959065 0.0010717995464801788 -0.00976287480443716" pbc="T T T"
Li       2.92290730       1.37648354       5.91990550       0.00004294       0.00867351      -0.00015173
Li       0.43807009       3.21507111       2.91641223      -0.00000420      -0.00964287      -0.00043689
Ga       2.91757481       4.13296879       1.40964287       0.00045510      -0.00479145       0.00359992
Ga       0.44282842       0.45137125       4.41862310      -0.00033026       0.00418845       0.00342813
Ga       2.91859915       4.13886100       4.41663698      -0.00012484      -0.00339869      -0.00234306
Ga       0.44217328       0.44370480       1.42578632      -0.00036755       0.00515139      -0.00422904
Sn       2.92270875       1.43856446       2.91945956      -0.00001422       0.03182176      -0.00047328
Sn       0.43822046       3.15214948       5.91646513       0.00034303      -0.03200211       0.00060595
9
Lattice="3.066043008836519 0.0021455421587603936 -0.0007895926948071965 -0.0067443893111973395 7.0206465642441245 -4.052604920609058 0.0017562971060884058 -0.0013121916645374597 8.106203886254814" Properties=species:S:1:pos:R:3:forces:R:3 structure_index=6 total_energy=-27.540870666503906 stress="0.021246418356895447 -0.00028138773632235825 -0.00010488443513168022 -0.00028137091430835426 -0.03306615352630615 -0.0002952220384031534 -0.00010478287731530145 -0.000295358884613961 -0.03308820351958275" pbc="T T T"
Li       0.63384117       6.96132284       1.26781583       0.00005785      -0.03307772      -0.02121153
Li       0.63894659       1.99958163       0.77274709      -0.00037422      -0.00207207       0.03542762
Li       0.63789544       4.33395697       2.45261389      -0.00028819       0.00270266       0.00128213
Li       0.63569217       6.67672081      -1.60265574      -0.00045654       0.00077841       0.00145789
Li       0.63847128       4.05361303       5.31918172      -0.00050041       0.02890828      -0.01861995
Ga       2.17248224       1.99655577       6.50392647       0.00061704       0.00627981       0.00249346
Sn       2.17261175       1.99458113       3.57293547       0.00011056       0.00629341       0.00945718
Sn       2.16847908       6.47973781       3.91649447       0.00049694       0.00458499      -0.00159636
Sn       2.16944942       4.53998488      -0.13357668       0.00033698      -0.01439777      -0.00869043
5
Lattice="3.883874422113817 0.004368446564380109 -1.2003877267395777 -0.410287279093213 4.055154590050734 -1.3127642334171234 0.08865167844151127 0.06529716049580268 7.110451989828326" Properties=species:S:1:pos:R:3:forces:R:3 structure_index=7 total_energy=-16.30030059814453 stress="0.032880302518606186 -0.004167294129729271 -0.014760321006178856 -0.00416725454851985 0.027109630405902863 -0.014265120960772038 -0.01476017851382494 -0.014265215955674648 -0.011625414714217186" pbc="T T T"
Li       2.47486934       2.51283642       2.06771200      -0.00746822      -0.00748350      -0.02127848
Ga       1.80206504       4.00459338      -0.10100157       0.00133456       0.00057397       0.00022919
Ga       0.75564931       0.50384665       3.38279389       0.00047066       0.00007164      -0.00104680
Sn       1.09964025       3.16360085       4.50420162      -0.00762289      -0.00945948      -0.01979996
Sn       3.71195679       1.70710164      -0.80463375       0.01328591       0.01629736       0.04189605
7
Lattice="4.494379691836443 0.0009834741766704624 1.3958235290386336 2.0265923640897627 4.011178108393478 1.3966194606208353 -0.029902150432711563 -0.018927834036160992 8.000354598376633" Properties=species:S:1:pos:R:3:forces:R:3 structure_index=8 total_energy=-21.454662322998047 stress="0.01863112673163414 -0.0008515078225173056 0.0019564891699701548 -0.000851553282700479 0.018839050084352493 0.0013472859282046556 0.001956137828528881 0.0013470131671056151 0.009717551991343498" pbc="T T T"
Li       5.46279396       3.06614146       8.15415612       0.01400061       0.00872188      -0.04432537
Li       2.94405288       1.51623031       8.33325498      -0.00246078      -0.00164610       0.00664659
Li       2.11803287       1.00721116       3.08278718      -0.00450651      -0.00254051       0.01344277
Ga       3.77269532       2.02604774       5.67392841      -0.00081881       0.00002819       0.00059860
Ga       0.50731618       0.01692049       0.34310950      -0.00139391      -0.00072112       0.00499880
Sn       4.61200559       2.54225106       2.98447173      -0.00020191      -0.00031793      -0.00007982
Sn       1.30626111       0.50885976       5.68053847      -0.00461873      -0.00352443       0.01871848
6
Lattice="4.483065581403652 0.043574128391568274 0.02523253801600495 2.169865659301745 3.975972397218776 0.023899018294653816 -0.037449766502099434 -0.02693732210945654 7.272132712060708" Properties=species:S:1:pos:R:3:forces:R:3 structure_index=9 total_energy=-19.213882446289062 stress="0.0479155033826828 0.004219080787152052 -0.018359152600169182 0.0042190877720713615 0.053669173270463943 -0.009818307124078274 -0.018359072506427765 -0.009818315505981445 0.03323281928896904" pbc="T T T"
Li       1.93458348       3.47855972       4.69163123      -0.01420199      -0.02264346      -0.00707930
Li       1.85593008       3.33391120       1.04389593       0.02889028       0.03162402       0.00278012
Ga       4.16065555       2.13114017       5.99550904      -0.00691061      -0.01323921      -0.00366535
Ga       4.19676643       2.13806095       3.39500705      -0.02099572      -0.00910745       0.00479521
Sn       1.97040785       0.77356253       2.51681999      -0.00810298       0.00709456       0.00357714
Sn       1.92096205       0.75994317       6.84032211       0.02132104       0.00627155      -0.00040782
16
Lattice="6.430657894315414 0.00047158332006825947 0.0011218502502783414 -0.0011520231852242037 6.439965458061409 0.0011325849700939321 -0.0008808962302371473 -0.0011507363141456295 8.801187610952455" Properties=species:S:1:pos:R:3:forces:R:3 structure_index=10 total_energy=-53.91461944580078 stress="0.015180445276200771 -0.0003304453275632113 0.0003633593732956797 -0.00033039459958672523 -0.00032272192765958607 0.0004815180436708033 0.00036338678910396993 0.00048148410860449076 0.019990362226963043" pbc="T T T"
Li       4.42182524       4.06333875       1.52243040       0.00022977      -0.00183261       0.00104322
Li       4.42122510       0.83820667       1.52203669       0.00115468       0.00093936       0.00006584
Li       1.20745415       4.05594503       5.91756666      -0.00094919       0.00222083       0.00480945
Li       4.41900237       4.05249565       5.92121281       0.00109598       0.00216571       0.00195250
Li       1.20932701       0.84367495       5.91931180      -0.00152049      -0.00145537       0.00251895
Li       1.20714051       4.06285915       1.51907200       0.00018717      -0.00176419       0.00351494
Ga       1.20722374       0.83622209       1.51688960      -0.00148210       0.00576605       0.00672874
Sn       6.05022024       5.64442183       3.67270959       0.00174630      -0.00162872       0.00288648
Sn       2.79675427       2.47459316       3.67068991      -0.00439932       0.00555553       0.00126317
Sn       2.79521815       5.64273908       8.17503548      -0.00239004      -0.00637398      -0.00917463
Sn       6.04692059       2.47698104       3.67073540       0.00552350      -0.00011247       0.00220885
Sn       6.04545857       2.47692868       8.17820651       0.00369977      -0.00134879      -0.01056779
Sn       2.79426807       2.46800079       8.17637841      -0.00189759       0.00955430      -0.00813226
Sn       4.42244067       0.83475220       5.91958897       0.00255261       0.00465794       0.00527218
Sn       6.04790211       5.64467484       8.17474997       0.00150954      -0.00463164      -0.00775188
Sn       2.79779931       5.65056050       3.67097684      -0.00506060      -0.01171198       0.00336225
2
Lattice="2.7683036664709153 -2.081307204790191e-05 -0.0023937367753041577 0.0015841357533820206 2.7675967441338933 -0.00036918989215116216 4.615801461074437e-05 7.1835339037294484e-06 4.201693237593925" Properties=species:S:1:pos:R:3:forces:R:3 structure_index=11 total_energy=-5.503791332244873 stress="0.22838838398456573 0.0036442463751882315 -0.005343003664165735 0.0036442542914301157 0.22367659211158752 -0.0008314773440361023 -0.005343105643987656 -0.0008315935847349465 0.21190421283245087" pbc="T T T"
Li       2.72008086       0.78048962       3.12889916      -0.00006260      -0.00011288       0.00118536
Ga       1.33659737       2.16411876       1.03048205       0.00006259       0.00011287      -0.00118536
10
Lattice="4.245011865694188 0.0004604707321924042 -0.001061269267915139 -0.0009905417371817678 4.239249521836542 -0.8285268215958383 0.0007965430558820295 -0.02390997699787946 11.058308918693855" Properties=species:S:1:pos:R:3:forces:R:3 structure_index=12 total_energy=-30.96632957458496 stress="-0.026488248258829117 -0.0005193210090510547 -0.00033237881143577397 -0.0005193130928091705 -0.014202236197888851 0.009979468770325184 -0.00033234432339668274 0.009979411959648132 0.017503967508673668" pbc="T T T"
Li       0.12435663       0.49900129       4.88079359       0.00088100       0.00555377       0.01592513
Li       0.12490685       3.03575792       6.56269272      -0.00048250       0.00095220       0.01180540
Li       2.24421084       1.78800805       0.22555491       0.00080989      -0.01105279      -0.04880003
Li       2.24748575       0.10628667       2.85611374      -0.00072687      -0.00573577      -0.01441571
Ga       0.12370117       2.21522033       2.43604575       0.00060052       0.00262733      -0.02166384
Ga       2.24716735       0.88662532       6.84707136       0.00028014       0.00876186       0.02558419
Ga       0.12436666       1.30222643       8.92596099       0.00041306       0.00496676       0.04684146
Sn       2.24755073       2.60778563       4.39118310      -0.00142717      -0.00284415       0.00595119
Sn       2.24670668       3.46221643       8.73050921      -0.00047169      -0.00082162      -0.01610311
Sn       0.12257796       3.96180475       0.09760665       0.00012362      -0.00240758      -0.00512468
9
Lattice="2.892808294015018 0.00012558596165994801 -0.0001317729031027252 -0.0013820009329673076 6.880783537994773 -3.9753746776639622 0.0007651536784294907 0.0022124090627968 7.9473099038151584" Properties=species:S:1:pos:R:3:forces:R:3 structure_index=13 total_energy=-23.90481185913086 stress="-0.047369565814733505 -0.000310682225972414 -0.0007195887737907469 -0.00031042980845086277 -0.021225029602646828 -0.00015740905655547976 -0.0007196741062216461 -0.0001573779300088063 -0.02054516412317753" pbc="T T T"
Li       1.29430370       4.03599988       1.43135125       0.00045378      -0.00284668      -0.00346113
Li       1.29329799       6.55082518      -2.93647547       0.00041633       0.00023790       0.00372172
Li       2.74002508       6.17530368      -0.24172367       0.00008887      -0.00727961      -0.00386580
Li       2.74105205       1.89634329      -0.23888664      -0.00029358       0.00232552      -0.00481064
Li       1.29574654       1.51465042       5.01357879      -0.00007602       0.00487584       0.00462528
Li       2.74200019       4.03699745       3.99476350      -0.00036995      -0.00262330       0.00494606
Ga       2.74209049       1.73664891       2.49889783      -0.00018247       0.00795446      -0.00685745
Ga       2.74086625       6.32971872       2.49441721      -0.00014013       0.00057126       0.00000470
Sn       1.29435785       4.03490362      -1.48101155       0.00010318      -0.00321538       0.00569724
8
Lattice="4.341446162220294 -0.03624769144578869 -0.0020815597389187137 -2.1378864063609475 5.9361171788199565 0.010329842604029813 0.002832530445194722 -0.013449900949470092 6.674952661298404" Properties=species:S:1:pos:R:3:forces:R:3 structure_index=14 total_energy=-24.925119400024414 stress="-0.002769910264760256 -0.001209770212881267 0.000290589319774881 -0.0012096884893253446 0.023223496973514557 -0.0029884674586355686 0.0002905065775848925 -0.0029884795658290386 0.023394860327243805" pbc="T T T"
Li       2.08107479       1.96010022       3.62130148       0.00194687       0.02730548      -0.00065114
Li       2.09022830       2.60643966       0.28230267      -0.00172800      -0.02739356       0.00017325
Ga      -0.08127057       3.52696678       4.95701426       0.00284535       0.00357646      -0.01387143
Ga      -0.08287169       3.53233161       2.28790771       0.00322685       0.00421086       0.01547546
Ga      -0.08706333       1.07048672       1.61676381      -0.00375879      -0.00430248      -0.01649205
Ga      -0.08588450       1.06244619       5.62199443      -0.00335231      -0.00379423       0.01501852
Sn       2.10245664       5.03672541       3.62365267      -0.00505318       0.01121585       0.00078785
Sn      -0.06936654       5.46578251       0.28860071       0.00587322      -0.01081841      -0.00044043
4
Lattice="4.325326388307437 0.00032124262181021363 2.4947779566929205 1.4492939368422264 4.074613685842115 2.498583062389191 -0.00025222504443995217 0.00011072821434775004 4.99034466422238" Properties=species:S:1:pos:R:3:forces:R:3 structure_index=15 total_energy=-12.875200271606445 stress="0.028918880969285965 -0.004151216242462397 0.002913552336394787 -0.004151178523898125 0.03210102766752243 -0.0014570062048733234 0.0029135129880160093 -0.0014569220365956426 0.042947303503751755" pbc="T T T"
Ga       3.76022602       0.92097928       6.69874132      -0.00009359      -0.00007591       0.00006795
Ga       0.87829229       1.93943502       1.70980420       0.00058595       0.00014891       0.00030448
Ga       3.76617402       3.97657517       6.70126243      -0.00070442      -0.00046355      -0.00007615
Sn       2.32209429       2.95774023       4.20573443       0.00021208       0.00039056      -0.00029627
20
Lattice="5.506572048932205 0.01160849363013434 -0.7127849506152907 -0.017984115271814295 6.4520824705291275 0.11986987830192117 -0.18814324965218113 -0.1597127495930441 12.329018194814724" Properties=species:S:1:pos:R:3:forces:R:3 structure_index=16 total_energy=-64.32478332519531 stress="0.01408460270613432 -0.00024138741719070822 -0.0064635807648301125 -0.00024140378809534013 0.015052620321512222 0.0003205162356607616 -0.006463627330958843 0.00032049749279394746 0.01554197072982788" pbc="T T T"
Li       1.16255218       0.45444597       6.26576908      -0.00197912      -0.00544890      -0.00587549
Li       2.77030218       5.23553351      11.05516351       0.01519217       0.01668616      -0.00486931
Li       4.45914863       3.70252759       3.43184561       0.00813905      -0.00079516       0.00324525
Li       2.69607421       2.04857313      11.01500017      -0.00635096      -0.01853202       0.00573665
Li       4.47715418       0.51614590       3.33188200      -0.00555734       0.00788948       0.00026704
Li      -0.01013577       3.63392304      11.42821106      -0.00344015       0.00146305       0.00275520
Ga       1.18989683       3.72305415       6.33825681       0.00140489      -0.00068532      -0.01159241
Ga       1.68377923       5.33088272       3.79322386       0.00736400      -0.02201389       0.00680329
Ga       3.37540523       3.68899189       8.50440182      -0.00020220      -0.00291332      -0.02146230
Ga       3.94487452       2.11210829       5.94492005      -0.00776042       0.02450846      -0.00262847
Ga      -0.04695344       0.41421001      11.36007235      -0.00216154      -0.00121611      -0.00114544
Ga       2.25790153       3.76565317       1.23495040       0.00037025       0.00298257       0.02176282
Sn       3.88836583       5.29022622       5.91988064       0.01075264       0.01127954      -0.02097937
Sn       2.33825905       0.48631802       1.13798131      -0.00613795       0.00009301      -0.00352357
Sn       5.03276413       5.32105829       0.93567903      -0.00086236      -0.00076008       0.00044014
Sn       5.03261030       2.19372634       0.84347215      -0.00702440       0.00002340      -0.00125047
Sn       3.28513820       0.50804262       8.45730133       0.00056463      -0.00296941       0.00379501
Sn       1.74394370       2.12999797       3.81729477      -0.00573364      -0.00850174       0.01453686
Sn       0.58075973       2.12259530       8.83295403       0.00103625      -0.00717267       0.00437955
Sn       0.58797012       5.26536348       8.93290311       0.00238619       0.00608292       0.00960499
15
Lattice="6.991149432218824 -0.15820402615084123 -1.3937474377084131 -4.7394902785319974 5.145331650515154 -1.372343486559429 0.06545105976140352 0.15536636764560832 7.1275117659303335" Properties=species:S:1:pos:R:3:forces:R:3 structure_index=17 total_energy=-38.80486297607422 stress="0.005073356442153454 0.003627548925578594 -0.0017663101898506284 0.003627425990998745 0.010985993780195713 -0.004203611984848976 -0.0017661574529483914 -0.004203485324978828 0.0060836453922092915" pbc="T T T"
Li       3.43462895       1.95972316       1.18239036      -0.00445462      -0.00383961       0.00460301
Li       4.00839225       3.25762958       3.90010468       0.01464372       0.00905094       0.00481385
Li      -0.40374511       0.91244326       2.47465799      -0.01419380      -0.00909373      -0.00476824
Li       0.65438252       3.25770975       1.17653950      -0.00659695       0.00875307      -0.01314691
Li       0.17024278       2.21022760       5.19262417       0.00393329       0.00442042      -0.00385397
Li      -0.60027966       4.58035833      -1.06284371       0.00010563      -0.00046565      -0.00006208
Li       1.20258166       4.49290730       3.92991118      -0.00106515      -0.00751746       0.00188567
Li      -4.06310926       4.73728431       3.19797660       0.00028619      -0.00075498      -0.00010782
Li      -2.33663465       4.82205845       1.07232774       0.00043620       0.00756164      -0.00143400
Li       2.95009662       0.91296447       5.19747789       0.00652276      -0.00950244       0.01354619
Ga       2.40017675       3.29215415      -0.93531778      -0.02125223       0.00900325      -0.00463301
Ga       4.87624260       0.71791838       3.22293201      -0.00679693      -0.00846420      -0.02038044
Ga      -1.27139867       3.45154867       3.15128320       0.00694952       0.00961222       0.02182173
Ga       1.13944841       0.72261864       0.18364777       0.02094984      -0.00929350       0.00272681
Sn      -1.72612091       2.08615225       0.32072257       0.00053252       0.00053001      -0.00101080
6
Lattice="3.0790756499070953 -0.0028934110108087626 0.007673749504452179 0.007435433134557403 4.514392642408282 0.011631031319541973 -0.014991327869901917 -0.014720070556674207 9.1050903298406" Properties=species:S:1:pos:R:3:forces:R:3 structure_index=18 total_energy=-18.948707580566406 stress="-0.013716105371713638 0.0028278189711272717 0.003838833887130022 0.0028278410900384188 -0.053972840309143066 0.0020411403384059668 0.003838961711153388 0.002041023690253496 -0.0031839702278375626" pbc="T T T"
Li       1.66845031       3.16054206       4.77062829      -0.00024105      -0.00026574       0.00129944
Li       1.67322605       0.91067980       0.21994034      -0.00070332       0.00037088       0.00230354
Ga       0.13453924       3.16722613       1.50410483       0.00000606       0.00026397       0.04901725
Ga       0.12319972       3.15767985       8.04400822       0.00032643      -0.00213543      -0.04527509
Sn       0.12803689       0.90662311       3.17058289      -0.00000144      -0.00018928      -0.01060915
Sn       0.12138235       0.90288883       6.36967365       0.00061334       0.00195558       0.00326402
4
Lattice="4.272929020245327 -0.0004953004984322515 2.4691735970996267 1.4180531660775675 4.030144692837105 2.469656793057587 -0.0004949911974109333 -0.00027132517010479374 4.936361629012707" Properties=species:S:1:pos:R:3:forces:R:3 structure_index=19 total_energy=-12.29641342163086 stress="0.08088720589876175 0.009516480378806591 0.005496724974364042 0.00951645988970995 0.06992743164300919 0.002531688893213868 0.0054967934265732765 0.002531719859689474 0.05518788844347" pbc="T T T"