phonopy:
  version: "2.37.1"
  frequency_unit_conversion_factor: 15.633302
  symmetry_tolerance: 1.00000e-05

space_group:
  type: "P6/mmm"
  number: 191
  Hall_symbol: "-P 6 2"

primitive_matrix:
- [  1.000000000000000, -0.000000000000000,  0.000000000000000 ]
- [  0.000000000000000,  1.000000000000000,  0.000000000000000 ]
- [  0.000000000000000,  0.000000000000000,  1.000000000000000 ]

supercell_matrix:
- [   3,   0,   0 ]
- [   0,   3,   0 ]
- [   0,   0,   4 ]

primitive_cell:
  lattice:
  - [     4.665189952985907,     0.000000000000000,     0.000000000000000 ] # a
  - [    -2.332594982704121,     4.040173019101749,     0.000000000000000 ] # b
  - [     0.000000006196481,    -0.000000013878564,     2.994494276129974 ] # c
  points:
  - symbol: Li # 1
    coordinates: [  0.666666666187646,  0.333333332752551,  0.500000000267998 ]
    mass: 6.940000
  - symbol: Li # 2
    coordinates: [  0.333333332785118,  0.666666664856984,  0.499999999987797 ]
    mass: 6.940000
  - symbol: Sn # 3
    coordinates: [  0.000000001085902,  0.000000002409267,  0.999999999943464 ]
    mass: 118.710000
  reciprocal_lattice: # without 2pi
  - [     0.214353544030926,     0.123757076483460,     0.000000000130016 ] # a*
  - [     0.000000000000000,     0.247514152307846,     0.000000001147152 ] # b*
  - [     0.000000000000000,     0.000000000000000,     0.333946205197754 ] # c*

unit_cell:
  lattice:
  - [     4.665189952985906,     0.000000000000000,     0.000000000000000 ] # a
  - [    -2.332594982704121,     4.040173019101750,     0.000000000000000 ] # b
  - [     0.000000006196481,    -0.000000013878564,     2.994494276129974 ] # c
  points:
  - symbol: Li # 1
    coordinates: [  0.666666666187646,  0.333333332752551,  0.500000000267998 ]
    mass: 6.940000
    reduced_to: 1
  - symbol: Li # 2
    coordinates: [  0.333333332785118,  0.666666664856984,  0.499999999987797 ]
    mass: 6.940000
    reduced_to: 2
  - symbol: Sn # 3
    coordinates: [  0.000000001085902,  0.000000002409267,  0.999999999943464 ]
    mass: 118.710000
    reduced_to: 3

supercell:
  lattice:
  - [    13.995569858957719,     0.000000000000000,     0.000000000000000 ] # a
  - [    -6.997784948112363,    12.120519057305248,     0.000000000000000 ] # b
  - [     0.000000024785923,    -0.000000055514258,    11.977977104519896 ] # c
  points:
  - symbol: Li # 1
    coordinates: [  0.222222222062549,  0.111111110917517,  0.125000000067000 ]
    mass: 6.940000
    reduced_to: 1
  - symbol: Li # 2
    coordinates: [  0.555555555395882,  0.111111110917517,  0.125000000067000 ]
    mass: 6.940000
    reduced_to: 1
  - symbol: Li # 3
    coordinates: [  0.888888888729215,  0.111111110917517,  0.125000000067000 ]
    mass: 6.940000
    reduced_to: 1
  - symbol: Li # 4
    coordinates: [  0.222222222062549,  0.444444444250850,  0.125000000067000 ]
    mass: 6.940000
    reduced_to: 1
  - symbol: Li # 5
    coordinates: [  0.555555555395882,  0.444444444250850,  0.125000000067000 ]
    mass: 6.940000
    reduced_to: 1
  - symbol: Li # 6
    coordinates: [  0.888888888729215,  0.444444444250850,  0.125000000067000 ]
    mass: 6.940000
    reduced_to: 1
  - symbol: Li # 7
    coordinates: [  0.222222222062549,  0.777777777584184,  0.125000000067000 ]
    mass: 6.940000
    reduced_to: 1
  - symbol: Li # 8
    coordinates: [  0.555555555395882,  0.777777777584184,  0.125000000067000 ]
    mass: 6.940000
    reduced_to: 1
  - symbol: Li # 9
    coordinates: [  0.888888888729215,  0.777777777584184,  0.125000000067000 ]
    mass: 6.940000
    reduced_to: 1
  - symbol: Li # 10
    coordinates: [  0.222222222062549,  0.111111110917517,  0.375000000067000 ]
    mass: 6.940000
    reduced_to: 1
  - symbol: Li # 11
    coordinates: [  0.555555555395882,  0.111111110917517,  0.375000000067000 ]
    mass: 6.940000
    reduced_to: 1
  - symbol: Li # 12
    coordinates: [  0.888888888729215,  0.111111110917517,  0.375000000067000 ]
    mass: 6.940000
    reduced_to: 1
  - symbol: Li # 13
    coordinates: [  0.222222222062549,  0.444444444250850,  0.375000000067000 ]
    mass: 6.940000
    reduced_to: 1
  - symbol: Li # 14
    coordinates: [  0.555555555395882,  0.444444444250850,  0.375000000067000 ]
    mass: 6.940000
    reduced_to: 1
  - symbol: Li # 15
    coordinates: [  0.888888888729215,  0.444444444250850,  0.375000000067000 ]
    mass: 6.940000
    reduced_to: 1
  - symbol: Li # 16
    coordinates: [  0.222222222062549,  0.777777777584184,  0.375000000067000 ]
    mass: 6.940000
    reduced_to: 1
  - symbol: Li # 17
    coordinates: [  0.555555555395882,  0.777777777584184,  0.375000000067000 ]
    mass: 6.940000
    reduced_to: 1
  - symbol: Li # 18
    coordinates: [  0.888888888729215,  0.777777777584184,  0.375000000067000 ]
    mass: 6.940000
    reduced_to: 1
  - symbol: Li # 19
    coordinates: [  0.222222222062549,  0.111111110917517,  0.625000000067000 ]
    mass: 6.940000
    reduced_to: 1
  - symbol: Li # 20
    coordinates: [  0.555555555395882,  0.111111110917517,  0.625000000067000 ]
    mass: 6.940000
    reduced_to: 1
  - symbol: Li # 21
    coordinates: [  0.888888888729215,  0.111111110917517,  0.625000000067000 ]
    mass: 6.940000
    reduced_to: 1
  - symbol: Li # 22
    coordinates: [  0.222222222062549,  0.444444444250850,  0.625000000067000 ]
    mass: 6.940000
    reduced_to: 1
  - symbol: Li # 23
    coordinates: [  0.555555555395882,  0.444444444250850,  0.625000000067000 ]
    mass: 6.940000
    reduced_to: 1
  - symbol: Li # 24
    coordinates: [  0.888888888729215,  0.444444444250850,  0.625000000067000 ]
    mass: 6.940000
    reduced_to: 1
  - symbol: Li # 25
    coordinates: [  0.222222222062549,  0.777777777584184,  0.625000000067000 ]
    mass: 6.940000
    reduced_to: 1
  - symbol: Li # 26
    coordinates: [  0.555555555395882,  0.777777777584184,  0.625000000067000 ]
    mass: 6.940000
    reduced_to: 1
  - symbol: Li # 27
    coordinates: [  0.888888888729215,  0.777777777584184,  0.625000000067000 ]
    mass: 6.940000
    reduced_to: 1
  - symbol: Li # 28
    coordinates: [  0.222222222062549,  0.111111110917517,  0.875000000067000 ]
    mass: 6.940000
    reduced_to: 1
  - symbol: Li # 29
    coordinates: [  0.555555555395882,  0.111111110917517,  0.875000000067000 ]
    mass: 6.940000
    reduced_to: 1
  - symbol: Li # 30
    coordinates: [  0.888888888729215,  0.111111110917517,  0.875000000067000 ]
    mass: 6.940000
    reduced_to: 1
  - symbol: Li # 31
    coordinates: [  0.222222222062549,  0.444444444250850,  0.875000000067000 ]
    mass: 6.940000
    reduced_to: 1
  - symbol: Li # 32
    coordinates: [  0.555555555395882,  0.444444444250850,  0.875000000067000 ]
    mass: 6.940000
    reduced_to: 1
  - symbol: Li # 33
    coordinates: [  0.888888888729215,  0.444444444250850,  0.875000000067000 ]
    mass: 6.940000
    reduced_to: 1
  - symbol: Li # 34
    coordinates: [  0.222222222062549,  0.777777777584184,  0.875000000067000 ]
    mass: 6.940000
    reduced_to: 1
  - symbol: Li # 35
    coordinates: [  0.555555555395882,  0.777777777584184,  0.875000000067000 ]
    mass: 6.940000
    reduced_to: 1
  - symbol: Li # 36
    coordinates: [  0.888888888729215,  0.777777777584184,  0.875000000067000 ]
    mass: 6.940000
    reduced_to: 1
  - symbol: Li # 37
    coordinates: [  0.111111110928373,  0.222222221618995,  0.124999999996949 ]
    mass: 6.940000
    reduced_to: 37
  - symbol: Li # 38
    coordinates: [  0.444444444261706,  0.222222221618995,  0.124999999996949 ]
    mass: 6.940000
    reduced_to: 37
  - symbol: Li # 39
    coordinates: [  0.777777777595039,  0.222222221618995,  0.124999999996949 ]
    mass: 6.940000
    reduced_to: 37
  - symbol: Li # 40
    coordinates: [  0.111111110928373,  0.555555554952328,  0.124999999996949 ]
    mass: 6.940000
    reduced_to: 37
  - symbol: Li # 41
    coordinates: [  0.444444444261706,  0.555555554952328,  0.124999999996949 ]
    mass: 6.940000
    reduced_to: 37
  - symbol: Li # 42
    coordinates: [  0.777777777595039,  0.555555554952328,  0.124999999996949 ]
    mass: 6.940000
    reduced_to: 37
  - symbol: Li # 43
    coordinates: [  0.111111110928373,  0.888888888285661,  0.124999999996949 ]
    mass: 6.940000
    reduced_to: 37
  - symbol: Li # 44
    coordinates: [  0.444444444261706,  0.888888888285661,  0.124999999996949 ]
    mass: 6.940000
    reduced_to: 37
  - symbol: Li # 45
    coordinates: [  0.777777777595039,  0.888888888285661,  0.124999999996949 ]
    mass: 6.940000
    reduced_to: 37
  - symbol: Li # 46
    coordinates: [  0.111111110928373,  0.222222221618995,  0.374999999996949 ]
    mass: 6.940000
    reduced_to: 37
  - symbol: Li # 47
    coordinates: [  0.444444444261706,  0.222222221618995,  0.374999999996949 ]
    mass: 6.940000
    reduced_to: 37
  - symbol: Li # 48
    coordinates: [  0.777777777595039,  0.222222221618995,  0.374999999996949 ]
    mass: 6.940000
    reduced_to: 37
  - symbol: Li # 49
    coordinates: [  0.111111110928373,  0.555555554952328,  0.374999999996949 ]
    mass: 6.940000
    reduced_to: 37
  - symbol: Li # 50
    coordinates: [  0.444444444261706,  0.555555554952328,  0.374999999996949 ]
    mass: 6.940000
    reduced_to: 37
  - symbol: Li # 51
    coordinates: [  0.777777777595039,  0.555555554952328,  0.374999999996949 ]
    mass: 6.940000
    reduced_to: 37
  - symbol: Li # 52
    coordinates: [  0.111111110928373,  0.888888888285661,  0.374999999996949 ]
    mass: 6.940000
    reduced_to: 37
  - symbol: Li # 53
    coordinates: [  0.444444444261706,  0.888888888285661,  0.374999999996949 ]
    mass: 6.940000
    reduced_to: 37
  - symbol: Li # 54
    coordinates: [  0.777777777595039,  0.888888888285661,  0.374999999996949 ]
    mass: 6.940000
    reduced_to: 37
  - symbol: Li # 55
    coordinates: [  0.111111110928373,  0.222222221618995,  0.624999999996949 ]
    mass: 6.940000
    reduced_to: 37
  - symbol: Li # 56
    coordinates: [  0.444444444261706,  0.222222221618995,  0.624999999996949 ]
    mass: 6.940000
    reduced_to: 37
  - symbol: Li # 57
    coordinates: [  0.777777777595039,  0.222222221618995,  0.624999999996949 ]
    mass: 6.940000
    reduced_to: 37
  - symbol: Li # 58
    coordinates: [  0.111111110928373,  0.555555554952328,  0.624999999996949 ]
    mass: 6.940000
    reduced_to: 37
  - symbol: Li # 59
    coordinates: [  0.444444444261706,  0.555555554952328,  0.624999999996949 ]
    mass: 6.940000
    reduced_to: 37
  - symbol: Li # 60
    coordinates: [  0.777777777595039,  0.555555554952328,  0.624999999996949 ]
    mass: 6.940000
    reduced_to: 37
  - symbol: Li # 61
    coordinates: [  0.111111110928373,  0.888888888285661,  0.624999999996949 ]
    mass: 6.940000
    reduced_to: 37
  - symbol: Li # 62
    coordinates: [  0.444444444261706,  0.888888888285661,  0.624999999996949 ]
    mass: 6.940000
    reduced_to: 37
  - symbol: Li # 63
    coordinates: [  0.777777777595039,  0.888888888285661,  0.624999999996949 ]
    mass: 6.940000
    reduced_to: 37
  - symbol: Li # 64
    coordinates: [  0.111111110928373,  0.222222221618995,  0.874999999996949 ]
    mass: 6.940000
    reduced_to: 37
  - symbol: Li # 65
    coordinates: [  0.444444444261706,  0.222222221618995,  0.874999999996949 ]
    mass: 6.940000
    reduced_to: 37
  - symbol: Li # 66
    coordinates: [  0.777777777595039,  0.222222221618995,  0.874999999996949 ]
    mass: 6.940000
    reduced_to: 37
  - symbol: Li # 67
    coordinates: [  0.111111110928373,  0.555555554952328,  0.874999999996949 ]
    mass: 6.940000
    reduced_to: 37
  - symbol: Li # 68
    coordinates: [  0.444444444261706,  0.555555554952328,  0.874999999996949 ]
    mass: 6.940000
    reduced_to: 37
  - symbol: Li # 69
    coordinates: [  0.777777777595039,  0.555555554952328,  0.874999999996949 ]
    mass: 6.940000
    reduced_to: 37
  - symbol: Li # 70
    coordinates: [  0.111111110928373,  0.888888888285661,  0.874999999996949 ]
    mass: 6.940000
    reduced_to: 37
  - symbol: Li # 71
    coordinates: [  0.444444444261706,  0.888888888285661,  0.874999999996949 ]
    mass: 6.940000
    reduced_to: 37
  - symbol: Li # 72
    coordinates: [  0.777777777595039,  0.888888888285661,  0.874999999996949 ]
    mass: 6.940000
    reduced_to: 37
  - symbol: Sn # 73
    coordinates: [  0.000000000361967,  0.000000000803089,  0.249999999985866 ]
    mass: 118.710000
    reduced_to: 73
  - symbol: Sn # 74
    coordinates: [  0.333333333695300,  0.000000000803089,  0.249999999985866 ]
    mass: 118.710000
    reduced_to: 73
  - symbol: Sn # 75
    coordinates: [  0.666666667028634,  0.000000000803089,  0.249999999985866 ]
    mass: 118.710000
    reduced_to: 73
  - symbol: Sn # 76
    coordinates: [  0.000000000361967,  0.333333334136422,  0.249999999985866 ]
    mass: 118.710000
    reduced_to: 73
  - symbol: Sn # 77
    coordinates: [  0.333333333695300,  0.333333334136422,  0.249999999985866 ]
    mass: 118.710000
    reduced_to: 73
  - symbol: Sn # 78
    coordinates: [  0.666666667028634,  0.333333334136422,  0.249999999985866 ]
    mass: 118.710000
    reduced_to: 73
  - symbol: Sn # 79
    coordinates: [  0.000000000361967,  0.666666667469756,  0.249999999985866 ]
    mass: 118.710000
    reduced_to: 73
  - symbol: Sn # 80
    coordinates: [  0.333333333695300,  0.666666667469756,  0.249999999985866 ]
    mass: 118.710000
    reduced_to: 73
  - symbol: Sn # 81
    coordinates: [  0.666666667028634,  0.666666667469756,  0.249999999985866 ]
    mass: 118.710000
    reduced_to: 73
  - symbol: Sn # 82
    coordinates: [  0.000000000361967,  0.000000000803089,  0.499999999985866 ]
    mass: 118.710000
    reduced_to: 73
  - symbol: Sn # 83
    coordinates: [  0.333333333695300,  0.000000000803089,  0.499999999985866 ]
    mass: 118.710000
    reduced_to: 73
  - symbol: Sn # 84
    coordinates: [  0.666666667028634,  0.000000000803089,  0.499999999985866 ]
    mass: 118.710000
    reduced_to: 73
  - symbol: Sn # 85
    coordinates: [  0.000000000361967,  0.333333334136422,  0.499999999985866 ]
    mass: 118.710000
    reduced_to: 73
  - symbol: Sn # 86
    coordinates: [  0.333333333695300,  0.333333334136422,  0.499999999985866 ]
    mass: 118.710000
    reduced_to: 73
  - symbol: Sn # 87
    coordinates: [  0.666666667028634,  0.333333334136422,  0.499999999985866 ]
    mass: 118.710000
    reduced_to: 73
  - symbol: Sn # 88
    coordinates: [  0.000000000361967,  0.666666667469756,  0.499999999985866 ]
    mass: 118.710000
    reduced_to: 73
  - symbol: Sn # 89
    coordinates: [  0.333333333695300,  0.666666667469756,  0.499999999985866 ]
    mass: 118.710000
    reduced_to: 73
  - symbol: Sn # 90
    coordinates: [  0.666666667028634,  0.666666667469756,  0.499999999985866 ]
    mass: 118.710000
    reduced_to: 73
  - symbol: Sn # 91
    coordinates: [  0.000000000361967,  0.000000000803089,  0.749999999985866 ]
    mass: 118.710000
    reduced_to: 73
  - symbol: Sn # 92
    coordinates: [  0.333333333695300,  0.000000000803089,  0.749999999985866 ]
    mass: 118.710000
    reduced_to: 73
  - symbol: Sn # 93
    coordinates: [  0.666666667028634,  0.000000000803089,  0.749999999985866 ]
    mass: 118.710000
    reduced_to: 73
  - symbol: Sn # 94
    coordinates: [  0.000000000361967,  0.333333334136422,  0.749999999985866 ]
    mass: 118.710000
    reduced_to: 73
  - symbol: Sn # 95
    coordinates: [  0.333333333695300,  0.333333334136422,  0.749999999985866 ]
    mass: 118.710000
    reduced_to: 73
  - symbol: Sn # 96
    coordinates: [  0.666666667028634,  0.333333334136422,  0.749999999985866 ]
    mass: 118.710000
    reduced_to: 73
  - symbol: Sn # 97
    coordinates: [  0.000000000361967,  0.666666667469756,  0.749999999985866 ]
    mass: 118.710000
    reduced_to: 73
  - symbol: Sn # 98
    coordinates: [  0.333333333695300,  0.666666667469756,  0.749999999985866 ]
    mass: 118.710000
    reduced_to: 73
  - symbol: Sn # 99
    coordinates: [  0.666666667028634,  0.666666667469756,  0.749999999985866 ]
    mass: 118.710000
    reduced_to: 73
  - symbol: Sn # 100
    coordinates: [  0.000000000361967,  0.000000000803089,  0.999999999985866 ]
    mass: 118.710000
    reduced_to: 73
  - symbol: Sn # 101
    coordinates: [  0.333333333695300,  0.000000000803089,  0.999999999985866 ]
    mass: 118.710000
    reduced_to: 73
  - symbol: Sn # 102
    coordinates: [  0.666666667028634,  0.000000000803089,  0.999999999985866 ]
    mass: 118.710000
    reduced_to: 73
  - symbol: Sn # 103
    coordinates: [  0.000000000361967,  0.333333334136422,  0.999999999985866 ]
    mass: 118.710000
    reduced_to: 73
  - symbol: Sn # 104
    coordinates: [  0.333333333695300,  0.333333334136422,  0.999999999985866 ]
    mass: 118.710000
    reduced_to: 73
  - symbol: Sn # 105
    coordinates: [  0.666666667028634,  0.333333334136422,  0.999999999985866 ]
    mass: 118.710000
    reduced_to: 73
  - symbol: Sn # 106
    coordinates: [  0.000000000361967,  0.666666667469756,  0.999999999985866 ]
    mass: 118.710000
    reduced_to: 73
  - symbol: Sn # 107
    coordinates: [  0.333333333695300,  0.666666667469756,  0.999999999985866 ]
    mass: 118.710000
    reduced_to: 73
  - symbol: Sn # 108
    coordinates: [  0.666666667028634,  0.666666667469756,  0.999999999985866 ]
    mass: 118.710000
    reduced_to: 73

displacements:
- atom:    1
  displacement:
    [   0.0075974525531445, -0.0000000000301357,  0.0065022084481135 ]
  forces:
  - [  -0.0187054164707661,  0.0000536949373782, -0.0072858994826674 ]
  - [  -0.0000999037874863, -0.0000074978452176, -0.0000264607369900 ]
  - [  -0.0000963241909631,  0.0000076531432569, -0.0000277498293144 ]
  - [   0.0000260034721578,  0.0000610097777098, -0.0000269752927125 ]
  - [   0.0000258070067503, -0.0000658922363073, -0.0000273124314845 ]
  - [   0.0000067900991780, -0.0000009045470506, -0.0000109404791147 ]
  - [   0.0000258013606071,  0.0000794436782598, -0.0000262949615717 ]
  - [   0.0000044023618102,  0.0000000027939677, -0.0000111192930490 ]
  - [   0.0000250339508057, -0.0000776257365942, -0.0000280232634395 ]
  - [  -0.0000305580906570,  0.0000017257407308,  0.0030142161995173 ]
  - [  -0.0000421724980697, -0.0002137655392289, -0.0000384543091059 ]
  - [  -0.0000227926066145,  0.0000619878992438, -0.0000144895166159 ]
  - [   0.0001770952803781, -0.0000300044193864, -0.0000986084342003 ]
  - [   0.0000357087701559,  0.0000877096317708,  0.0000452194362879 ]
  - [  -0.0000325450309901, -0.0000013508833945,  0.0000025378540158 ]
  - [   0.0001671640202403,  0.0002665817737579, -0.0001112921163440 ]
  - [  -0.0000352333299816,  0.0000002197921276,  0.0000023143365979 ]
  - [   0.0000439272262156, -0.0001688329502940,  0.0000566020607948 ]
  - [  -0.0000219746143557,  0.0000006495974958, -0.0004846919327974 ]
  - [  -0.0000096813892014, -0.0000162958167493,  0.0000188592821360 ]
  - [  -0.0000109644606709,  0.0000176769681275,  0.0000187121331692 ]
  - [  -0.0000013785427200, -0.0000121565535665,  0.0000187411787920 ]
  - [  -0.0000012318487279,  0.0000131307169795,  0.0000188948470168 ]
  - [   0.0000056758672144, -0.0000000849831849,  0.0000064129999373 ]
  - [  -0.0000018132850528,  0.0000210404396057,  0.0000185679818969 ]
  - [   0.0000034645199776,  0.0000000623986125,  0.0000063279876485 ]
  - [  -0.0000017890706658, -0.0000219307839870,  0.0000183477823157 ]
  - [  -0.0000207137782127,  0.0000019457656890,  0.0029671452939510 ]
  - [  -0.0000215846812353, -0.0000595191959292, -0.0000154674053192 ]
  - [  -0.0000420568976551,  0.0002129990607500, -0.0000385884195566 ]
  - [   0.0000330918592226, -0.0000865818001330,  0.0000440888106823 ]
  - [   0.0001759099541232,  0.0000288221053779, -0.0000977609306574 ]
  - [  -0.0000331689006998, -0.0000004330649972,  0.0000017341226339 ]
  - [   0.0000441269949079,  0.0001690234057605,  0.0000565731897950 ]
  - [  -0.0000349893234670, -0.0000002039596438,  0.0000023012980819 ]
  - [   0.0001653651706874, -0.0002588978968561, -0.0001083528622985 ]
  - [   0.0047457669861615, -0.0028943663928658, -0.0002795947657432 ]
  - [   0.0047916593030095,  0.0029422640800476, -0.0003117221349385 ]
  - [   0.0000444776378572,  0.0000006868503988, -0.0000077320728451 ]
  - [  -0.0000039194710553, -0.0000269622541964, -0.0000076345168054 ]
  - [  -0.0000089891254902, -0.0000009685754776,  0.0002225026255473 ]
  - [  -0.0000037318095565,  0.0000270328018814, -0.0000078233424574 ]
  - [  -0.0002860925742425,  0.0000173947773874, -0.0002956781536341 ]
  - [  -0.0000551452576474,  0.0000256237108260,  0.0002251379191875 ]
  - [  -0.0000519498717040, -0.0000257436186075,  0.0002203956246376 ]
  - [   0.0000114482827485, -0.0000906707718968, -0.0000088252127171 ]
  - [  -0.0003049335209653, -0.0000922875478864, -0.0003786040470004 ]
  - [  -0.0000022794120014, -0.0000045693013817,  0.0000037029385567 ]
  - [   0.0000059115700424,  0.0000064028427005,  0.0000091278925538 ]
  - [  -0.0000295075587928, -0.0002527527976781, -0.0001600766554475 ]
  - [  -0.0000037807039917,  0.0000004456378520, -0.0000022035092115 ]
  - [  -0.0001457453472540,  0.0001815148862079, -0.0001927539706230 ]
  - [  -0.0006629949202761,  0.0003639354836196, -0.0004181526601315 ]
  - [  -0.0002233666600659, -0.0001133366022259,  0.0000980757176876 ]
  - [   0.0000051199458539,  0.0000232276506722, -0.0000139978365041 ]
  - [   0.0000046935165301, -0.0000235114712268, -0.0000141175114550 ]
  - [  -0.0000061849132180,  0.0000003261957318,  0.0000006732298061 ]
  - [  -0.0000032661482692,  0.0000034156255424,  0.0000008994247764 ]
  - [   0.0000056400895119,  0.0000003809109330, -0.0000275360653177 ]
  - [  -0.0000033890828490, -0.0000024284236133,  0.0000009086215869 ]
  - [   0.0000449523358839, -0.0000010730000213, -0.0000143125653267 ]
  - [  -0.0000232408474403,  0.0000149863772094, -0.0000277645885944 ]
  - [  -0.0000233254395425, -0.0000175049062818, -0.0000276230275631 ]
  - [  -0.0003027636557817,  0.0000890966039151, -0.0003749318420887 ]
  - [   0.0000119489850476,  0.0000926079228520, -0.0000070892274380 ]
  - [  -0.0000035455450416,  0.0000064747873694,  0.0000025462359190 ]
  - [  -0.0000037215650082,  0.0000011345837265, -0.0000024279579520 ]
  - [  -0.0000287289731205,  0.0002568534109741, -0.0001619905233383 ]
  - [   0.0000060428865254, -0.0000062393955886,  0.0000090366229415 ]
  - [  -0.0001490827271482, -0.0001832577981986, -0.0001922957599163 ]
  - [  -0.0002218000445282,  0.0001098159700632,  0.0000953376293182 ]
  - [  -0.0006647332338616, -0.0003686528652906, -0.0004200041294098 ]
  - [   0.0019139169016853,  0.0009561465121806,  0.0000202469527721 ]
  - [   0.0039227195084095, -0.0021284595131874,  0.0007619634270668 ]
  - [   0.0000737116206437,  0.0000149396364577, -0.0000137351453304 ]
  - [  -0.0001650908961892,  0.0000820264103822,  0.0001797862350941 ]
  - [   0.0002470838662703,  0.0011061182012782,  0.0003665946424007 ]
  - [   0.0000485107302666,  0.0000400145072490, -0.0001082941889763 ]
  - [  -0.0000205526339414, -0.0001204952131957,  0.0000356957316399 ]
  - [  -0.0000109287211671, -0.0000469411606900, -0.0000445917248726 ]
  - [   0.0000156499445438,  0.0000341501436196,  0.0000171735882759 ]
  - [   0.0000071736385507,  0.0000224082032219, -0.0002025514841080 ]
  - [  -0.0000466995406896,  0.0000085624633357,  0.0009595975279808 ]
  - [   0.0000323166605085,  0.0000123955542222,  0.0000135749578476 ]
  - [   0.0000052636023611, -0.0000086918007582, -0.0000021979212761 ]
  - [  -0.0000319799873978, -0.0000307107111439,  0.0003782883286476 ]
  - [   0.0000180157367140,  0.0000145282829180, -0.0000150315463543 ]
  - [  -0.0000071878794188, -0.0000054589472711, -0.0000071041285992 ]
  - [  -0.0000070171558946, -0.0000216114567593,  0.0000229738652706 ]
  - [   0.0000145395752043,  0.0000102600315586,  0.0000036954879761 ]
  - [  -0.0000465589000669, -0.0000082451188064,  0.0009576342999935 ]
  - [   0.0000069948146120, -0.0000219814828597, -0.0001978278160095 ]
  - [   0.0000328264432028, -0.0000110374530777,  0.0000136047601700 ]
  - [   0.0000176964094862, -0.0000158943003044, -0.0000110119581223 ]
  - [  -0.0000325613291352,  0.0000301992404275,  0.0003792606294155 ]
  - [   0.0000078774755821,  0.0000078591401689,  0.0000013634562492 ]
  - [  -0.0000069745487963,  0.0000067873625085, -0.0000075772404671 ]
  - [   0.0000133444655148, -0.0000104202190414,  0.0000030957162380 ]
  - [  -0.0000065369531512,  0.0000218149507418,  0.0000222474336624 ]
  - [   0.0037377048283815,  0.0020060725510120,  0.0006567649543285 ]
  - [   0.0019099172204733, -0.0009619817137718,  0.0000114813446999 ]
  - [   0.0000750273466110, -0.0000136066228151, -0.0000129751861095 ]
  - [   0.0000465530902147, -0.0000404641032219, -0.0001079812645912 ]
  - [   0.0002528615295887, -0.0011079087853432,  0.0003581941127777 ]
  - [  -0.0001624412834644, -0.0000826567411423,  0.0001818351447582 ]
  - [  -0.0000207968550967,  0.0001239236444235,  0.0000376589596272 ]
  - [   0.0000143442302942, -0.0000334903597832,  0.0000185817480087 ]
  - [  -0.0000092908740044,  0.0000491030514240, -0.0000430494546890 ]
- atom:   73
  displacement:
    [   0.0075974525531445, -0.0000000000301357,  0.0065022084481135 ]
  forces:
  - [   0.0025782205630094,  0.0013497464824468, -0.0007706750184298 ]
  - [   0.0000725377467461,  0.0000317445956171, -0.0000155605375767 ]
  - [   0.0030782120302320, -0.0016264284495264,  0.0014195572584867 ]
  - [  -0.0000195176544366,  0.0001443729270250,  0.0000360098201782 ]
  - [   0.0000290688476525,  0.0000253960024565,  0.0000003462191671 ]
  - [  -0.0000223834649660, -0.0000571405980736, -0.0000286477152258 ]
  - [   0.0000684801489115, -0.0000517573207617, -0.0000883422326297 ]
  - [  -0.0001817028969526, -0.0000939955934882,  0.0001593392807990 ]
  - [   0.0002517793327570,  0.0003427946940064,  0.0003591456916183 ]
  - [   0.0032568231690675,  0.0017433408647776,  0.0015464182943106 ]
  - [   0.0000721409451216, -0.0000292647164315, -0.0000118222087622 ]
  - [   0.0025662379339337, -0.0013328152708709, -0.0007459167391062 ]
  - [  -0.0000195853754121, -0.0001418758183718,  0.0000360626727343 ]
  - [  -0.0000238487264141,  0.0000555152073503, -0.0000273324549198 ]
  - [   0.0000303541692119, -0.0000270805321634,  0.0000015376135707 ]
  - [  -0.0001794551499188,  0.0000912742689252,  0.0001606428995728 ]
  - [   0.0000659832730889,  0.0000490541569889, -0.0000869994983077 ]
  - [   0.0002480731345713, -0.0003432640805840,  0.0003646230325103 ]
  - [   0.0004766360507347,  0.0002942632418126,  0.0003488156944513 ]
  - [   0.0000301757245325,  0.0000106615480036,  0.0000133253633976 ]
  - [  -0.0005145915783942,  0.0002777860499918,  0.0004090964794159 ]
  - [  -0.0000058754339989, -0.0000046712812036, -0.0000070104142651 ]
  - [   0.0000123191275634,  0.0000113535206765,  0.0000017042912077 ]
  - [  -0.0000033866576814, -0.0000209412537515,  0.0000254707701970 ]
  - [   0.0000094678252935, -0.0000089611858130, -0.0000010976218618 ]
  - [   0.0000189691781998,  0.0000147148966789, -0.0000136027520057 ]
  - [  -0.0000328691676259, -0.0005715200677514,  0.0003790678747464 ]
  - [  -0.0005191329400986, -0.0002806670963764,  0.0004108697175980 ]
  - [   0.0000296771759167, -0.0000094277784228,  0.0000138804316521 ]
  - [   0.0004726623883471, -0.0002917076926678,  0.0003466308116913 ]
  - [  -0.0000059175181377,  0.0000070692040026, -0.0000069160014391 ]
  - [  -0.0000054900301620,  0.0000215121544898,  0.0000251084566116 ]
  - [   0.0000134184156195, -0.0000112829729915,  0.0000013979151845 ]
  - [   0.0000193468295038, -0.0000147456303239, -0.0000129342079163 ]
  - [   0.0000086403451860,  0.0000082445330918, -0.0000003697350621 ]
  - [  -0.0000317627564073,  0.0005733021534979,  0.0003785258159041 ]
  - [   0.0002520937705413, -0.0003438363783062,  0.0003593233413994 ]
  - [   0.0000687100691721,  0.0000518576707691, -0.0000880768056959 ]
  - [  -0.0001797336153686,  0.0000945767387748,  0.0001593469642103 ]
  - [   0.0000279266387224, -0.0000258958898485,  0.0000003501772881 ]
  - [  -0.0000246544368565,  0.0000562884379178, -0.0000289920717478 ]
  - [  -0.0000203158706427, -0.0001437126193196,  0.0000360809499398 ]
  - [   0.0025784019380808, -0.0013503057416528, -0.0007708705961704 ]
  - [   0.0000728394225007, -0.0000323092099279, -0.0000154040753841 ]
  - [   0.0030791200697422,  0.0016258936375380,  0.0014195777475834 ]
  - [   0.0002486295998096,  0.0003424454480410,  0.0003650039434433 ]
  - [  -0.0001788352383301, -0.0000906882341951,  0.0001605106517673 ]
  - [   0.0000684466212988, -0.0000479614827782, -0.0000868877395988 ]
  - [  -0.0000249128788710, -0.0000562369823456, -0.0000272123143077 ]
  - [   0.0000278642401099,  0.0000262039247900,  0.0000016828998923 ]
  - [  -0.0000204429961741,  0.0001429785043001,  0.0000362461432815 ]
  - [   0.0032562445849180, -0.0017439833609387,  0.0015461891889572 ]
  - [   0.0000722861004760,  0.0000286819413304, -0.0000119917094707 ]
  - [   0.0025679836980999,  0.0013325936160982, -0.0007458776235580 ]
  - [  -0.0000323140993714,  0.0005704299546778,  0.0003789706970565 ]
  - [   0.0000098884338513,  0.0000089630484581, -0.0000008092611097 ]
  - [   0.0000216383486986, -0.0000142098870128, -0.0000138805480674 ]
  - [   0.0000111623667181, -0.0000113076530397,  0.0000016267877072 ]
  - [  -0.0000055567361414,  0.0000215102918446,  0.0000255067134276 ]
  - [  -0.0000067143701017,  0.0000064673367888, -0.0000070862006396 ]
  - [   0.0004758687864523, -0.0002951024798676,  0.0003484804183245 ]
  - [   0.0000302545558952, -0.0000112340785563,  0.0000131540000439 ]
  - [  -0.0005134313832968, -0.0002782181836665,  0.0004088394343853 ]
  - [  -0.0000311946496367, -0.0005733727011830,  0.0003784112632275 ]
  - [   0.0000198931666091,  0.0000150178093463, -0.0000132098793983 ]
  - [   0.0000105304643512, -0.0000080550089478, -0.0000008456408978 ]
  - [  -0.0000060163438320, -0.0000207601115108,  0.0000254986807704 ]