phonopy:
  version: "2.37.1"
  frequency_unit_conversion_factor: 15.633302
  symmetry_tolerance: 1.00000e-05

space_group:
  type: "P1"
  number: 1
  Hall_symbol: "P 1"

primitive_matrix:
- [  0.000000000000000,  1.000000000000000,  0.000000000000000 ]
- [  1.000000000000000,  0.000000000000000, -0.000000000000000 ]
- [  0.000000000000000,  0.000000000000000, -1.000000000000000 ]

supercell_matrix:
- [   3,   0,   0 ]
- [   0,   3,   0 ]
- [   0,   0,   1 ]

primitive_cell:
  lattice:
  - [    -1.696797479634501,     2.939314023472674,     0.000000000000000 ] # a
  - [     3.394010363352653,     0.000000000000000,     0.000000000000000 ] # b
  - [    -0.001947160863378,    -0.002406497187044,   -11.091806515540068 ] # c
  points:
  - symbol: Sn # 1
    coordinates: [  0.410503423303010,  0.948759071252564,  0.292903299060417 ]
    mass: 118.710000
  - symbol: Sn # 2
    coordinates: [  0.408838839975495,  0.948721775693087,  0.793257556737792 ]
    mass: 118.710000
  - symbol: Sn # 3
    coordinates: [  0.743617948645282,  0.615107556850451,  0.043025720069501 ]
    mass: 118.710000
  - symbol: Sn # 4
    coordinates: [  0.742325212023970,  0.615470446962890,  0.542953739309096 ]
    mass: 118.710000
  reciprocal_lattice: # without 2pi
  - [     0.000000000000000,     0.340215435307093,    -0.000073813718884 ] # a*
  - [     0.294636696103717,     0.170086897610881,    -0.000088625661009 ] # b*
  - [     0.000000000000000,     0.000000000000000,    -0.090156639371500 ] # c*

unit_cell:
  lattice:
  - [     3.394010363352653,     0.000000000000000,     0.000000000000000 ] # a
  - [    -1.696797479634501,     2.939314023472674,     0.000000000000000 ] # b
  - [     0.001947160863378,     0.002406497187044,    11.091806515540066 ] # c
  points:
  - symbol: Sn # 1
    coordinates: [  0.948759071252564,  0.410503423303010,  0.707096700939583 ]
    mass: 118.710000
    reduced_to: 1
  - symbol: Sn # 2
    coordinates: [  0.948721775693087,  0.408838839975495,  0.206742443262208 ]
    mass: 118.710000
    reduced_to: 2
  - symbol: Sn # 3
    coordinates: [  0.615107556850451,  0.743617948645282,  0.956974279930499 ]
    mass: 118.710000
    reduced_to: 3
  - symbol: Sn # 4
    coordinates: [  0.615470446962890,  0.742325212023970,  0.457046260690904 ]
    mass: 118.710000
    reduced_to: 4

supercell:
  lattice:
  - [    10.182031090057958,     0.000000000000000,     0.000000000000000 ] # a
  - [    -5.090392438903502,     8.817942070418020,     0.000000000000000 ] # b
  - [     0.001947160863378,     0.002406497187044,    11.091806515540066 ] # c
  points:
  - symbol: Sn # 1
    coordinates: [  0.316253023750855,  0.136834474434337,  0.707096700939583 ]
    mass: 118.710000
    reduced_to: 1
  - symbol: Sn # 2
    coordinates: [  0.649586357084188,  0.136834474434337,  0.707096700939583 ]
    mass: 118.710000
    reduced_to: 1
  - symbol: Sn # 3
    coordinates: [  0.982919690417521,  0.136834474434337,  0.707096700939583 ]
    mass: 118.710000
    reduced_to: 1
  - symbol: Sn # 4
    coordinates: [  0.316253023750855,  0.470167807767670,  0.707096700939583 ]
    mass: 118.710000
    reduced_to: 1
  - symbol: Sn # 5
    coordinates: [  0.649586357084188,  0.470167807767670,  0.707096700939583 ]
    mass: 118.710000
    reduced_to: 1
  - symbol: Sn # 6
    coordinates: [  0.982919690417521,  0.470167807767670,  0.707096700939583 ]
    mass: 118.710000
    reduced_to: 1
  - symbol: Sn # 7
    coordinates: [  0.316253023750855,  0.803501141101003,  0.707096700939583 ]
    mass: 118.710000
    reduced_to: 1
  - symbol: Sn # 8
    coordinates: [  0.649586357084188,  0.803501141101003,  0.707096700939583 ]
    mass: 118.710000
    reduced_to: 1
  - symbol: Sn # 9
    coordinates: [  0.982919690417521,  0.803501141101003,  0.707096700939583 ]
    mass: 118.710000
    reduced_to: 1
  - symbol: Sn # 10
    coordinates: [  0.316240591897696,  0.136279613325165,  0.206742443262208 ]
    mass: 118.710000
    reduced_to: 10
  - symbol: Sn # 11
    coordinates: [  0.649573925231029,  0.136279613325165,  0.206742443262208 ]
    mass: 118.710000
    reduced_to: 10
  - symbol: Sn # 12
    coordinates: [  0.982907258564362,  0.136279613325165,  0.206742443262208 ]
    mass: 118.710000
    reduced_to: 10
  - symbol: Sn # 13
    coordinates: [  0.316240591897696,  0.469612946658498,  0.206742443262208 ]
    mass: 118.710000
    reduced_to: 10
  - symbol: Sn # 14
    coordinates: [  0.649573925231029,  0.469612946658498,  0.206742443262208 ]
    mass: 118.710000
    reduced_to: 10
  - symbol: Sn # 15
    coordinates: [  0.982907258564362,  0.469612946658498,  0.206742443262208 ]
    mass: 118.710000
    reduced_to: 10
  - symbol: Sn # 16
    coordinates: [  0.316240591897696,  0.802946279991832,  0.206742443262208 ]
    mass: 118.710000
    reduced_to: 10
  - symbol: Sn # 17
    coordinates: [  0.649573925231029,  0.802946279991832,  0.206742443262208 ]
    mass: 118.710000
    reduced_to: 10
  - symbol: Sn # 18
    coordinates: [  0.982907258564362,  0.802946279991832,  0.206742443262208 ]
    mass: 118.710000
    reduced_to: 10
  - symbol: Sn # 19
    coordinates: [  0.205035852283484,  0.247872649548427,  0.956974279930499 ]
    mass: 118.710000
    reduced_to: 19
  - symbol: Sn # 20
    coordinates: [  0.538369185616817,  0.247872649548427,  0.956974279930499 ]
    mass: 118.710000
    reduced_to: 19
  - symbol: Sn # 21
    coordinates: [  0.871702518950150,  0.247872649548427,  0.956974279930499 ]
    mass: 118.710000
    reduced_to: 19
  - symbol: Sn # 22
    coordinates: [  0.205035852283484,  0.581205982881761,  0.956974279930499 ]
    mass: 118.710000
    reduced_to: 19
  - symbol: Sn # 23
    coordinates: [  0.538369185616817,  0.581205982881761,  0.956974279930499 ]
    mass: 118.710000
    reduced_to: 19
  - symbol: Sn # 24
    coordinates: [  0.871702518950150,  0.581205982881761,  0.956974279930499 ]
    mass: 118.710000
    reduced_to: 19
  - symbol: Sn # 25
    coordinates: [  0.205035852283484,  0.914539316215094,  0.956974279930499 ]
    mass: 118.710000
    reduced_to: 19
  - symbol: Sn # 26
    coordinates: [  0.538369185616817,  0.914539316215094,  0.956974279930499 ]
    mass: 118.710000
    reduced_to: 19
  - symbol: Sn # 27
    coordinates: [  0.871702518950150,  0.914539316215094,  0.956974279930499 ]
    mass: 118.710000
    reduced_to: 19
  - symbol: Sn # 28
    coordinates: [  0.205156815654297,  0.247441737341323,  0.457046260690904 ]
    mass: 118.710000
    reduced_to: 28
  - symbol: Sn # 29
    coordinates: [  0.538490148987630,  0.247441737341323,  0.457046260690904 ]
    mass: 118.710000
    reduced_to: 28
  - symbol: Sn # 30
    coordinates: [  0.871823482320963,  0.247441737341323,  0.457046260690904 ]
    mass: 118.710000
    reduced_to: 28
  - symbol: Sn # 31
    coordinates: [  0.205156815654297,  0.580775070674657,  0.457046260690904 ]
    mass: 118.710000
    reduced_to: 28
  - symbol: Sn # 32
    coordinates: [  0.538490148987630,  0.580775070674657,  0.457046260690904 ]
    mass: 118.710000
    reduced_to: 28
  - symbol: Sn # 33
    coordinates: [  0.871823482320963,  0.580775070674657,  0.457046260690904 ]
    mass: 118.710000
    reduced_to: 28
  - symbol: Sn # 34
    coordinates: [  0.205156815654297,  0.914108404007990,  0.457046260690904 ]
    mass: 118.710000
    reduced_to: 28
  - symbol: Sn # 35
    coordinates: [  0.538490148987630,  0.914108404007990,  0.457046260690904 ]
    mass: 118.710000
    reduced_to: 28
  - symbol: Sn # 36
    coordinates: [  0.871823482320963,  0.914108404007990,  0.457046260690904 ]
    mass: 118.710000
    reduced_to: 28

displacements:
- atom:    1
  displacement:
    [   0.0100000000000000,  0.0000000000000000,  0.0000000000000000 ]
  forces:
  - [  -0.0112606808543205, -0.0005655536078848, -0.0024327752180398 ]
  - [   0.0035386709496379, -0.0008158560958691, -0.0023903888650239 ]
  - [   0.0033877640962601, -0.0004394424031489, -0.0023838558699936 ]
  - [   0.0005996937397867, -0.0024501127190888, -0.0023862118832767 ]
  - [   0.0006085506174713,  0.0012382861459628, -0.0023860374931246 ]
  - [   0.0008841562666930, -0.0006229905411601, -0.0023876582272351 ]
  - [   0.0006096097640693, -0.0021037762053311, -0.0023885818663985 ]
  - [   0.0008840868249536, -0.0006278267828748, -0.0023861622903496 ]
  - [   0.0005995125975460,  0.0008186051272787, -0.0023851292207837 ]
  - [  -0.0008237115107477,  0.0005839591613039,  0.0044805356301367 ]
  - [  -0.0002790009602904,  0.0004883643123321,  0.0044789658859372 ]
  - [  -0.0002785839897115,  0.0006803142605349,  0.0044794380664825 ]
  - [  -0.0003801610437222,  0.0004274938255548,  0.0044795991852880 ]
  - [  -0.0003816686803475,  0.0007398474263027,  0.0044787991791964 ]
  - [  -0.0004733867826872,  0.0005841506645083,  0.0044799586758018 ]
  - [  -0.0003809833433479,  0.0006205246900208,  0.0044786711223423 ]
  - [  -0.0004743589088321,  0.0005848564906046,  0.0044787470251322 ]
  - [  -0.0003817577380687,  0.0005492451600730,  0.0044791991822422 ]
  - [   0.0007661059498787, -0.0008005404379219, -0.0018321780953556 ]
  - [   0.0007759360596538, -0.0001023337244987,  0.0011425319826230 ]
  - [   0.0012705596163869, -0.0004568644799292, -0.0003615123569034 ]
  - [   0.0007113760802895, -0.0007811351679265, -0.0003725968999788 ]
  - [   0.0002012215118157, -0.0004569054581225, -0.0003629541606642 ]
  - [   0.0007100082002580, -0.0001329411752522, -0.0003533287672326 ]
  - [   0.0001693535596132, -0.0004555775667541, -0.0003671442973427 ]
  - [   0.0006848881021142, -0.0007367476937361,  0.0000759056711104 ]
  - [   0.0005922438576818, -0.0002328319824301, -0.0007270926143974 ]
  - [  -0.0000884851906449,  0.0001599634997547, -0.0002558644628152 ]
  - [  -0.0000785426236689,  0.0008451226167381, -0.0032239565625787 ]
  - [   0.0004171123728156,  0.0004996641073376, -0.0017310148105025 ]
  - [  -0.0001450083218515,  0.0001758281141520, -0.0017193192616105 ]
  - [  -0.0006517049623653,  0.0004984247498214, -0.0017297272570431 ]
  - [  -0.0001455480232835,  0.0008209752850235, -0.0017393436282873 ]
  - [  -0.0006809756159782,  0.0004994109040126, -0.0017266882350668 ]
  - [  -0.0002256394363940,  0.0002524200826883, -0.0021223365329206 ]
  - [  -0.0002806494012475,  0.0007139563094825, -0.0013804957270622 ]
- atom:    1
  displacement:
    [  -0.0100000000000000,  0.0000000000000000,  0.0000000000000000 ]
  forces:
  - [   0.0117735546082258, -0.0005468887975439, -0.0023367158137262 ]
  - [  -0.0028733331710100, -0.0004392249393277, -0.0023825878743082 ]
  - [  -0.0030244300141931, -0.0008162531303242, -0.0023899404332042 ]
  - [  -0.0000922519175219,  0.0012374008074403, -0.0023876249324530 ]
  - [  -0.0000835184182506, -0.0024512486997992, -0.0023871944285929 ]
  - [  -0.0003680872614495, -0.0006235432811081, -0.0023872023448348 ]
  - [  -0.0000828001648188,  0.0008208394283429, -0.0023851327132434 ]
  - [  -0.0003681317903101, -0.0006284518749453, -0.0023867213167250 ]
  - [  -0.0000930684618652, -0.0021027277689427, -0.0023886081762612 ]
  - [  -0.0000226711854339,  0.0005841228412464,  0.0044783037155867 ]
  - [  -0.0005693854764104,  0.0006799713009968,  0.0044797854498029 ]
  - [  -0.0005692502018064,  0.0004875642480329,  0.0044801565818489 ]
  - [  -0.0004631712799892,  0.0007400503382087,  0.0044807191006839 ]
  - [  -0.0004649477195926,  0.0004277956904843,  0.0044793346896768 ]
  - [  -0.0003721014945768,  0.0005836831405759,  0.0044788829982281 ]
  - [  -0.0004643099382520,  0.0005504568107426,  0.0044800085015595 ]
  - [  -0.0003728482406586,  0.0005848606815562,  0.0044792229309678 ]
  - [  -0.0004643211141229,  0.0006202030926943,  0.0044794301502407 ]
  - [   0.0002435315400362, -0.0001034014858305,  0.0011410330189392 ]
  - [   0.0002538426779211, -0.0008007017895579, -0.0018325545825064 ]
  - [  -0.0002528624609113, -0.0004565671551973, -0.0003612229484133 ]
  - [   0.0003115746658295, -0.0001335670240223, -0.0003535513242241 ]
  - [   0.0008188434876502, -0.0004577254876494, -0.0003634088789113 ]
  - [   0.0003098398447037, -0.0007815212011337, -0.0003722315886989 ]
  - [   0.0008528754115105, -0.0004550575395115, -0.0003677745698951 ]
  - [   0.0004222560673952, -0.0002292108838446, -0.0007321654120460 ]
  - [   0.0003421315923333, -0.0007324356120080,  0.0000710408930900 ]
  - [  -0.0006130826659501,  0.0008490199688822, -0.0032385564409196 ]
  - [  -0.0006007202900946,  0.0001647160388529, -0.0002692939306144 ]
  - [  -0.0011071003973484,  0.0004998561926186, -0.0017315689474344 ]
  - [  -0.0005439384840429,  0.0008222018368542, -0.0017398081254214 ]
  - [  -0.0000373727307306,  0.0004991497844458, -0.0017286867368966 ]
  - [  -0.0005443445406854,  0.0001769964583218, -0.0017198571003973 ]
  - [  -0.0000085616484284,  0.0005045398720540, -0.0017243006732315 ]
  - [  -0.0003719511441886,  0.0006917348364368, -0.0014114438090473 ]
  - [  -0.0004998901858926,  0.0002333514275961, -0.0021497609559447 ]
- atom:    1
  displacement:
    [  -0.0049995220868430,  0.0086605299435525,  0.0000000000000000 ]
  forces:
  - [   0.0059473579749465, -0.0106869637966156, -0.0022792823147029 ]
  - [  -0.0011663092300296, -0.0010531328152865, -0.0023861154913902 ]
  - [  -0.0015271059237421, -0.0012517420109361, -0.0023895790800452 ]
  - [  -0.0012176188174635,  0.0023164642043412, -0.0023884978145361 ]
  - [   0.0013612254988402,  0.0004163111443631, -0.0023881173692644 ]
  - [  -0.0000571343043703, -0.0000850800424814, -0.0023869443684816 ]
  - [  -0.0014724102802575,  0.0019959388300776, -0.0023833899758756 ]
  - [  -0.0000535692088306, -0.0000831848592497, -0.0023869997821748 ]
  - [   0.0016678993124515,  0.0005828082794324, -0.0023866198025644 ]
  - [  -0.0002223355695605,  0.0002380765508860,  0.0044786240905523 ]
  - [  -0.0004151742905378,  0.0006383634754457,  0.0044806306250393 ]
  - [  -0.0005791896255687,  0.0005425642593764,  0.0044815726578236 ]
  - [  -0.0004102034436073,  0.0007587098516524,  0.0044805565848947 ]
  - [  -0.0004757936694659,  0.0006017136620358,  0.0044796438887715 ]
  - [  -0.0003975094878115,  0.0005400665104389,  0.0044785300269723 ]
  - [  -0.0005769333802164,  0.0006633923621848,  0.0044795405119658 ]
  - [  -0.0003985685762018,  0.0005396872293204,  0.0044794566929340 ]
  - [  -0.0003094032872468,  0.0006979052559473,  0.0044786841608584 ]
  - [   0.0000711763277650, -0.0004034137818962,  0.0011400803923607 ]
  - [   0.0006770817562938, -0.0007547093555331, -0.0003684764960781 ]
  - [   0.0001277220435441, -0.0004459344781935, -0.0003539772878867 ]
  - [   0.0001304901670665,  0.0002011139877141, -0.0003608818515204 ]
  - [   0.0006647586124018, -0.0001704278402030,  0.0000744832941564 ]
  - [   0.0006903077010065, -0.0001226966269314, -0.0003719319647644 ]
  - [   0.0006809630431235, -0.0000648539280519, -0.0018318665679544 ]
  - [   0.0002681971527636, -0.0004966455744579, -0.0007323898607865 ]
  - [   0.0006646672263741, -0.0007249609334394, -0.0003643555101007 ]
  - [  -0.0007822667248547,  0.0005492689087987, -0.0032362788915634 ]
  - [  -0.0001831022091210,  0.0002021719701588, -0.0017211689846590 ]
  - [  -0.0007265857420862,  0.0005099333357066, -0.0017396420007572 ]
  - [  -0.0007241400890052,  0.0011558379046619, -0.0017325675580651 ]
  - [  -0.0001910714781843,  0.0008238521404564, -0.0021934113465250 ]
  - [  -0.0001660007983446,  0.0008318331092596, -0.0017203371971846 ]
  - [  -0.0001805173233151,  0.0008812643936835, -0.0002908628666773 ]
  - [  -0.0005254019051790,  0.0004246207536198, -0.0014107893221080 ]
  - [  -0.0001935036852956,  0.0002318426268175, -0.0017273215344176 ]
- atom:    1
  displacement:
    [   0.0049995220868430, -0.0086605299435525,  0.0000000000000000 ]
  forces:
  - [  -0.0055512832477689,  0.0093781482428312, -0.0024951589293778 ]
  - [   0.0017125168815255, -0.0001899076160043, -0.0023871634621173 ]
  - [   0.0020034816116095, -0.0000118681346066, -0.0023839063942432 ]
  - [   0.0016625121934339, -0.0034364163875580, -0.0023853741586208 ]
  - [  -0.0008223659242503, -0.0016443144995719, -0.0023853075690567 ]
  - [   0.0005684810457751, -0.0011701104231179, -0.0023877867497504 ]
  - [   0.0020687943324447, -0.0033755912445486, -0.0023906393907964 ]
  - [   0.0005721175111830, -0.0011683850316331, -0.0023859147913754 ]
  - [  -0.0011817682534456, -0.0018622020725161, -0.0023869385477155 ]
  - [  -0.0006227158010006,  0.0009318297961727,  0.0044802152551711 ]
  - [  -0.0004341816529632,  0.0005307362880558,  0.0044780899770558 ]
  - [  -0.0002682920312509,  0.0006269045406953,  0.0044783512130380 ]
  - [  -0.0004319458676036,  0.0004102298989892,  0.0044799675233662 ]
  - [  -0.0003719014348462,  0.0005659506423399,  0.0044783428311348 ]
  - [  -0.0004481031501200,  0.0006274101324379,  0.0044803530909121 ]
  - [  -0.0002669799141586,  0.0005070059560239,  0.0044791996479034 ]
  - [  -0.0004493910819292,  0.0006280119996518,  0.0044781928882003 ]
  - [  -0.0005366257391870,  0.0004705794854090,  0.0044799298048019 ]
  - [   0.0009344182908535, -0.0005071260966361, -0.0018307319842279 ]
  - [   0.0003371653147042, -0.0001613730564713, -0.0003652328159660 ]
  - [   0.0008888132870197, -0.0004682070575655, -0.0003734893398359 ]
  - [   0.0008925024885684, -0.0011173211969435, -0.0003609109844547 ]
  - [   0.0003558731405064, -0.0006455034017563, -0.0007294359384105 ]
  - [   0.0003284600097686, -0.0007936684414744, -0.0003533579292707 ]
  - [   0.0003373599611223, -0.0008649731753394,  0.0011395025067031 ]
  - [   0.0008397069759667, -0.0004689985653386,  0.0000761934934417 ]
  - [   0.0003550080582500, -0.0001907530240715, -0.0003630111459643 ]
  - [   0.0000766413286328,  0.0004531193990260, -0.0002584715839475 ]
  - [  -0.0005114716477692,  0.0007946509867907, -0.0017283216584474 ]
  - [   0.0000354461371899,  0.0004891569260508, -0.0017185145989060 ]
  - [   0.0000350561458617, -0.0001589846797287, -0.0017309992108494 ]
  - [  -0.0004978464567102,  0.0002678576856852, -0.0013333901297301 ]
  - [  -0.0005244850181043,  0.0001646019518375, -0.0017387605039403 ]
  - [  -0.0005126944743097,  0.0001036537578329, -0.0032021424267441 ]
  - [  -0.0000719479285181,  0.0005199480801821, -0.0021230853162706 ]
  - [  -0.0005003474652767,  0.0007658904651180, -0.0017302888445556 ]
- atom:    1
  displacement:
    [   0.0000017554947292,  0.0000021696169059,  0.0099999996105500 ]
  forces:
  - [   0.0002064863219857, -0.0005286806263030, -0.0138624636456370 ]
  - [   0.0002594757825136, -0.0006278558867052, -0.0028148330748081 ]
  - [   0.0002562417648733, -0.0006280439556576, -0.0028150731232017 ]
  - [   0.0002579506544862, -0.0006240014918149, -0.0028153704479337 ]
  - [   0.0002589117502794, -0.0006250623846427, -0.0028146600816399 ]
  - [   0.0002585476904642, -0.0006267311982810, -0.0022992603480816 ]
  - [   0.0002585393376648, -0.0006245117401704, -0.0028153259772807 ]
  - [   0.0002577658742666, -0.0006258834036998, -0.0022981460206211 ]
  - [   0.0002593547105789, -0.0006247190758586, -0.0028148258570582 ]
  - [  -0.0004234611988068,  0.0005858745425940,  0.0061953389085829 ]
  - [  -0.0004237098619342,  0.0005828005960211,  0.0048326952382922 ]
  - [  -0.0004242887371220,  0.0005826761480421,  0.0048344740644097 ]
  - [  -0.0004199169052299,  0.0005849809385836,  0.0048354757018387 ]
  - [  -0.0004234282241669,  0.0005847685970366,  0.0048334994353354 ]
  - [  -0.0004221768758725,  0.0005835224874318,  0.0043885605409741 ]
  - [  -0.0004203147254884,  0.0005852696485817,  0.0048317434266210 ]
  - [  -0.0004240761045367,  0.0005849063163623,  0.0043877344578505 ]
  - [  -0.0004243785515428,  0.0005836653872393,  0.0048322631046176 ]
  - [  -0.0010066404938698,  0.0004185072612017,  0.0013627319131047 ]
  - [   0.0020268387161195,  0.0004214192740619,  0.0013652010820806 ]
  - [   0.0005089463666081, -0.0004456951282918, -0.0003376894164830 ]
  - [   0.0005018396768719, -0.0004638768732548, -0.0003369813784957 ]
  - [   0.0005096065578982,  0.0000416380353272, -0.0003398953122087 ]
  - [   0.0005200291052461, -0.0004633506760001, -0.0003367798635736 ]
  - [   0.0005092681385577, -0.0022103136871010,  0.0013627274893224 ]
  - [   0.0009450521320105, -0.0007087758276612, -0.0003392024955247 ]
  - [   0.0000805025920272, -0.0007050962303765, -0.0003434770624153 ]
  - [   0.0011132636573166, -0.0003405958414078, -0.0000671679736115 ]
  - [  -0.0017905386630446, -0.0003307289443910, -0.0000921789032873 ]
  - [  -0.0003449129872024,  0.0004880533087999, -0.0017016513738781 ]
  - [  -0.0003345424775034,  0.0005033263005316, -0.0017022446263582 ]
  - [  -0.0003455670084804,  0.0000341758131981, -0.0017271237447858 ]
  - [  -0.0003539426252246,  0.0005034198984504, -0.0017020907253027 ]
  - [  -0.0003462457098067,  0.0021432444918901, -0.0001280299911741 ]
  - [  -0.0006683100946248,  0.0006863723392598, -0.0017922611441463 ]
  - [   0.0000078249722719,  0.0007052817381918, -0.0017657134449109 ]
- atom:    1
  displacement:
    [  -0.0000017554947292, -0.0000021696169059, -0.0099999996105500 ]
  forces:
  - [   0.0003083385527134, -0.0007180219399743,  0.0090895909816027 ]
  - [   0.0002515623345971, -0.0006244271062315, -0.0019583390094340 ]
  - [   0.0002625612542033, -0.0006244741380215, -0.0019586470443755 ]
  - [   0.0002618218713906, -0.0006313952617347, -0.0019584954716265 ]
  - [   0.0002545905881561, -0.0006294148042798, -0.0019585704430938 ]
  - [   0.0002577512932476, -0.0006256969645619, -0.0024757571518421 ]
  - [   0.0002575828693807, -0.0006222010124475, -0.0019587043207139 ]
  - [   0.0002579507417977, -0.0006270337617025, -0.0024750302545726 ]
  - [   0.0002574874088168, -0.0006235884502530, -0.0019588291179389 ]
  - [  -0.0004228139296174,  0.0005834141047671,  0.0027631358243525 ]
  - [  -0.0004234425723553,  0.0005846719723195,  0.0041264072060585 ]
  - [  -0.0004247658944223,  0.0005847373977304,  0.0041252486407757 ]
  - [  -0.0004218070243951,  0.0005851411260664,  0.0041248789057136 ]
  - [  -0.0004246803873684,  0.0005855928175151,  0.0041245128959417 ]
  - [  -0.0004233370418660,  0.0005840435624123,  0.0045703668147326 ]
  - [  -0.0004224341828376,  0.0005845950217918,  0.0041268481872976 ]
  - [  -0.0004226516466588,  0.0005835789488629,  0.0045702233910561 ]
  - [  -0.0004241291899234,  0.0005849017761648,  0.0041260169818997 ]
  - [   0.0019670687615871, -0.0012986701913178, -0.0020136404782534 ]
  - [  -0.0009486908093095, -0.0013008341193199, -0.0020162134896964 ]
  - [   0.0005084932781756, -0.0004685041494668, -0.0003904443292413 ]
  - [   0.0005217129364610, -0.0004518721252680, -0.0003900513984263 ]
  - [   0.0005104670999572, -0.0008883271366358, -0.0003394136729185 ]
  - [   0.0004993637558073, -0.0004518413916230, -0.0003894830588251 ]
  - [   0.0005129021592438,  0.0012262267991900, -0.0020146579481661 ]
  - [   0.0001355921849608, -0.0002414048067294, -0.0003413241356611 ]
  - [   0.0008806409314275, -0.0002445263089612, -0.0003370176418684 ]
  - [  -0.0018644831143320,  0.0013736078981310, -0.0034686832223088 ]
  - [   0.0011594193056226,  0.0013639051467180, -0.0034400927834213 ]
  - [  -0.0003455178812146,  0.0005105950403959, -0.0017558743711561 ]
  - [  -0.0003536848817021,  0.0004939604550600, -0.0017562967259437 ]
  - [  -0.0003438725543674,  0.0010284883901477, -0.0017757785972208 ]
  - [  -0.0003364621661603,  0.0004938729107380, -0.0017565611051396 ]
  - [  -0.0003432268276811, -0.0012111366959289, -0.0034036233555526 ]
  - [   0.0000423910096288,  0.0002743679215200, -0.0017158255213872 ]
  - [  -0.0007616961374879,  0.0002576730330475, -0.0017398765776306 ]
- atom:   10
  displacement:
    [   0.0100000000000000,  0.0000000000000000,  0.0000000000000000 ]
  forces:
  - [  -0.0001428546383977, -0.0006260483642109, -0.0023869806900620 ]
  - [   0.0004030624404550, -0.0007224756991491, -0.0023862852249295 ]
  - [   0.0004025033849757, -0.0005318074254319, -0.0023872330784798 ]
  - [   0.0003003871825058, -0.0007816236466169, -0.0023859972134233 ]
  - [   0.0002992781810462, -0.0004707500338554, -0.0023868344724178 ]
  - [   0.0002072998613585, -0.0006258953362703, -0.0023881292436272 ]
  - [   0.0003009638749063, -0.0005887061124668, -0.0023862700909376 ]
  - [   0.0002072798088193, -0.0006259268848225, -0.0023858752101660 ]
  - [   0.0002993620000780, -0.0006613736040890, -0.0023861669469625 ]
  - [  -0.0119723984971642,  0.0006776965456083,  0.0045596570707858 ]
  - [   0.0028612893074751,  0.0003906836500391,  0.0044862730428576 ]
  - [   0.0027102632448077,  0.0007753241225146,  0.0044748899526894 ]
  - [  -0.0000797978718765, -0.0012377174571157,  0.0044762529432774 ]
  - [  -0.0000725042045815,  0.0024387561716139,  0.0044808294624090 ]
  - [   0.0002035282668658,  0.0005865688435733,  0.0044799582101405 ]
  - [  -0.0000713337212801, -0.0008915195940062,  0.0044808890670538 ]
  - [   0.0002024704590440,  0.0005825269035995,  0.0044784955680370 ]
  - [  -0.0000807517208159,  0.0020283085759729,  0.0044772224500775 ]
  - [   0.0007629417814314, -0.0007987248245627,  0.0010909497505054 ]
  - [   0.0007744575850666, -0.0000977381132543, -0.0018771323375404 ]
  - [   0.0012691942974925, -0.0004565992858261, -0.0003657811903395 ]
  - [   0.0007118331268430, -0.0007814243435860, -0.0003533698036335 ]
  - [   0.0002002710534725, -0.0004561776295304, -0.0003615560126491 ]
  - [   0.0007104557007551, -0.0001312098465860, -0.0003719604865182 ]
  - [   0.0001673009246588, -0.0004508427809924, -0.0003569514956325 ]
  - [   0.0007367818616331, -0.0007673640502617, -0.0008460721583106 ]
  - [   0.0005872398614883, -0.0002338549238630, -0.0000020556472009 ]
  - [  -0.0001033265143633,  0.0001668366603553, -0.0031672520563006 ]
  - [  -0.0000926977954805,  0.0008407244458795, -0.0002601220912766 ]
  - [   0.0004112324677408,  0.0005000757519156, -0.0017275700811297 ]
  - [  -0.0001462374348193,  0.0001760064624250, -0.0017401946242899 ]
  - [  -0.0006508891237900,  0.0004994790069759, -0.0017299121245742 ]
  - [  -0.0001462833024561,  0.0008216542191803, -0.0017202883027494 ]
  - [  -0.0006809188053012,  0.0005024150596000, -0.0017338633770123 ]
  - [  -0.0002025938592851,  0.0002394911716692, -0.0013178894296288 ]
  - [  -0.0002868147566915,  0.0007112376042642, -0.0020736702717841 ]
- atom:   10
  displacement:
    [  -0.0100000000000000,  0.0000000000000000,  0.0000000000000000 ]
  forces:
  - [   0.0006580092012882, -0.0006259375950322, -0.0023862144444138 ]
  - [   0.0001122634857893, -0.0005309511907399, -0.0023869662545621 ]
  - [   0.0001121384557337, -0.0007217245874926, -0.0023867613635957 ]
  - [   0.0002170868683606, -0.0004716156981885, -0.0023879166692495 ]
  - [   0.0002166495833080, -0.0007808477384970, -0.0023866717237979 ]
  - [   0.0003088349767495, -0.0006257882341743, -0.0023868614807725 ]
  - [   0.0002178060822189, -0.0006616755854338, -0.0023877872154117 ]
  - [   0.0003086496144533, -0.0006259068613872, -0.0023870528675616 ]
  - [   0.0002159853465855, -0.0005892474437132, -0.0023874030448496 ]
  - [   0.0111338943243027,  0.0006221502553672,  0.0043926569633186 ]
  - [  -0.0035575386136770,  0.0007750501972623,  0.0044729504734278 ]
  - [  -0.0037086077500135,  0.0003908674116246,  0.0044848471879959 ]
  - [  -0.0007737602572888,  0.0024459385313094,  0.0044840639457107 ]
  - [  -0.0007654282380827, -0.0012322958791628,  0.0044774371199310 ]
  - [  -0.0010491344146430,  0.0005866056308150,  0.0044792285189033 ]
  - [  -0.0007648500613868,  0.0020292785484344,  0.0044781584292650 ]
  - [  -0.0010496436152607,  0.0005826126434840,  0.0044794180430472 ]
  - [  -0.0007738089188933, -0.0008915938669816,  0.0044815074652433 ]
  - [   0.0002461401745677, -0.0001048194244504, -0.0018529338994995 ]
  - [   0.0002545714378357, -0.0008055195212364,  0.0011142441071570 ]
  - [  -0.0002517118118703, -0.0004567943979055, -0.0003645922988653 ]
  - [   0.0003112123813480, -0.0001334035769105, -0.0003713914193213 ]
  - [   0.0008197301067412, -0.0004577757790685, -0.0003634250897449 ]
  - [   0.0003092321567237, -0.0007833428680897, -0.0003521117905620 ]
  - [   0.0008550155907869, -0.0004597161314450, -0.0003633850719780 ]
  - [   0.0003642505034804, -0.0001950488658622,  0.0000540377950529 ]
  - [   0.0003467658534646, -0.0007317627896555, -0.0007963399402797 ]
  - [  -0.0005985554307699,  0.0008422753307968, -0.0002572311495896 ]
  - [  -0.0005873017944396,  0.0001685791648924, -0.0031634001061320 ]
  - [  -0.0011014081537724,  0.0004995188210160, -0.0017275847494602 ]
  - [  -0.0005427750293165,  0.0008219368755817, -0.0017206285847351 ]
  - [  -0.0000384402155760,  0.0005000606179237, -0.0017294934950769 ]
  - [  -0.0005434618797153,  0.0001764120534062, -0.0017400963697582 ]
  - [  -0.0000083297491074,  0.0005020422395319, -0.0017315857112408 ]
  - [  -0.0003984440118074,  0.0007065879181027, -0.0020685563795269 ]
  - [  -0.0004950352013111,  0.0002358594210818, -0.0013121543452144 ]
- atom:   10
  displacement:
    [  -0.0049995220868430,  0.0086605299435525,  0.0000000000000000 ]
  forces:
  - [   0.0004579229280353, -0.0009718781802803, -0.0023851955775172 ]
  - [   0.0002676416188478, -0.0005722785135731, -0.0023877786006778 ]
  - [   0.0001018678449327, -0.0006673834868707, -0.0023877383209765 ]
  - [   0.0002690047258511, -0.0004528886638582, -0.0023874104954302 ]
  - [   0.0002059309917968, -0.0006078616133891, -0.0023871783632785 ]
  - [   0.0002834206388798, -0.0006702151149511, -0.0023865606635809 ]
  - [   0.0001039123162627, -0.0005476876976900, -0.0023876088671386 ]
  - [   0.0002828123979270, -0.0006708222208545, -0.0023870400618762 ]
  - [   0.0003719958476722, -0.0005120075657032, -0.0023877308703959 ]
  - [   0.0053212242200971, -0.0094154961407185,  0.0043907542712986 ]
  - [  -0.0018454259261489,  0.0001595788635314,  0.0044781300239265 ]
  - [  -0.0022134047467262, -0.0000422800658271,  0.0044841910712421 ]
  - [  -0.0018972952384502,  0.0035245190374553,  0.0044849216938019 ]