# Thermal properties / unit cell (natom)

unit:
  temperature:   K
  free_energy:   kJ/mol
  entropy:       J/K/mol
  heat_capacity: J/K/mol

natom: 6    
cutoff_frequency: 0.00000
num_modes: 258750
num_integrated_modes: 258748

zero_point_energy:      24.8892155

thermal_properties:
- temperature:         0.0000000
  free_energy:        24.8892155
  entropy:             0.0000000
  heat_capacity:       0.0000000
  energy:             24.8892155

- temperature:        10.0000000
  free_energy:        24.8888120
  entropy:             0.1505719
  heat_capacity:       0.5037503
  energy:             24.8903177

- temperature:        20.0000000
  free_energy:        24.8813669
  entropy:             1.7511042
  heat_capacity:       5.7926162
  energy:             24.9163890

- temperature:        30.0000000
  free_energy:        24.8455361
  entropy:             5.7467421
  heat_capacity:      14.6633144
  energy:             25.0179384

- temperature:        40.0000000
  free_energy:        24.7616799
  entropy:            11.1876148
  heat_capacity:      23.5047215
  energy:             25.2091844

- temperature:        50.0000000
  free_energy:        24.6194471
  entropy:            17.3431051
  heat_capacity:      31.9270386
  energy:             25.4866023

- temperature:        60.0000000
  free_energy:        24.4135244
  entropy:            23.8918651
  heat_capacity:      40.1368350
  energy:             25.8470363

- temperature:        70.0000000
  free_energy:        24.1407919
  entropy:            30.6877338
  heat_capacity:      48.2200312
  energy:             26.2889333

- temperature:        80.0000000
  free_energy:        23.7992332
  entropy:            37.6450974
  heat_capacity:      56.1225892
  energy:             26.8108410

- temperature:        90.0000000
  free_energy:        23.3875719
  entropy:            44.6981222
  heat_capacity:      63.7307256
  energy:             27.4104029

- temperature:       100.0000000
  free_energy:        22.9051436
  entropy:            51.7895492
  heat_capacity:      70.9328815
  energy:             28.0840985

- temperature:       110.0000000
  free_energy:        22.3518210
  entropy:            58.8692255
  heat_capacity:      77.6489015
  energy:             28.8274358

- temperature:       120.0000000
  free_energy:        21.7279405
  entropy:            65.8947500
  heat_capacity:      83.8362004
  energy:             29.6353105

- temperature:       130.0000000
  free_energy:        21.0342216
  entropy:            72.8318398
  heat_capacity:      89.4845896
  energy:             30.5023608

- temperature:       140.0000000
  free_energy:        20.2716875
  entropy:            79.6540109
  heat_capacity:      94.6075092
  energy:             31.4232490

- temperature:       150.0000000
  free_energy:        19.4415902
  entropy:            86.3417577
  heat_capacity:      99.2335440
  energy:             32.3928538

- temperature:       160.0000000
  free_energy:        18.5453462
  entropy:            92.8815015
  heat_capacity:     103.3996575
  energy:             33.4063865

- temperature:       170.0000000
  free_energy:        17.5844830
  entropy:            99.2645051
  heat_capacity:     107.1463545
  energy:             34.4594489

- temperature:       180.0000000
  free_energy:        16.5605953
  entropy:           105.4858701
  heat_capacity:     110.5144881
  energy:             35.5480519

- temperature:       190.0000000
  free_energy:        15.4753111
  entropy:           111.5436675
  heat_capacity:     113.5433099
  energy:             36.6686079

- temperature:       200.0000000
  free_energy:        14.3302663
  entropy:           117.4382152
  heat_capacity:     116.2693896
  energy:             37.8179093

- temperature:       210.0000000
  free_energy:        13.1270845
  entropy:           123.1714940
  heat_capacity:     118.7261130
  energy:             38.9930982

- temperature:       220.0000000
  free_energy:        11.8673634
  entropy:           128.7466857
  heat_capacity:     120.9435439
  energy:             40.1916343

- temperature:       230.0000000
  free_energy:        10.5526644
  entropy:           134.1678123
  heat_capacity:     122.9485040
  energy:             41.4112612

- temperature:       240.0000000
  free_energy:         9.1845055
  entropy:           139.4394592
  heat_capacity:     124.7647741
  energy:             42.6499757

- temperature:       250.0000000
  free_energy:         7.7643570
  entropy:           144.5665639
  heat_capacity:     126.4133529
  energy:             43.9059980

- temperature:       260.0000000
  free_energy:         6.2936389
  entropy:           149.5542568
  heat_capacity:     127.9127374
  energy:             45.1777457

- temperature:       270.0000000
  free_energy:         4.7737193
  entropy:           154.4077431
  heat_capacity:     129.2791984
  energy:             46.4638099

- temperature:       280.0000000
  free_energy:         3.2059141
  entropy:           159.1322156
  heat_capacity:     130.5270428
  energy:             47.7629345

- temperature:       290.0000000
  free_energy:         1.5914879
  entropy:           163.7327915
  heat_capacity:     131.6688521
  energy:             49.0739975

- temperature:       300.0000000
  free_energy:        -0.0683454
  entropy:           168.2144684
  heat_capacity:     132.7156986
  energy:             50.3959951

- temperature:       310.0000000
  free_energy:        -1.7724213
  entropy:           172.5820930
  heat_capacity:     133.6773356
  energy:             51.7280275

- temperature:       320.0000000
  free_energy:        -3.5196227
  entropy:           176.8403415
  heat_capacity:     134.5623664
  energy:             53.0692866

- temperature:       330.0000000
  free_energy:        -5.3088785
  entropy:           180.9937075
  heat_capacity:     135.3783906
  energy:             54.4190449

- temperature:       340.0000000
  free_energy:        -7.1391616
  entropy:           185.0464955
  heat_capacity:     136.1321323
  energy:             55.7766469

- temperature:       350.0000000
  free_energy:        -9.0094869
  entropy:           189.0028195
  heat_capacity:     136.8295515
  energy:             57.1414999

- temperature:       360.0000000
  free_energy:       -10.9189096
  entropy:           192.8666039
  heat_capacity:     137.4759400
  energy:             58.5130679

- temperature:       370.0000000
  free_energy:       -12.8665230
  entropy:           196.6415875
  heat_capacity:     138.0760056
  energy:             59.8908644

- temperature:       380.0000000
  free_energy:       -14.8514572
  entropy:           200.3313284
  heat_capacity:     138.6339437
  energy:             61.2744476

- temperature:       390.0000000
  free_energy:       -16.8728767
  entropy:           203.9392105
  heat_capacity:     139.1535006
  energy:             62.6634153

- temperature:       400.0000000
  free_energy:       -18.9299793
  entropy:           207.4684504
  heat_capacity:     139.6380275
  energy:             64.0574009

- temperature:       410.0000000
  free_energy:       -21.0219938
  entropy:           210.9221048
  heat_capacity:     140.0905281
  energy:             65.4560692

- temperature:       420.0000000
  free_energy:       -23.1481791
  entropy:           214.3030782
  heat_capacity:     140.5136991
  energy:             66.8591137

- temperature:       430.0000000
  free_energy:       -25.3078223
  entropy:           217.6141298
  heat_capacity:     140.9099666
  energy:             68.2662535

- temperature:       440.0000000
  free_energy:       -27.5002374
  entropy:           220.8578820
  heat_capacity:     141.2815164
  energy:             69.6772307

- temperature:       450.0000000
  free_energy:       -29.7247639
  entropy:           224.0368266
  heat_capacity:     141.6303221
  energy:             71.0918080

- temperature:       460.0000000
  free_energy:       -31.9807658
  entropy:           227.1533328
  heat_capacity:     141.9581678
  energy:             72.5097673

- temperature:       470.0000000
  free_energy:       -34.2676300
  entropy:           230.2096530
  heat_capacity:     142.2666700
  energy:             73.9309069

- temperature:       480.0000000
  free_energy:       -36.5847654
  entropy:           233.2079302
  heat_capacity:     142.5572949
  energy:             75.3550411

- temperature:       490.0000000
  free_energy:       -38.9316019
  entropy:           236.1502033
  heat_capacity:     142.8313751
  energy:             76.7819977

- temperature:       500.0000000
  free_energy:       -41.3075893
  entropy:           239.0384135
  heat_capacity:     143.0901232
  energy:             78.2116175

- temperature:       510.0000000
  free_energy:       -43.7121962
  entropy:           241.8744096
  heat_capacity:     143.3346448
  energy:             79.6437527

- temperature:       520.0000000
  free_energy:       -46.1449093
  entropy:           244.6599532
  heat_capacity:     143.5659490
  energy:             81.0782663

- temperature:       530.0000000
  free_energy:       -48.6052327
  entropy:           247.3967234
  heat_capacity:     143.7849584
  energy:             82.5150308

- temperature:       540.0000000
  free_energy:       -51.0926865
  entropy:           250.0863220
  heat_capacity:     143.9925175
  energy:             83.9539273

- temperature:       550.0000000
  free_energy:       -53.6068070
  entropy:           252.7302773
  heat_capacity:     144.1894007
  energy:             85.3948455

- temperature:       560.0000000
  free_energy:       -56.1471448
  entropy:           255.3300482
  heat_capacity:     144.3763188
  energy:             86.8376821

- temperature:       570.0000000
  free_energy:       -58.7132653
  entropy:           257.8870284
  heat_capacity:     144.5539252
  energy:             88.2823409

- temperature:       580.0000000
  free_energy:       -61.3047472
  entropy:           260.4025497
  heat_capacity:     144.7228212
  energy:             89.7287316

- temperature:       590.0000000
  free_energy:       -63.9211823
  entropy:           262.8778855
  heat_capacity:     144.8835609
  energy:             91.1767701

- temperature:       600.0000000
  free_energy:       -66.5621750
  entropy:           265.3142540
  heat_capacity:     145.0366556
  energy:             92.6263774

- temperature:       610.0000000
  free_energy:       -69.2273414
  entropy:           267.7128209
  heat_capacity:     145.1825776
  energy:             94.0774793

- temperature:       620.0000000
  free_energy:       -71.9163092
  entropy:           270.0747026
  heat_capacity:     145.3217636
  energy:             95.5300065

- temperature:       630.0000000
  free_energy:       -74.6287168
  entropy:           272.4009687
  heat_capacity:     145.4546178
  energy:             96.9838935

- temperature:       640.0000000
  free_energy:       -77.3642132
  entropy:           274.6926441
  heat_capacity:     145.5815152
  energy:             98.4390790

- temperature:       650.0000000
  free_energy:       -80.1224576
  entropy:           276.9507119
  heat_capacity:     145.7028032
  energy:             99.8955051

- temperature:       660.0000000
  free_energy:       -82.9031186
  entropy:           279.1761152
  heat_capacity:     145.8188049
  energy:            101.3531174

- temperature:       670.0000000
  free_energy:       -85.7058741
  entropy:           281.3697592
  heat_capacity:     145.9298205
  energy:            102.8118646

- temperature:       680.0000000
  free_energy:       -88.5304108
  entropy:           283.5325132
  heat_capacity:     146.0361293
  energy:            104.2716981

- temperature:       690.0000000
  free_energy:       -91.3764242
  entropy:           285.6652123
  heat_capacity:     146.1379916
  energy:            105.7325723

- temperature:       700.0000000
  free_energy:       -94.2436176
  entropy:           287.7686593
  heat_capacity:     146.2356500
  energy:            107.1944440

- temperature:       710.0000000
  free_energy:       -97.1317024
  entropy:           289.8436260
  heat_capacity:     146.3293309
  energy:            108.6572721

- temperature:       720.0000000
  free_energy:      -100.0403976
  entropy:           291.8908551
  heat_capacity:     146.4192460
  energy:            110.1210180

- temperature:       730.0000000
  free_energy:      -102.9694294
  entropy:           293.9110610
  heat_capacity:     146.5055930
  energy:            111.5856451

- temperature:       740.0000000
  free_energy:      -105.9185311
  entropy:           295.9049320
  heat_capacity:     146.5885568
  energy:            113.0511186

- temperature:       750.0000000
  free_energy:      -108.8874425
  entropy:           297.8731307
  heat_capacity:     146.6683107
  energy:            114.5174055

- temperature:       760.0000000
  free_energy:      -111.8759102
  entropy:           299.8162959
  heat_capacity:     146.7450173
  energy:            115.9844747

- temperature:       770.0000000
  free_energy:      -114.8836870
  entropy:           301.7350432
  heat_capacity:     146.8188286
  energy:            117.4522962

- temperature:       780.0000000
  free_energy:      -117.9105317
  entropy:           303.6299664
  heat_capacity:     146.8898879
  energy:            118.9208421

- temperature:       790.0000000
  free_energy:      -120.9562089
  entropy:           305.5016381
  heat_capacity:     146.9583293
  energy:            120.3900853

- temperature:       800.0000000
  free_energy:      -124.0204888
  entropy:           307.3506114
  heat_capacity:     147.0242792
  energy:            121.8600003

- temperature:       810.0000000
  free_energy:      -127.1031472
  entropy:           309.1774199
  heat_capacity:     147.0878563
  energy:            123.3305630

- temperature:       820.0000000
  free_energy:      -130.2039650
  entropy:           310.9825792
  heat_capacity:     147.1491724
  energy:            124.8017499

- temperature:       830.0000000
  free_energy:      -133.3227283
  entropy:           312.7665874
  heat_capacity:     147.2083330
  energy:            126.2735392

- temperature:       840.0000000
  free_energy:      -136.4592279
  entropy:           314.5299257
  heat_capacity:     147.2654374
  energy:            127.7459097

- temperature:       850.0000000
  free_energy:      -139.6132595
  entropy:           316.2730599
  heat_capacity:     147.3205793
  energy:            129.2188414

- temperature:       860.0000000
  free_energy:      -142.7846232
  entropy:           317.9964399
  heat_capacity:     147.3738471
  energy:            130.6923151

- temperature:       870.0000000
  free_energy:      -145.9731239
  entropy:           319.7005014
  heat_capacity:     147.4253244
  energy:            132.1663124

- temperature:       880.0000000
  free_energy:      -149.1785703
  entropy:           321.3856661
  heat_capacity:     147.4750901
  energy:            133.6408159

- temperature:       890.0000000
  free_energy:      -152.4007756
  entropy:           323.0523419
  heat_capacity:     147.5232190
  energy:            135.1158087

- temperature:       900.0000000
  free_energy:      -155.6395568
  entropy:           324.7009243
  heat_capacity:     147.5697817
  energy:            136.5912750

- temperature:       910.0000000
  free_energy:      -158.8947350
  entropy:           326.3317960
  heat_capacity:     147.6148451
  energy:            138.0671994

- temperature:       920.0000000
  free_energy:      -162.1661349
  entropy:           327.9453283
  heat_capacity:     147.6584726
  energy:            139.5435671

- temperature:       930.0000000
  free_energy:      -165.4535850
  entropy:           329.5418809
  heat_capacity:     147.7007244
  energy:            141.0203642

- temperature:       940.0000000
  free_energy:      -168.7569171
  entropy:           331.1218025
  heat_capacity:     147.7416574
  energy:            142.4975772

- temperature:       950.0000000
  free_energy:      -172.0759667
  entropy:           332.6854315
  heat_capacity:     147.7813257
  energy:            143.9751932

- temperature:       960.0000000
  free_energy:      -175.4105725
  entropy:           334.2330961
  heat_capacity:     147.8197807
  energy:            145.4531997

- temperature:       970.0000000
  free_energy:      -178.7605765
  entropy:           335.7651148
  heat_capacity:     147.8570712
  energy:            146.9315849

- temperature:       980.0000000
  free_energy:      -182.1258237
  entropy:           337.2817970
  heat_capacity:     147.8932434
  energy:            148.4103374

- temperature:       990.0000000
  free_energy:      -185.5061623
  entropy:           338.7834429
  heat_capacity:     147.9283416
  energy:            149.8894462

- temperature:      1000.0000000
  free_energy:      -188.9014434
  entropy:           340.2703442
  heat_capacity:     147.9624077
  energy:            151.3689008
