# Tetrahedron method
       -2.5108055088        0.0000000000
       -2.4281721446        0.0000000000
       -2.3455387804        0.0000000000
       -2.2629054163        0.0000000000
       -2.1802720521        0.0000000000
       -2.0976386880        0.0000000000
       -2.0150053238        0.0000000000
       -1.9323719597        0.0000000000
       -1.8497385955        0.0000000000
       -1.7671052313        0.0000000000
       -1.6844718672        0.0000000000
       -1.6018385030        0.0000000000
       -1.5192051389        0.0000000000
       -1.4365717747        0.0000000000
       -1.3539384106        0.0000000000
       -1.2713050464        0.0000000000
       -1.1886716822        0.0000000000
       -1.1060383181        0.9780579964
       -1.0234049539        1.0380599478
       -0.9407715898        1.1387476940
       -0.8581382256        1.4963167738
       -0.7755048615        4.4729017089
       -0.6928714973        2.1978349040
       -0.6102381331        1.5020279458
       -0.5276047690        1.1843598275
       -0.4449714048        1.0431025673
       -0.3623380407        0.6166687977
       -0.2797046765        0.3639076066
       -0.1970713124        0.3002175657
       -0.1144379482        0.2760867199
       -0.0318045840        0.2687928667
        0.0508287801        0.2684586130
        0.1334621443        0.2996388972
        0.2160955084        0.4047664751
        0.2987288726        0.6558609693
        0.3813622367        1.1392960269
        0.4639956009        1.0079553324
        0.5466289651        0.9264043229
        0.6292623292        1.0852297988
        0.7118956934        1.8671298414
        0.7945290575        2.8395467326
        0.8771624217        1.5574390934
        0.9597957858        9.7061877644
        1.0424291500        2.2209757015
        1.1250625142       10.3028649801
        1.2076958783        5.2714516105
        1.2903292425        7.3086123085
        1.3729626066        6.3303772698
        1.4555959708        6.3679547314
        1.5382293350        2.5349960216
        1.6208626991        3.3986214448
        1.7034960633        6.6666296292
        1.7861294274        7.5096411529
        1.8687627916        2.3493432411
        1.9513961557        4.2400770551
        2.0340295199        3.4435561892
        2.1166628841        3.3419771469
        2.1992962482        2.3091531216
        2.2819296124        1.8785049391
        2.3645629765        1.5812721362
        2.4471963407        1.4005487490
        2.5298297048        1.2529508625
        2.6124630690        1.1619188035
        2.6950964332        1.7879291267
        2.7777297973        4.9211852367
        2.8603631615        4.3544479927
        2.9429965256        1.6835465650
        3.0256298898        6.0628873578
        3.1082632539        2.1062466473
        3.1908966181        1.1704445855
        3.2735299823        0.8331295400
        3.3561633464        2.7809223346
        3.4387967106        7.5049273124
        3.5214300747       18.4089810754
        3.6040634389        1.1261750028
        3.6866968030        0.7309150457
        3.7693301672        0.7462497620
        3.8519635314        0.9304758000
        3.9345968955        1.8027296660
        4.0172302597        8.7610062879
        4.0998636238       12.7493035725
        4.1824969880        2.0223541119
        4.2651303521        0.0000000000
        4.3477637163        0.0000000000
        4.4303970805        0.0000000000
        4.5130304446        0.0000000000
        4.5956638088        0.0000000000
        4.6782971729        0.0000000000
        4.7609305371        0.0000000000
        4.8435639012        0.0000000000
        4.9261972654        0.0000000000
        5.0088306296        0.0000000000
        5.0914639937        0.0000000000
        5.1740973579        0.0000000000
        5.2567307220        0.0000000000
        5.3393640862        2.7279012139
        5.4219974503        3.0033386798
        5.5046308145        1.9611993010
        5.5872641787        3.9489021289
        5.6698975428        7.9648799459
        5.7525309070        4.2663833392
        5.8351642711        0.0000000000
        5.9177976353        0.0000000000
        6.0004309994        0.0000000000
        6.0830643636        0.0000000000
        6.1656977278       13.7066486216
        6.2483310919        5.6740409222
        6.3309644561        1.6771085588
        6.4135978202        0.0000000000
        6.4962311844        7.3271710553
        6.5788645485        7.8446052325
        6.6614979127        0.0000000000
        6.7441312769        0.0000000000
        6.8267646410        3.7287392223
        6.9093980052        4.8044711978
        6.9920313693        3.5888916131
        7.0746647335        0.0000000000
        7.1572980976        0.0000000000
        7.2399314618        0.0000000000
        7.3225648260        0.0000000000
        7.4051981901        1.7017169772
        7.4878315543        2.5742940759
        7.5704649184        2.6590947671
        7.6530982826        1.7525904042
        7.7357316467        1.3216036905
        7.8183650109        0.9997269310
        7.9009983751        2.6820872003
        7.9836317392        0.6831581740
        8.0662651034        0.5520784206
        8.1488984675        1.7071629948
        8.2315318317        1.8089058327
        8.3141651958        2.0754658772
        8.3967985600        2.4568880710
        8.4794319242        1.4147254986
        8.5620652883        2.3093123702
        8.6446986525        4.0231125402
        8.7273320166        5.1458498044
        8.8099653808        6.7328312241
        8.8925987450        3.8165809705
        8.9752321091        0.8833576836
        9.0578654733        1.7242682371
        9.1404988374       10.6704140692
        9.2231322016        1.7330875251
        9.3057655657        0.6896492079
        9.3883989299        0.4185246409
        9.4710322941        0.3348197984
        9.5536656582        2.0113884789
        9.6362990224        3.2248989359
        9.7189323865        2.3946479310
        9.8015657507        1.4508948927
        9.8841991148        0.6736180141
        9.9668324790        0.5479070209
       10.0494658432        1.7108262362
       10.1320992073        6.1954779648
       10.2147325715        2.6530739937
       10.2973659356        2.5387547634
       10.3799992998        3.7373465321
       10.4626326639        6.1862046155
       10.5452660281        4.2997326211
       10.6278993923        1.2781053043
       10.7105327564        1.7971353891
       10.7931661206        2.3862942118
       10.8757994847        2.0520058275
       10.9584328489        1.9342669315
       11.0410662130        1.7813341603
       11.1236995772        1.8532758766
       11.2063329414        1.9282806785
       11.2889663055        2.5611042203
       11.3715996697        1.8548244108
       11.4542330338        3.9599187724
       11.5368663980        4.9374037269
       11.6194997621        6.9238478110
       11.7021331263        2.9721352968
       11.7847664905        2.2798402026
       11.8673998546        2.2508646200
       11.9500332188        2.6758883826
       12.0326665829        3.6222657913
       12.1152999471        3.5448354200
       12.1979333112        4.5630504567
       12.2805666754        7.4242980422
       12.3632000396        1.9630602121
       12.4458334037        1.4790750463
       12.5284667679        1.2626475506
       12.6111001320        1.1436272429
       12.6937334962        0.0000000000
       12.7763668603        0.0000000000
       12.8590002245        0.0000000000
       12.9416335887        0.0000000000
       13.0242669528        0.0000000000
       13.1069003170        0.0000000000
       13.1895336811        0.0000000000
       13.2721670453        0.0000000000
       13.3548004094        0.0000000000
       13.4374337736        0.0000000000
       13.5200671378        0.0000000000
       13.6027005019        0.0000000000
       13.6853338661        0.0000000000
       13.7679672302        0.0000000000
       13.8506005944        0.0000000000
       13.9332339585        0.0000000000
       14.0158673227        0.0000000000
