phonopy:
  version: "2.37.1"
  frequency_unit_conversion_factor: 15.633302
  symmetry_tolerance: 1.00000e-05

space_group:
  type: "P1"
  number: 1
  Hall_symbol: "P 1"

primitive_matrix:
- [ -1.000000000000000, -0.000000000000000,  0.000000000000000 ]
- [  0.000000000000000, -0.000000000000000,  1.000000000000000 ]
- [  0.000000000000000,  1.000000000000000,  0.000000000000000 ]

supercell_matrix:
- [   2,   0,   0 ]
- [   0,   2,   0 ]
- [   0,   0,   2 ]

primitive_cell:
  lattice:
  - [    -6.505448740588556,     0.000000000000000,     0.000000000000000 ] # a
  - [    -0.000435485954624,     0.009355390627284,     6.761233708659975 ] # b
  - [    -0.012219173228005,     6.761913740796749,     0.000000000000000 ] # c
  points:
  - symbol: Sn # 1
    coordinates: [  0.326592685810081,  0.592811352837233,  0.434685708737926 ]
    mass: 118.710000
  - symbol: Sn # 2
    coordinates: [  0.623255530756574,  0.928077203571241,  0.600221241912915 ]
    mass: 118.710000
  - symbol: Sn # 3
    coordinates: [  0.622651018335336,  0.756939001140124,  0.097996559699043 ]
    mass: 118.710000
  - symbol: Sn # 4
    coordinates: [  0.030795921748002,  0.257029931601614,  0.600805999920478 ]
    mass: 118.710000
  - symbol: Sn # 5
    coordinates: [  0.622236924928811,  0.256568930019076,  0.269162924326300 ]
    mass: 118.710000
  - symbol: Sn # 6
    coordinates: [  0.031805801397020,  0.757488169407607,  0.771506121112921 ]
    mass: 118.710000
  - symbol: Sn # 7
    coordinates: [  0.622735612472011,  0.427325994601837,  0.769932609239548 ]
    mass: 118.710000
  - symbol: Sn # 8
    coordinates: [  0.031286144886752,  0.427101879590902,  0.100846206508978 ]
    mass: 118.710000
  - symbol: Sn # 9
    coordinates: [  0.326857949411263,  0.092730330087395,  0.934999816607495 ]
    mass: 118.710000
  - symbol: Sn # 10
    coordinates: [  0.029869201273627,  0.928348800603563,  0.270788724253561 ]
    mass: 118.710000
  reciprocal_lattice: # without 2pi
  - [    -0.153717297587918,    -0.000277776138438,    -0.000009516461429 ] # a*
  - [    -0.000000000000000,     0.000000000000000,     0.147902001778044 ] # b*
  - [    -0.000000000000000,     0.147887127569624,    -0.000204628608739 ] # c*

unit_cell:
  lattice:
  - [     6.505448740588554,     0.000000000000000,     0.000000000000000 ] # a
  - [    -0.012219173228005,     6.761913740796749,     0.000000000000000 ] # b
  - [    -0.000435485954624,     0.009355390627284,     6.761233708659973 ] # c
  points:
  - symbol: Sn # 1
    coordinates: [  0.673407314189919,  0.434685708737926,  0.592811352837233 ]
    mass: 118.710000
    reduced_to: 1
  - symbol: Sn # 2
    coordinates: [  0.376744469243426,  0.600221241912915,  0.928077203571241 ]
    mass: 118.710000
    reduced_to: 2
  - symbol: Sn # 3
    coordinates: [  0.377348981664665,  0.097996559699043,  0.756939001140124 ]
    mass: 118.710000
    reduced_to: 3
  - symbol: Sn # 4
    coordinates: [  0.969204078251998,  0.600805999920478,  0.257029931601614 ]
    mass: 118.710000
    reduced_to: 4
  - symbol: Sn # 5
    coordinates: [  0.377763075071189,  0.269162924326300,  0.256568930019076 ]
    mass: 118.710000
    reduced_to: 5
  - symbol: Sn # 6
    coordinates: [  0.968194198602980,  0.771506121112921,  0.757488169407608 ]
    mass: 118.710000
    reduced_to: 6
  - symbol: Sn # 7
    coordinates: [  0.377264387527989,  0.769932609239548,  0.427325994601837 ]
    mass: 118.710000
    reduced_to: 7
  - symbol: Sn # 8
    coordinates: [  0.968713855113248,  0.100846206508978,  0.427101879590902 ]
    mass: 118.710000
    reduced_to: 8
  - symbol: Sn # 9
    coordinates: [  0.673142050588737,  0.934999816607495,  0.092730330087395 ]
    mass: 118.710000
    reduced_to: 9
  - symbol: Sn # 10
    coordinates: [  0.970130798726373,  0.270788724253561,  0.928348800603563 ]
    mass: 118.710000
    reduced_to: 10

supercell:
  lattice:
  - [    13.010897481177109,     0.000000000000000,     0.000000000000000 ] # a
  - [    -0.024438346456011,    13.523827481593498,     0.000000000000000 ] # b
  - [    -0.000870971909247,     0.018710781254567,    13.522467417319946 ] # c
  points:
  - symbol: Sn # 1
    coordinates: [  0.336703657094960,  0.217342854368963,  0.296405676418617 ]
    mass: 118.710000
    reduced_to: 1
  - symbol: Sn # 2
    coordinates: [  0.836703657094960,  0.217342854368963,  0.296405676418617 ]
    mass: 118.710000
    reduced_to: 1
  - symbol: Sn # 3
    coordinates: [  0.336703657094960,  0.717342854368963,  0.296405676418617 ]
    mass: 118.710000
    reduced_to: 1
  - symbol: Sn # 4
    coordinates: [  0.836703657094960,  0.717342854368963,  0.296405676418617 ]
    mass: 118.710000
    reduced_to: 1
  - symbol: Sn # 5
    coordinates: [  0.336703657094960,  0.217342854368963,  0.796405676418617 ]
    mass: 118.710000
    reduced_to: 1
  - symbol: Sn # 6
    coordinates: [  0.836703657094960,  0.217342854368963,  0.796405676418617 ]
    mass: 118.710000
    reduced_to: 1
  - symbol: Sn # 7
    coordinates: [  0.336703657094960,  0.717342854368963,  0.796405676418617 ]
    mass: 118.710000
    reduced_to: 1
  - symbol: Sn # 8
    coordinates: [  0.836703657094960,  0.717342854368963,  0.796405676418617 ]
    mass: 118.710000
    reduced_to: 1
  - symbol: Sn # 9
    coordinates: [  0.188372234621713,  0.300110620956457,  0.464038601785621 ]
    mass: 118.710000
    reduced_to: 9
  - symbol: Sn # 10
    coordinates: [  0.688372234621713,  0.300110620956457,  0.464038601785621 ]
    mass: 118.710000
    reduced_to: 9
  - symbol: Sn # 11
    coordinates: [  0.188372234621713,  0.800110620956457,  0.464038601785621 ]
    mass: 118.710000
    reduced_to: 9
  - symbol: Sn # 12
    coordinates: [  0.688372234621713,  0.800110620956457,  0.464038601785621 ]
    mass: 118.710000
    reduced_to: 9
  - symbol: Sn # 13
    coordinates: [  0.188372234621713,  0.300110620956457,  0.964038601785621 ]
    mass: 118.710000
    reduced_to: 9
  - symbol: Sn # 14
    coordinates: [  0.688372234621713,  0.300110620956457,  0.964038601785621 ]
    mass: 118.710000
    reduced_to: 9
  - symbol: Sn # 15
    coordinates: [  0.188372234621713,  0.800110620956457,  0.964038601785621 ]
    mass: 118.710000
    reduced_to: 9
  - symbol: Sn # 16
    coordinates: [  0.688372234621713,  0.800110620956457,  0.964038601785621 ]
    mass: 118.710000
    reduced_to: 9
  - symbol: Sn # 17
    coordinates: [  0.188674490832332,  0.048998279849522,  0.378469500570062 ]
    mass: 118.710000
    reduced_to: 17
  - symbol: Sn # 18
    coordinates: [  0.688674490832332,  0.048998279849522,  0.378469500570062 ]
    mass: 118.710000
    reduced_to: 17
  - symbol: Sn # 19
    coordinates: [  0.188674490832332,  0.548998279849522,  0.378469500570062 ]
    mass: 118.710000
    reduced_to: 17
  - symbol: Sn # 20
    coordinates: [  0.688674490832332,  0.548998279849522,  0.378469500570062 ]
    mass: 118.710000
    reduced_to: 17
  - symbol: Sn # 21
    coordinates: [  0.188674490832332,  0.048998279849522,  0.878469500570062 ]
    mass: 118.710000
    reduced_to: 17
  - symbol: Sn # 22
    coordinates: [  0.688674490832332,  0.048998279849522,  0.878469500570062 ]
    mass: 118.710000
    reduced_to: 17
  - symbol: Sn # 23
    coordinates: [  0.188674490832332,  0.548998279849522,  0.878469500570062 ]
    mass: 118.710000
    reduced_to: 17
  - symbol: Sn # 24
    coordinates: [  0.688674490832332,  0.548998279849522,  0.878469500570062 ]
    mass: 118.710000
    reduced_to: 17
  - symbol: Sn # 25
    coordinates: [  0.484602039125999,  0.300402999960239,  0.128514965800807 ]
    mass: 118.710000
    reduced_to: 25
  - symbol: Sn # 26
    coordinates: [  0.984602039125999,  0.300402999960239,  0.128514965800807 ]
    mass: 118.710000
    reduced_to: 25
  - symbol: Sn # 27
    coordinates: [  0.484602039125999,  0.800402999960239,  0.128514965800807 ]
    mass: 118.710000
    reduced_to: 25
  - symbol: Sn # 28
    coordinates: [  0.984602039125999,  0.800402999960239,  0.128514965800807 ]
    mass: 118.710000
    reduced_to: 25
  - symbol: Sn # 29
    coordinates: [  0.484602039125999,  0.300402999960239,  0.628514965800807 ]
    mass: 118.710000
    reduced_to: 25
  - symbol: Sn # 30
    coordinates: [  0.984602039125999,  0.300402999960239,  0.628514965800807 ]
    mass: 118.710000
    reduced_to: 25
  - symbol: Sn # 31
    coordinates: [  0.484602039125999,  0.800402999960239,  0.628514965800807 ]
    mass: 118.710000
    reduced_to: 25
  - symbol: Sn # 32
    coordinates: [  0.984602039125999,  0.800402999960239,  0.628514965800807 ]
    mass: 118.710000
    reduced_to: 25
  - symbol: Sn # 33
    coordinates: [  0.188881537535595,  0.134581462163150,  0.128284465009538 ]
    mass: 118.710000
    reduced_to: 33
  - symbol: Sn # 34
    coordinates: [  0.688881537535595,  0.134581462163150,  0.128284465009538 ]
    mass: 118.710000
    reduced_to: 33
  - symbol: Sn # 35
    coordinates: [  0.188881537535595,  0.634581462163150,  0.128284465009538 ]
    mass: 118.710000
    reduced_to: 33
  - symbol: Sn # 36
    coordinates: [  0.688881537535595,  0.634581462163150,  0.128284465009538 ]
    mass: 118.710000
    reduced_to: 33
  - symbol: Sn # 37
    coordinates: [  0.188881537535595,  0.134581462163150,  0.628284465009538 ]
    mass: 118.710000
    reduced_to: 33
  - symbol: Sn # 38
    coordinates: [  0.688881537535595,  0.134581462163150,  0.628284465009538 ]
    mass: 118.710000
    reduced_to: 33
  - symbol: Sn # 39
    coordinates: [  0.188881537535595,  0.634581462163150,  0.628284465009538 ]
    mass: 118.710000
    reduced_to: 33
  - symbol: Sn # 40
    coordinates: [  0.688881537535595,  0.634581462163150,  0.628284465009538 ]
    mass: 118.710000
    reduced_to: 33
  - symbol: Sn # 41
    coordinates: [  0.484097099301490,  0.385753060556461,  0.378744084703804 ]
    mass: 118.710000
    reduced_to: 41
  - symbol: Sn # 42
    coordinates: [  0.984097099301490,  0.385753060556461,  0.378744084703804 ]
    mass: 118.710000
    reduced_to: 41
  - symbol: Sn # 43
    coordinates: [  0.484097099301490,  0.885753060556461,  0.378744084703804 ]
    mass: 118.710000
    reduced_to: 41
  - symbol: Sn # 44
    coordinates: [  0.984097099301490,  0.885753060556461,  0.378744084703804 ]
    mass: 118.710000
    reduced_to: 41
  - symbol: Sn # 45
    coordinates: [  0.484097099301490,  0.385753060556461,  0.878744084703804 ]
    mass: 118.710000
    reduced_to: 41
  - symbol: Sn # 46
    coordinates: [  0.984097099301490,  0.385753060556461,  0.878744084703804 ]
    mass: 118.710000
    reduced_to: 41
  - symbol: Sn # 47
    coordinates: [  0.484097099301490,  0.885753060556461,  0.878744084703804 ]
    mass: 118.710000
    reduced_to: 41
  - symbol: Sn # 48
    coordinates: [  0.984097099301490,  0.885753060556461,  0.878744084703804 ]
    mass: 118.710000
    reduced_to: 41
  - symbol: Sn # 49
    coordinates: [  0.188632193763995,  0.384966304619774,  0.213662997300919 ]
    mass: 118.710000
    reduced_to: 49
  - symbol: Sn # 50
    coordinates: [  0.688632193763995,  0.384966304619774,  0.213662997300919 ]
    mass: 118.710000
    reduced_to: 49
  - symbol: Sn # 51
    coordinates: [  0.188632193763995,  0.884966304619774,  0.213662997300919 ]
    mass: 118.710000
    reduced_to: 49
  - symbol: Sn # 52
    coordinates: [  0.688632193763995,  0.884966304619774,  0.213662997300919 ]
    mass: 118.710000
    reduced_to: 49
  - symbol: Sn # 53
    coordinates: [  0.188632193763995,  0.384966304619774,  0.713662997300919 ]
    mass: 118.710000
    reduced_to: 49
  - symbol: Sn # 54
    coordinates: [  0.688632193763995,  0.384966304619774,  0.713662997300919 ]
    mass: 118.710000
    reduced_to: 49
  - symbol: Sn # 55
    coordinates: [  0.188632193763995,  0.884966304619774,  0.713662997300919 ]
    mass: 118.710000
    reduced_to: 49
  - symbol: Sn # 56
    coordinates: [  0.688632193763995,  0.884966304619774,  0.713662997300919 ]
    mass: 118.710000
    reduced_to: 49
  - symbol: Sn # 57
    coordinates: [  0.484356927556624,  0.050423103254489,  0.213550939795451 ]
    mass: 118.710000
    reduced_to: 57
  - symbol: Sn # 58
    coordinates: [  0.984356927556624,  0.050423103254489,  0.213550939795451 ]
    mass: 118.710000
    reduced_to: 57
  - symbol: Sn # 59
    coordinates: [  0.484356927556624,  0.550423103254489,  0.213550939795451 ]
    mass: 118.710000
    reduced_to: 57
  - symbol: Sn # 60
    coordinates: [  0.984356927556624,  0.550423103254489,  0.213550939795451 ]
    mass: 118.710000
    reduced_to: 57
  - symbol: Sn # 61
    coordinates: [  0.484356927556624,  0.050423103254489,  0.713550939795451 ]
    mass: 118.710000
    reduced_to: 57
  - symbol: Sn # 62
    coordinates: [  0.984356927556624,  0.050423103254489,  0.713550939795451 ]
    mass: 118.710000
    reduced_to: 57
  - symbol: Sn # 63
    coordinates: [  0.484356927556624,  0.550423103254489,  0.713550939795451 ]
    mass: 118.710000
    reduced_to: 57
  - symbol: Sn # 64
    coordinates: [  0.984356927556624,  0.550423103254489,  0.713550939795451 ]
    mass: 118.710000
    reduced_to: 57
  - symbol: Sn # 65
    coordinates: [  0.336571025294369,  0.467499908303748,  0.046365165043697 ]
    mass: 118.710000
    reduced_to: 65
  - symbol: Sn # 66
    coordinates: [  0.836571025294369,  0.467499908303748,  0.046365165043697 ]
    mass: 118.710000
    reduced_to: 65
  - symbol: Sn # 67
    coordinates: [  0.336571025294369,  0.967499908303748,  0.046365165043697 ]
    mass: 118.710000
    reduced_to: 65
  - symbol: Sn # 68
    coordinates: [  0.836571025294369,  0.967499908303748,  0.046365165043697 ]
    mass: 118.710000
    reduced_to: 65
  - symbol: Sn # 69
    coordinates: [  0.336571025294369,  0.467499908303748,  0.546365165043697 ]
    mass: 118.710000
    reduced_to: 65
  - symbol: Sn # 70
    coordinates: [  0.836571025294369,  0.467499908303748,  0.546365165043697 ]
    mass: 118.710000
    reduced_to: 65
  - symbol: Sn # 71
    coordinates: [  0.336571025294369,  0.967499908303748,  0.546365165043697 ]
    mass: 118.710000
    reduced_to: 65
  - symbol: Sn # 72
    coordinates: [  0.836571025294369,  0.967499908303748,  0.546365165043697 ]
    mass: 118.710000
    reduced_to: 65
  - symbol: Sn # 73
    coordinates: [  0.485065399363186,  0.135394362126780,  0.464174400301781 ]
    mass: 118.710000
    reduced_to: 73
  - symbol: Sn # 74
    coordinates: [  0.985065399363186,  0.135394362126780,  0.464174400301781 ]
    mass: 118.710000
    reduced_to: 73
  - symbol: Sn # 75
    coordinates: [  0.485065399363186,  0.635394362126780,  0.464174400301781 ]
    mass: 118.710000
    reduced_to: 73
  - symbol: Sn # 76
    coordinates: [  0.985065399363186,  0.635394362126780,  0.464174400301781 ]
    mass: 118.710000
    reduced_to: 73
  - symbol: Sn # 77
    coordinates: [  0.485065399363186,  0.135394362126780,  0.964174400301781 ]
    mass: 118.710000
    reduced_to: 73
  - symbol: Sn # 78
    coordinates: [  0.985065399363186,  0.135394362126780,  0.964174400301781 ]
    mass: 118.710000
    reduced_to: 73
  - symbol: Sn # 79
    coordinates: [  0.485065399363186,  0.635394362126780,  0.964174400301781 ]
    mass: 118.710000
    reduced_to: 73
  - symbol: Sn # 80
    coordinates: [  0.985065399363186,  0.635394362126780,  0.964174400301781 ]
    mass: 118.710000
    reduced_to: 73

displacements:
- atom:    1
  displacement:
    [   0.0100000000000000,  0.0000000000000000,  0.0000000000000000 ]
  forces:
  - [  -0.0270064100623131,  0.0030938251875341,  0.0002168663777411 ]
  - [  -0.0081187151372433,  0.0031628403812647,  0.0002296213060617 ]
  - [  -0.0075640771538019,  0.0031674383208156,  0.0002292990684509 ]
  - [  -0.0079824570566416,  0.0031744493171573,  0.0002294667065144 ]
  - [  -0.0075743440538645,  0.0031690290197730,  0.0002328599803150 ]
  - [  -0.0079859225079417,  0.0031685335561633,  0.0002347230911255 ]
  - [  -0.0078010139986873,  0.0031650038436055,  0.0002331547439098 ]
  - [  -0.0078005148097873,  0.0031632212921977,  0.0002316860482097 ]
  - [   0.0199124068021774, -0.0161801315844059, -0.0083774402737617 ]
  - [   0.0175368171185255, -0.0139821190387011, -0.0044034710153937 ]
  - [   0.0177631415426731, -0.0140464641153812, -0.0044671408832073 ]
  - [   0.0177408643066883, -0.0141765512526035, -0.0044156415387988 ]
  - [   0.0177613589912653, -0.0139004187658429, -0.0043521178886294 ]
  - [   0.0180884320288897, -0.0142095610499382, -0.0046862531453371 ]
  - [   0.0177314151078463, -0.0141816250979900, -0.0044173616915941 ]
  - [   0.0177577566355467, -0.0141489356756210, -0.0043459003791213 ]
  - [   0.0158749613910913,  0.0076690865680575, -0.0121160987764597 ]
  - [   0.0134501755237579,  0.0036105634644628, -0.0098214531317353 ]
  - [   0.0136704705655575,  0.0035646548494697, -0.0097548197954893 ]
  - [   0.0140074342489243,  0.0038884077221155, -0.0100638214498758 ]
  - [   0.0136723592877388,  0.0036685587838292, -0.0099041461944580 ]
  - [   0.0136487018316984,  0.0036171199753881, -0.0100329965353012 ]
  - [   0.0136373434215784,  0.0036220885813236, -0.0100360037758946 ]
  - [   0.0136647336184978,  0.0035495785996318, -0.0100036570802331 ]
  - [  -0.0153974071145058, -0.0063508478924632, -0.0046072239056230 ]
  - [  -0.0178977679461241, -0.0087971221655607, -0.0003941394388676 ]
  - [  -0.0176773760467768, -0.0086964759975672, -0.0004476113244891 ]
  - [  -0.0177041273564100, -0.0085633434355259, -0.0003957366570830 ]
  - [  -0.0176884215325117, -0.0088478699326515, -0.0003620199859142 ]
  - [  -0.0173693653196096, -0.0085386559367180, -0.0006619803607464 ]
  - [  -0.0177171062678099, -0.0085591711103916, -0.0003988472744823 ]
  - [  -0.0176895968616009, -0.0085921650752425, -0.0003267396241426 ]
  - [   0.0206264927983284,  0.0138728013262153,  0.0052379630506039 ]
  - [   0.0182512924075127,  0.0115714883431792,  0.0012308042496443 ]
  - [   0.0184750091284513,  0.0116851683706045,  0.0012787953019142 ]
  - [   0.0184482075273991,  0.0118036018684506,  0.0012291753664613 ]
  - [   0.0184703972190619,  0.0115320552140474,  0.0011753402650356 ]
  - [   0.0188139602541924,  0.0118340011686087,  0.0015154145658016 ]
  - [   0.0184355415403843,  0.0118089448660612,  0.0012341495603323 ]
  - [   0.0184639804065228,  0.0117757907137275,  0.0011628363281488 ]
  - [  -0.0121895167976618,  0.0067152092233300, -0.0102644469588995 ]
  - [  -0.0146472714841366,  0.0024384818971157, -0.0126595310866833 ]
  - [  -0.0144420415163040,  0.0024008797481656, -0.0127320140600204 ]
  - [  -0.0141035337001085,  0.0027192989364266, -0.0124216442927718 ]
  - [  -0.0144391991198063,  0.0024998942390084, -0.0125782303512096 ]
  - [  -0.0144592411816120,  0.0024440390989184, -0.0124484989792109 ]
  - [  -0.0144752934575081,  0.0024505881592631, -0.0124459415674210 ]
  - [  -0.0144470669329166,  0.0023795533925295, -0.0124778151512146 ]
  - [   0.0197719894349575, -0.0074673183262348,  0.0147714596241713 ]
  - [   0.0173401329666376, -0.0034795086830854,  0.0125050712376833 ]
  - [   0.0175512805581093, -0.0034341579303145,  0.0124416658654809 ]
  - [   0.0178720094263554, -0.0037492550909519,  0.0127571877092123 ]
  - [   0.0175659283995628, -0.0035335291177034,  0.0126105360686779 ]
  - [   0.0175370089709759, -0.0034844167530537,  0.0127293672412634 ]
  - [   0.0175234768539667, -0.0034847185015678,  0.0127312289550900 ]
  - [   0.0175498034805059, -0.0034129479900002,  0.0126997902989388 ]
  - [  -0.0127270016819239, -0.0083285095170140,  0.0101121859624982 ]
  - [  -0.0153343677520752, -0.0039839027449489,  0.0125513952225447 ]
  - [  -0.0151302907615900, -0.0039371438324451,  0.0126189934089780 ]
  - [  -0.0148254111409187, -0.0042422115802765,  0.0123085901141167 ]
  - [  -0.0151132363826036, -0.0040455786511302,  0.0124572617933154 ]
  - [  -0.0151399839669466, -0.0039947908371687,  0.0123294815421104 ]
  - [  -0.0151490066200495, -0.0039949072524905,  0.0123267415910959 ]
  - [  -0.0151225868612528, -0.0039208736270666,  0.0123577732592821 ]
  - [   0.0035944702103734,  0.0005606077611446,  0.0015539266169071 ]
  - [   0.0030016656965017,  0.0006239786744118,  0.0015850802883506 ]
  - [   0.0036021100822836,  0.0005808682180941,  0.0017220466397703 ]
  - [   0.0030041802674532,  0.0006269775331020,  0.0016714492812753 ]
  - [   0.0036117071285844,  0.0007499954663217,  0.0015226076357067 ]
  - [   0.0030165435746312,  0.0007152147591114,  0.0015815962105989 ]
  - [   0.0036040768027306,  0.0007702074944973,  0.0017059142701328 ]
  - [   0.0030121840536594,  0.0007178895175457,  0.0016669491305947 ]
  - [  -0.0132603943347931,  0.0063537899404764,  0.0034009674564004 ]
  - [  -0.0158120337873697,  0.0087100770324469, -0.0008661206811666 ]
  - [  -0.0155847426503897,  0.0086480174213648, -0.0008007027208805 ]
  - [  -0.0156090948730707,  0.0085056480020285, -0.0008540712296963 ]
  - [  -0.0155925769358873,  0.0087890643626451, -0.0009079650044441 ]
  - [  -0.0152721330523491,  0.0084791425615549, -0.0005954587832093 ]
  - [  -0.0156196914613247,  0.0085086300969124, -0.0008523007854819 ]
  - [  -0.0155915059149265,  0.0085389260202646, -0.0009240573272109 ]
- atom:    1
  displacement:
    [  -0.0100000000000000,  0.0000000000000000,  0.0000000000000000 ]
  forces:
  - [   0.0113705685362220,  0.0032413154840469,  0.0002454249188304 ]
  - [  -0.0075162174180150,  0.0031687142327428,  0.0002295840531588 ]
  - [  -0.0080626504495740,  0.0031647114083171,  0.0002292226999998 ]
  - [  -0.0076473355293274,  0.0031582573428750,  0.0002292506396770 ]
  - [  -0.0080710500478745,  0.0031708981841803,  0.0002321167849004 ]
  - [  -0.0076570734381676,  0.0031684376299381,  0.0002330373972654 ]
  - [  -0.0078381961211562,  0.0031642485409975,  0.0002325531095266 ]
  - [  -0.0078359739854932,  0.0031631197780371,  0.0002312883734703 ]
  - [   0.0155468881130219, -0.0120550049468875, -0.0002419613301754 ]
  - [   0.0179893989115953, -0.0143307764083147, -0.0043623950332403 ]
  - [   0.0177666619420052, -0.0142684411257505, -0.0042946180328727 ]
  - [   0.0177902728319168, -0.0141315776854753, -0.0043491357937455 ]
  - [   0.0177729800343513, -0.0144181428477168, -0.0044107753783464 ]
  - [   0.0174521785229445, -0.0141034722328186, -0.0040872916579247 ]
  - [   0.0178047064691782, -0.0141304321587086, -0.0043451739475131 ]
  - [   0.0177757889032364, -0.0141619378700852, -0.0044166939333081 ]
  - [   0.0114016458392143, -0.0006450014188886, -0.0078275343403220 ]
  - [   0.0138950683176517,  0.0035549765452743, -0.0101996762678027 ]
  - [   0.0136760845780373,  0.0035919938236475, -0.0102705974131823 ]
  - [   0.0133457966148853,  0.0032830657437444, -0.0099581116810441 ]
  - [   0.0136722922325134,  0.0034993011504412, -0.0101177915930748 ]
  - [   0.0136928874999285,  0.0035526324063540, -0.0099848927929997 ]
  - [   0.0137085970491171,  0.0035499799996614, -0.0099857896566391 ]
  - [   0.0136817246675491,  0.0036205872893333, -0.0100174238905311 ]
  - [  -0.0199012011289597, -0.0107380319386721,  0.0037296209484339 ]
  - [  -0.0174641571938992, -0.0083721028640866, -0.0003337748348713 ]
  - [  -0.0176854822784662, -0.0084804128855467, -0.0002777529880404 ]
  - [  -0.0176585316658020, -0.0086078215390444, -0.0003277258947492 ]
  - [  -0.0176754295825958, -0.0083243139088154, -0.0003753500059247 ]
  - [  -0.0179979689419270, -0.0086348215118051, -0.0000638784840703 ]
  - [  -0.0176455620676279, -0.0086096767336130, -0.0003270348533988 ]
  - [  -0.0176726058125496, -0.0085785603150725, -0.0003976617008448 ]
  - [   0.0162551458925009,  0.0096159214153886, -0.0029831035062671 ]
  - [   0.0186968445777893,  0.0119938179850578,  0.0011657811701298 ]
  - [   0.0184686575084925,  0.0118861822411418,  0.0011125765740871 ]
  - [   0.0184966623783112,  0.0117590324953198,  0.0011628726497293 ]
  - [   0.0184733830392361,  0.0120401717722416,  0.0012126360088587 ]
  - [   0.0181364845484495,  0.0117336343973875,  0.0008851513266563 ]
  - [   0.0185067430138588,  0.0117576504126191,  0.0011619748547673 ]
  - [   0.0184810943901539,  0.0117888692766428,  0.0012334985658526 ]
  - [  -0.0166160333901644, -0.0017411829903722, -0.0145956492051482 ]
  - [  -0.0142235532402992,  0.0023919278755784, -0.0122785009443760 ]
  - [  -0.0144324880093336,  0.0024385768920183, -0.0122133605182171 ]
  - [  -0.0147731192409992,  0.0021062232553959, -0.0125244436785579 ]
  - [  -0.0144373811781406,  0.0023300349712372, -0.0123670464381576 ]
  - [  -0.0144116226583719,  0.0023784730583429, -0.0124959815293550 ]
  - [  -0.0144039262086153,  0.0023777736350894, -0.0124970618635416 ]
  - [  -0.0144308097660542,  0.0024501699954271, -0.0124639347195625 ]
  - [   0.0152741614729166,  0.0007131788879633,  0.0105669721961021 ]
  - [   0.0177836604416370, -0.0034190565347672,  0.0129094412550330 ]
  - [   0.0175695866346359, -0.0034583127126098,  0.0129792643710971 ]
  - [   0.0172534491866827, -0.0031547248363495,  0.0126617327332497 ]
  - [   0.0175599344074726, -0.0033693285658956,  0.0128102805465460 ]
  - [   0.0175821725279093, -0.0034166201949120,  0.0126858316361904 ]
  - [   0.0175949968397617, -0.0034116636961699,  0.0126812430098653 ]
  - [   0.0175673272460699, -0.0034835115075111,  0.0127140441909432 ]
  - [  -0.0174351520836353,  0.0002609873190522,  0.0145185021683574 ]
  - [  -0.0148995257914066, -0.0039339624345303,  0.0121630942448974 ]
  - [  -0.0151082817465067, -0.0039829378947616,  0.0120914932340384 ]
  - [  -0.0154179278761148, -0.0036669177934527,  0.0123997647315264 ]
  - [  -0.0151142980903387, -0.0038773100823164,  0.0122479218989611 ]
  - [  -0.0150897279381752, -0.0039251111447811,  0.0123722162097692 ]
  - [  -0.0150767881423235, -0.0039221057668328,  0.0123761426657438 ]
  - [  -0.0151058230549097, -0.0039909938350320,  0.0123439840972424 ]
  - [   0.0027409167960286,  0.0007637930102646,  0.0017147450707853 ]
  - [   0.0033231582492590,  0.0007141400128603,  0.0016765296459198 ]
  - [   0.0027229972183704,  0.0007712347432971,  0.0015360643155873 ]
  - [   0.0033201491460204,  0.0007147863507271,  0.0015772888436913 ]
  - [   0.0027236137539148,  0.0005749333649874,  0.0017191702499986 ]
  - [   0.0033214688301086,  0.0006251391023397,  0.0016679577529430 ]
  - [   0.0027333435136825,  0.0005850321613252,  0.0015317155048251 ]
  - [   0.0033216485753655,  0.0006273835897446,  0.0015818374231458 ]
  - [  -0.0178402923047543,  0.0106273116543889, -0.0050300005823374 ]
  - [  -0.0153573695570230,  0.0083504114300013, -0.0009080786257982 ]
  - [  -0.0155845731496811,  0.0084192631766200, -0.0009742267429829 ]
  - [  -0.0155634973198175,  0.0085520558059216, -0.0009206626564264 ]
  - [  -0.0155752189457417,  0.0082756290212274, -0.0008630026131868 ]
  - [  -0.0159035883843899,  0.0085855815559626, -0.0011887960135937 ]
  - [  -0.0155473295599222,  0.0085566369816661, -0.0009242165833712 ]
  - [  -0.0155733637511730,  0.0085260458290577, -0.0008527068421245 ]
- atom:    1
  displacement:
    [  -0.0000180705547953,  0.0099999836727391,  0.0000000000000000 ]
  forces:
  - [  -0.0078621935099363, -0.0134368408471346,  0.0003503491170704 ]
  - [  -0.0078196665272117,  0.0032184552401304,  0.0002271123230457 ]
  - [  -0.0078128799796104,  0.0028226384893060,  0.0002305377274752 ]
  - [  -0.0078065712004900,  0.0029496094211936,  0.0002289395779371 ]
  - [  -0.0078242719173431,  0.0033701322972775,  0.0002321326173842 ]
  - [  -0.0078211389482021,  0.0032081687822938,  0.0002331975847483 ]
  - [  -0.0078194020316005,  0.0031448593363166,  0.0002321396023035 ]
  - [  -0.0078182285651565,  0.0031795008108020,  0.0002313693985343 ]
  - [   0.0164859630167484, -0.0147813428193331, -0.0021344162523746 ]
  - [   0.0174472983926535, -0.0139010176062584, -0.0045347446575761 ]
  - [   0.0177445840090513, -0.0140050854533911, -0.0044494103640318 ]
  - [   0.0177533496171236, -0.0142271080985665, -0.0043356893584132 ]
  - [   0.0178472846746445, -0.0139317866414785, -0.0046543460339308 ]
  - [   0.0180740300565958, -0.0142100127413869, -0.0045991493389010 ]
  - [   0.0177726373076439, -0.0142013058066368, -0.0043375110253692 ]
  - [   0.0177835803478956, -0.0141659537330270, -0.0044097965583205 ]
  - [   0.0159598067402840,  0.0065423399209976, -0.0123634599149227 ]
  - [   0.0137221217155457,  0.0036027804017067, -0.0101541904732585 ]
  - [   0.0136582870036364,  0.0035931281745434, -0.0101151028648019 ]
  - [   0.0141860693693161,  0.0040615275502205, -0.0101026315242052 ]
  - [   0.0136542059481144,  0.0036335298791528, -0.0098881497979164 ]
  - [   0.0137396473437548,  0.0035642394796014, -0.0099951978772879 ]
  - [   0.0137067250907421,  0.0035015856847167, -0.0099403485655785 ]
  - [   0.0136665217578411,  0.0035673659294844, -0.0099949110299349 ]
  - [  -0.0163701623678207, -0.0092326495796442, -0.0026315357536077 ]
  - [  -0.0173515174537897, -0.0083274589851499, -0.0002065058797598 ]
  - [  -0.0176723022013903, -0.0084269493818283, -0.0002992246299982 ]
  - [  -0.0176698807626963, -0.0086579043418169, -0.0004093423485756 ]
  - [  -0.0177531912922859, -0.0083601484075189, -0.0001002782955766 ]
  - [  -0.0179745107889175, -0.0086363172158599, -0.0001560254022479 ]
  - [  -0.0176803413778543, -0.0086365081369877, -0.0004034647718072 ]
  - [  -0.0176975913345814, -0.0085952654480934, -0.0003336407244205 ]
  - [   0.0197562277317047,  0.0111422771587968,  0.0034193396568298 ]
  - [   0.0188017338514328,  0.0120336469262838,  0.0010413341224194 ]
  - [   0.0184899307787418,  0.0119257885962725,  0.0011320533230901 ]
  - [   0.0184841938316822,  0.0117093911394477,  0.0012432569637895 ]
  - [   0.0183959212154150,  0.0120095871388912,  0.0009248899295926 ]
  - [   0.0181643720716238,  0.0117310527712107,  0.0009820694103837 ]
  - [   0.0184713806957006,  0.0117330942302942,  0.0012387298047543 ]
  - [   0.0184559747576714,  0.0117721483111382,  0.0011693080887198 ]
  - [  -0.0119983945041895,  0.0055573256686330, -0.0099826334044337 ]