phonopy:
  version: "2.37.1"
  frequency_unit_conversion_factor: 15.633302
  symmetry_tolerance: 1.00000e-05

space_group:
  type: "P1"
  number: 1
  Hall_symbol: "P 1"

primitive_matrix:
- [ -0.000000000000000,  1.000000000000000, -0.000000000000000 ]
- [  1.000000000000000,  0.000000000000000, -0.000000000000000 ]
- [  0.000000000000000,  0.000000000000000, -1.000000000000000 ]

supercell_matrix:
- [   3,   0,   0 ]
- [   0,   3,   0 ]
- [   0,   0,   1 ]

primitive_cell:
  lattice:
  - [    -0.000002365261534,     3.369988169515366,     0.000000000000000 ] # a
  - [     4.404397636889540,     0.000000000000000,     0.000000000000000 ] # b
  - [    -0.000083996220718,    -0.002014019279693,   -18.323680194609658 ] # c
  points:
  - symbol: Li # 1
    coordinates: [  0.280604565349531,  0.565676433695308,  0.166034430198248 ]
    mass: 6.940000
  - symbol: Li # 2
    coordinates: [  0.780246468032345,  0.065326148718611,  0.740528214617985 ]
    mass: 6.940000
  - symbol: Li # 3
    coordinates: [  0.280098436389582,  0.565427667031974,  0.991389328357620 ]
    mass: 6.940000
  - symbol: Li # 4
    coordinates: [  0.779921278839612,  0.065324217314047,  0.398536895003850 ]
    mass: 6.940000
  - symbol: Li # 5
    coordinates: [  0.780507618073870,  0.065559916596047,  0.078483693878958 ]
    mass: 6.940000
  - symbol: Li # 6
    coordinates: [  0.280037375963010,  0.565195974809518,  0.487368336976880 ]
    mass: 6.940000
  - symbol: Sn # 7
    coordinates: [  0.280144931157707,  0.565252256514425,  0.652407093479725 ]
    mass: 118.710000
  - symbol: Sn # 8
    coordinates: [  0.780005365555055,  0.065396283379014,  0.921672339176431 ]
    mass: 118.710000
  - symbol: Sn # 9
    coordinates: [  0.780116438334417,  0.065209629318533,  0.559737980989681 ]
    mass: 118.710000
  - symbol: Sn # 10
    coordinates: [  0.280411270402711,  0.565375390993192,  0.827621018958961 ]
    mass: 118.710000
  - symbol: Sn # 11
    coordinates: [  0.279772476167498,  0.565413413672372,  0.328621787532735 ]
    mass: 118.710000
  - symbol: Sn # 12
    coordinates: [  0.780705640195962,  0.065614289678837,  0.234024721753609 ]
    mass: 118.710000
  reciprocal_lattice: # without 2pi
  - [     0.000000000000000,     0.296736946748335,    -0.000032615387597 ] # a*
  - [     0.227045803408935,     0.000000159354478,    -0.000001040801310 ] # b*
  - [     0.000000000000000,     0.000000000000000,    -0.054574189757698 ] # c*

unit_cell:
  lattice:
  - [     4.404397636889540,     0.000000000000000,     0.000000000000000 ] # a
  - [    -0.000002365261534,     3.369988169515365,     0.000000000000000 ] # b
  - [     0.000083996220718,     0.002014019279693,    18.323680194609658 ] # c
  points:
  - symbol: Li # 1
    coordinates: [  0.565676433695308,  0.280604565349531,  0.833965569801752 ]
    mass: 6.940000
    reduced_to: 1
  - symbol: Li # 2
    coordinates: [  0.065326148718611,  0.780246468032345,  0.259471785382014 ]
    mass: 6.940000
    reduced_to: 2
  - symbol: Li # 3
    coordinates: [  0.565427667031974,  0.280098436389582,  0.008610671642380 ]
    mass: 6.940000
    reduced_to: 3
  - symbol: Li # 4
    coordinates: [  0.065324217314047,  0.779921278839612,  0.601463104996150 ]
    mass: 6.940000
    reduced_to: 4
  - symbol: Li # 5
    coordinates: [  0.065559916596047,  0.780507618073870,  0.921516306121042 ]
    mass: 6.940000
    reduced_to: 5
  - symbol: Li # 6
    coordinates: [  0.565195974809518,  0.280037375963010,  0.512631663023120 ]
    mass: 6.940000
    reduced_to: 6
  - symbol: Sn # 7
    coordinates: [  0.565252256514425,  0.280144931157707,  0.347592906520275 ]
    mass: 118.710000
    reduced_to: 7
  - symbol: Sn # 8
    coordinates: [  0.065396283379014,  0.780005365555055,  0.078327660823569 ]
    mass: 118.710000
    reduced_to: 8
  - symbol: Sn # 9
    coordinates: [  0.065209629318533,  0.780116438334417,  0.440262019010319 ]
    mass: 118.710000
    reduced_to: 9
  - symbol: Sn # 10
    coordinates: [  0.565375390993192,  0.280411270402711,  0.172378981041039 ]
    mass: 118.710000
    reduced_to: 10
  - symbol: Sn # 11
    coordinates: [  0.565413413672372,  0.279772476167498,  0.671378212467265 ]
    mass: 118.710000
    reduced_to: 11
  - symbol: Sn # 12
    coordinates: [  0.065614289678837,  0.780705640195962,  0.765975278246391 ]
    mass: 118.710000
    reduced_to: 12

supercell:
  lattice:
  - [    13.213192910668619,     0.000000000000000,     0.000000000000000 ] # a
  - [    -0.000007095784602,    10.109964508546096,     0.000000000000000 ] # b
  - [     0.000083996220718,     0.002014019279693,    18.323680194609658 ] # c
  points:
  - symbol: Li # 1
    coordinates: [  0.188558811231769,  0.093534855116510,  0.833965569801752 ]
    mass: 6.940000
    reduced_to: 1
  - symbol: Li # 2
    coordinates: [  0.521892144565103,  0.093534855116510,  0.833965569801752 ]
    mass: 6.940000
    reduced_to: 1
  - symbol: Li # 3
    coordinates: [  0.855225477898436,  0.093534855116510,  0.833965569801752 ]
    mass: 6.940000
    reduced_to: 1
  - symbol: Li # 4
    coordinates: [  0.188558811231769,  0.426868188449844,  0.833965569801752 ]
    mass: 6.940000
    reduced_to: 1
  - symbol: Li # 5
    coordinates: [  0.521892144565103,  0.426868188449844,  0.833965569801752 ]
    mass: 6.940000
    reduced_to: 1
  - symbol: Li # 6
    coordinates: [  0.855225477898436,  0.426868188449844,  0.833965569801752 ]
    mass: 6.940000
    reduced_to: 1
  - symbol: Li # 7
    coordinates: [  0.188558811231769,  0.760201521783177,  0.833965569801752 ]
    mass: 6.940000
    reduced_to: 1
  - symbol: Li # 8
    coordinates: [  0.521892144565103,  0.760201521783177,  0.833965569801752 ]
    mass: 6.940000
    reduced_to: 1
  - symbol: Li # 9
    coordinates: [  0.855225477898436,  0.760201521783177,  0.833965569801752 ]
    mass: 6.940000
    reduced_to: 1
  - symbol: Li # 10
    coordinates: [  0.021775382906204,  0.260082156010782,  0.259471785382014 ]
    mass: 6.940000
    reduced_to: 10
  - symbol: Li # 11
    coordinates: [  0.355108716239537,  0.260082156010782,  0.259471785382014 ]
    mass: 6.940000
    reduced_to: 10
  - symbol: Li # 12
    coordinates: [  0.688442049572870,  0.260082156010782,  0.259471785382014 ]
    mass: 6.940000
    reduced_to: 10
  - symbol: Li # 13
    coordinates: [  0.021775382906204,  0.593415489344115,  0.259471785382014 ]
    mass: 6.940000
    reduced_to: 10
  - symbol: Li # 14
    coordinates: [  0.355108716239537,  0.593415489344115,  0.259471785382014 ]
    mass: 6.940000
    reduced_to: 10
  - symbol: Li # 15
    coordinates: [  0.688442049572870,  0.593415489344115,  0.259471785382014 ]
    mass: 6.940000
    reduced_to: 10
  - symbol: Li # 16
    coordinates: [  0.021775382906204,  0.926748822677448,  0.259471785382014 ]
    mass: 6.940000
    reduced_to: 10
  - symbol: Li # 17
    coordinates: [  0.355108716239537,  0.926748822677448,  0.259471785382014 ]
    mass: 6.940000
    reduced_to: 10
  - symbol: Li # 18
    coordinates: [  0.688442049572870,  0.926748822677448,  0.259471785382014 ]
    mass: 6.940000
    reduced_to: 10
  - symbol: Li # 19
    coordinates: [  0.188475889010658,  0.093366145463194,  0.008610671642380 ]
    mass: 6.940000
    reduced_to: 19
  - symbol: Li # 20
    coordinates: [  0.521809222343991,  0.093366145463194,  0.008610671642380 ]
    mass: 6.940000
    reduced_to: 19
  - symbol: Li # 21
    coordinates: [  0.855142555677325,  0.093366145463194,  0.008610671642380 ]
    mass: 6.940000
    reduced_to: 19
  - symbol: Li # 22
    coordinates: [  0.188475889010658,  0.426699478796527,  0.008610671642380 ]
    mass: 6.940000
    reduced_to: 19
  - symbol: Li # 23
    coordinates: [  0.521809222343991,  0.426699478796527,  0.008610671642380 ]
    mass: 6.940000
    reduced_to: 19
  - symbol: Li # 24
    coordinates: [  0.855142555677325,  0.426699478796527,  0.008610671642380 ]
    mass: 6.940000
    reduced_to: 19
  - symbol: Li # 25
    coordinates: [  0.188475889010658,  0.760032812129861,  0.008610671642380 ]
    mass: 6.940000
    reduced_to: 19
  - symbol: Li # 26
    coordinates: [  0.521809222343991,  0.760032812129861,  0.008610671642380 ]
    mass: 6.940000
    reduced_to: 19
  - symbol: Li # 27
    coordinates: [  0.855142555677325,  0.760032812129861,  0.008610671642380 ]
    mass: 6.940000
    reduced_to: 19
  - symbol: Li # 28
    coordinates: [  0.021774739104682,  0.259973759613204,  0.601463104996150 ]
    mass: 6.940000
    reduced_to: 28
  - symbol: Li # 29
    coordinates: [  0.355108072438016,  0.259973759613204,  0.601463104996150 ]
    mass: 6.940000
    reduced_to: 28
  - symbol: Li # 30
    coordinates: [  0.688441405771349,  0.259973759613204,  0.601463104996150 ]
    mass: 6.940000
    reduced_to: 28
  - symbol: Li # 31
    coordinates: [  0.021774739104682,  0.593307092946537,  0.601463104996150 ]
    mass: 6.940000
    reduced_to: 28
  - symbol: Li # 32
    coordinates: [  0.355108072438016,  0.593307092946537,  0.601463104996150 ]
    mass: 6.940000
    reduced_to: 28
  - symbol: Li # 33
    coordinates: [  0.688441405771349,  0.593307092946537,  0.601463104996150 ]
    mass: 6.940000
    reduced_to: 28
  - symbol: Li # 34
    coordinates: [  0.021774739104682,  0.926640426279871,  0.601463104996150 ]
    mass: 6.940000
    reduced_to: 28
  - symbol: Li # 35
    coordinates: [  0.355108072438016,  0.926640426279871,  0.601463104996150 ]
    mass: 6.940000
    reduced_to: 28
  - symbol: Li # 36
    coordinates: [  0.688441405771349,  0.926640426279871,  0.601463104996150 ]
    mass: 6.940000
    reduced_to: 28
  - symbol: Li # 37
    coordinates: [  0.021853305532016,  0.260169206024623,  0.921516306121042 ]
    mass: 6.940000
    reduced_to: 37
  - symbol: Li # 38
    coordinates: [  0.355186638865349,  0.260169206024623,  0.921516306121042 ]
    mass: 6.940000
    reduced_to: 37
  - symbol: Li # 39
    coordinates: [  0.688519972198682,  0.260169206024623,  0.921516306121042 ]
    mass: 6.940000
    reduced_to: 37
  - symbol: Li # 40
    coordinates: [  0.021853305532016,  0.593502539357957,  0.921516306121042 ]
    mass: 6.940000
    reduced_to: 37
  - symbol: Li # 41
    coordinates: [  0.355186638865349,  0.593502539357957,  0.921516306121042 ]
    mass: 6.940000
    reduced_to: 37
  - symbol: Li # 42
    coordinates: [  0.688519972198682,  0.593502539357957,  0.921516306121042 ]
    mass: 6.940000
    reduced_to: 37
  - symbol: Li # 43
    coordinates: [  0.021853305532016,  0.926835872691290,  0.921516306121042 ]
    mass: 6.940000
    reduced_to: 37
  - symbol: Li # 44
    coordinates: [  0.355186638865349,  0.926835872691290,  0.921516306121042 ]
    mass: 6.940000
    reduced_to: 37
  - symbol: Li # 45
    coordinates: [  0.688519972198682,  0.926835872691290,  0.921516306121042 ]
    mass: 6.940000
    reduced_to: 37
  - symbol: Li # 46
    coordinates: [  0.188398658269839,  0.093345791987670,  0.512631663023120 ]
    mass: 6.940000
    reduced_to: 46
  - symbol: Li # 47
    coordinates: [  0.521731991603173,  0.093345791987670,  0.512631663023120 ]
    mass: 6.940000
    reduced_to: 46
  - symbol: Li # 48
    coordinates: [  0.855065324936506,  0.093345791987670,  0.512631663023120 ]
    mass: 6.940000
    reduced_to: 46
  - symbol: Li # 49
    coordinates: [  0.188398658269839,  0.426679125321003,  0.512631663023120 ]
    mass: 6.940000
    reduced_to: 46
  - symbol: Li # 50
    coordinates: [  0.521731991603173,  0.426679125321003,  0.512631663023120 ]
    mass: 6.940000
    reduced_to: 46
  - symbol: Li # 51
    coordinates: [  0.855065324936506,  0.426679125321003,  0.512631663023120 ]
    mass: 6.940000
    reduced_to: 46
  - symbol: Li # 52
    coordinates: [  0.188398658269839,  0.760012458654337,  0.512631663023120 ]
    mass: 6.940000
    reduced_to: 46
  - symbol: Li # 53
    coordinates: [  0.521731991603173,  0.760012458654337,  0.512631663023120 ]
    mass: 6.940000
    reduced_to: 46
  - symbol: Li # 54
    coordinates: [  0.855065324936506,  0.760012458654337,  0.512631663023120 ]
    mass: 6.940000
    reduced_to: 46
  - symbol: Sn # 55
    coordinates: [  0.188417418838142,  0.093381643719236,  0.347592906520275 ]
    mass: 118.710000
    reduced_to: 55
  - symbol: Sn # 56
    coordinates: [  0.521750752171475,  0.093381643719236,  0.347592906520275 ]
    mass: 118.710000
    reduced_to: 55
  - symbol: Sn # 57
    coordinates: [  0.855084085504808,  0.093381643719236,  0.347592906520275 ]
    mass: 118.710000
    reduced_to: 55
  - symbol: Sn # 58
    coordinates: [  0.188417418838142,  0.426714977052569,  0.347592906520275 ]
    mass: 118.710000
    reduced_to: 55
  - symbol: Sn # 59
    coordinates: [  0.521750752171475,  0.426714977052569,  0.347592906520275 ]
    mass: 118.710000
    reduced_to: 55
  - symbol: Sn # 60
    coordinates: [  0.855084085504808,  0.426714977052569,  0.347592906520275 ]
    mass: 118.710000
    reduced_to: 55
  - symbol: Sn # 61
    coordinates: [  0.188417418838142,  0.760048310385902,  0.347592906520275 ]
    mass: 118.710000
    reduced_to: 55
  - symbol: Sn # 62
    coordinates: [  0.521750752171475,  0.760048310385902,  0.347592906520275 ]
    mass: 118.710000
    reduced_to: 55
  - symbol: Sn # 63
    coordinates: [  0.855084085504808,  0.760048310385902,  0.347592906520275 ]
    mass: 118.710000
    reduced_to: 55
  - symbol: Sn # 64
    coordinates: [  0.021798761126338,  0.260001788518352,  0.078327660823569 ]
    mass: 118.710000
    reduced_to: 64
  - symbol: Sn # 65
    coordinates: [  0.355132094459671,  0.260001788518352,  0.078327660823569 ]
    mass: 118.710000
    reduced_to: 64
  - symbol: Sn # 66
    coordinates: [  0.688465427793005,  0.260001788518352,  0.078327660823569 ]
    mass: 118.710000
    reduced_to: 64
  - symbol: Sn # 67
    coordinates: [  0.021798761126338,  0.593335121851685,  0.078327660823569 ]
    mass: 118.710000
    reduced_to: 64
  - symbol: Sn # 68
    coordinates: [  0.355132094459671,  0.593335121851685,  0.078327660823569 ]
    mass: 118.710000
    reduced_to: 64
  - symbol: Sn # 69
    coordinates: [  0.688465427793005,  0.593335121851685,  0.078327660823569 ]
    mass: 118.710000
    reduced_to: 64
  - symbol: Sn # 70
    coordinates: [  0.021798761126338,  0.926668455185018,  0.078327660823569 ]
    mass: 118.710000
    reduced_to: 64
  - symbol: Sn # 71
    coordinates: [  0.355132094459671,  0.926668455185018,  0.078327660823569 ]
    mass: 118.710000
    reduced_to: 64
  - symbol: Sn # 72
    coordinates: [  0.688465427793005,  0.926668455185018,  0.078327660823569 ]
    mass: 118.710000
    reduced_to: 64
  - symbol: Sn # 73
    coordinates: [  0.021736543106178,  0.260038812778139,  0.440262019010319 ]
    mass: 118.710000
    reduced_to: 73
  - symbol: Sn # 74
    coordinates: [  0.355069876439511,  0.260038812778139,  0.440262019010319 ]
    mass: 118.710000
    reduced_to: 73
  - symbol: Sn # 75
    coordinates: [  0.688403209772844,  0.260038812778139,  0.440262019010319 ]
    mass: 118.710000
    reduced_to: 73
  - symbol: Sn # 76
    coordinates: [  0.021736543106178,  0.593372146111472,  0.440262019010319 ]
    mass: 118.710000
    reduced_to: 73
  - symbol: Sn # 77
    coordinates: [  0.355069876439511,  0.593372146111472,  0.440262019010319 ]
    mass: 118.710000
    reduced_to: 73
  - symbol: Sn # 78
    coordinates: [  0.688403209772844,  0.593372146111472,  0.440262019010319 ]
    mass: 118.710000
    reduced_to: 73
  - symbol: Sn # 79
    coordinates: [  0.021736543106178,  0.926705479444806,  0.440262019010319 ]
    mass: 118.710000
    reduced_to: 73
  - symbol: Sn # 80
    coordinates: [  0.355069876439511,  0.926705479444806,  0.440262019010319 ]
    mass: 118.710000
    reduced_to: 73
  - symbol: Sn # 81
    coordinates: [  0.688403209772844,  0.926705479444806,  0.440262019010319 ]
    mass: 118.710000
    reduced_to: 73
  - symbol: Sn # 82
    coordinates: [  0.188458463664397,  0.093470423467570,  0.172378981041039 ]
    mass: 118.710000
    reduced_to: 82
  - symbol: Sn # 83
    coordinates: [  0.521791796997730,  0.093470423467570,  0.172378981041039 ]
    mass: 118.710000
    reduced_to: 82
  - symbol: Sn # 84
    coordinates: [  0.855125130331064,  0.093470423467570,  0.172378981041039 ]
    mass: 118.710000
    reduced_to: 82
  - symbol: Sn # 85
    coordinates: [  0.188458463664397,  0.426803756800904,  0.172378981041039 ]
    mass: 118.710000
    reduced_to: 82
  - symbol: Sn # 86
    coordinates: [  0.521791796997730,  0.426803756800904,  0.172378981041039 ]
    mass: 118.710000
    reduced_to: 82
  - symbol: Sn # 87
    coordinates: [  0.855125130331064,  0.426803756800904,  0.172378981041039 ]
    mass: 118.710000
    reduced_to: 82
  - symbol: Sn # 88
    coordinates: [  0.188458463664397,  0.760137090134237,  0.172378981041039 ]
    mass: 118.710000
    reduced_to: 82
  - symbol: Sn # 89
    coordinates: [  0.521791796997730,  0.760137090134237,  0.172378981041039 ]
    mass: 118.710000
    reduced_to: 82
  - symbol: Sn # 90
    coordinates: [  0.855125130331064,  0.760137090134237,  0.172378981041039 ]
    mass: 118.710000
    reduced_to: 82
  - symbol: Sn # 91
    coordinates: [  0.188471137890791,  0.093257492055833,  0.671378212467265 ]
    mass: 118.710000
    reduced_to: 91
  - symbol: Sn # 92
    coordinates: [  0.521804471224124,  0.093257492055833,  0.671378212467265 ]
    mass: 118.710000
    reduced_to: 91
  - symbol: Sn # 93
    coordinates: [  0.855137804557457,  0.093257492055833,  0.671378212467265 ]
    mass: 118.710000
    reduced_to: 91
  - symbol: Sn # 94
    coordinates: [  0.188471137890791,  0.426590825389166,  0.671378212467265 ]
    mass: 118.710000
    reduced_to: 91
  - symbol: Sn # 95
    coordinates: [  0.521804471224124,  0.426590825389166,  0.671378212467265 ]
    mass: 118.710000
    reduced_to: 91
  - symbol: Sn # 96
    coordinates: [  0.855137804557457,  0.426590825389166,  0.671378212467265 ]
    mass: 118.710000
    reduced_to: 91
  - symbol: Sn # 97
    coordinates: [  0.188471137890791,  0.759924158722499,  0.671378212467265 ]
    mass: 118.710000
    reduced_to: 91
  - symbol: Sn # 98
    coordinates: [  0.521804471224124,  0.759924158722499,  0.671378212467265 ]
    mass: 118.710000
    reduced_to: 91
  - symbol: Sn # 99
    coordinates: [  0.855137804557457,  0.759924158722499,  0.671378212467265 ]
    mass: 118.710000
    reduced_to: 91
  - symbol: Sn # 100
    coordinates: [  0.021871429892946,  0.260235213398654,  0.765975278246391 ]
    mass: 118.710000
    reduced_to: 100
  - symbol: Sn # 101
    coordinates: [  0.355204763226279,  0.260235213398654,  0.765975278246391 ]
    mass: 118.710000
    reduced_to: 100
  - symbol: Sn # 102
    coordinates: [  0.688538096559612,  0.260235213398654,  0.765975278246391 ]
    mass: 118.710000
    reduced_to: 100
  - symbol: Sn # 103
    coordinates: [  0.021871429892946,  0.593568546731987,  0.765975278246391 ]
    mass: 118.710000
    reduced_to: 100
  - symbol: Sn # 104
    coordinates: [  0.355204763226279,  0.593568546731987,  0.765975278246391 ]
    mass: 118.710000
    reduced_to: 100
  - symbol: Sn # 105
    coordinates: [  0.688538096559612,  0.593568546731987,  0.765975278246391 ]
    mass: 118.710000
    reduced_to: 100
  - symbol: Sn # 106
    coordinates: [  0.021871429892946,  0.926901880065321,  0.765975278246391 ]
    mass: 118.710000
    reduced_to: 100
  - symbol: Sn # 107
    coordinates: [  0.355204763226279,  0.926901880065321,  0.765975278246391 ]
    mass: 118.710000
    reduced_to: 100
  - symbol: Sn # 108
    coordinates: [  0.688538096559612,  0.926901880065321,  0.765975278246391 ]
    mass: 118.710000
    reduced_to: 100

displacements:
- atom:    1
  displacement:
    [   0.0100000000000000,  0.0000000000000000,  0.0000000000000000 ]
  forces:
  - [  -0.0194149687886238,  0.0000730399042368, -0.0067940950393677 ]
  - [  -0.0012699142098427,  0.0000719260424376, -0.0070869661867619 ]
  - [  -0.0012684911489487,  0.0000749807804823, -0.0066648870706558 ]
  - [  -0.0000897347927094,  0.0000655390322208, -0.0068787187337875 ]
  - [  -0.0000928174704313,  0.0003270935267210, -0.0067030228674412 ]
  - [  -0.0000985190272331, -0.0001756846904755, -0.0070504099130630 ]
  - [  -0.0000896081328392,  0.0000815056264400, -0.0068796575069427 ]
  - [  -0.0000928342342377, -0.0001797582954168, -0.0067056640982628 ]
  - [  -0.0000978354364634,  0.0003212690353394, -0.0070473253726959 ]
  - [  -0.0000719923700672, -0.0000333348289132, -0.0030739735811949 ]
  - [  -0.0000722398981452, -0.0000317953526974, -0.0030655916780233 ]
  - [  -0.0000754706561565, -0.0000331071205437, -0.0030700769275427 ]
  - [  -0.0000710850581527, -0.0000331313349307, -0.0030686724931002 ]
  - [  -0.0000713644549251, -0.0000328705646098, -0.0030698999762535 ]
  - [  -0.0000758608803153, -0.0000329571776092, -0.0030690832063556 ]
  - [  -0.0000720014795661, -0.0000328067690134, -0.0030748946592212 ]
  - [  -0.0000723525881767, -0.0000346233136952, -0.0030646286904812 ]
  - [  -0.0000749677419662, -0.0000328519381583, -0.0030701402574778 ]
  - [   0.0003208617563359,  0.0001466253306717, -0.0082862488925457 ]
  - [   0.0001699627609923,  0.0001463934313506, -0.0082405433058739 ]
  - [   0.0001697092957329,  0.0001460211351514, -0.0083138942718506 ]
  - [   0.0001268042105949,  0.0001465402892791, -0.0082775615155697 ]
  - [   0.0000519314744452,  0.0001119070220739, -0.0083054229617119 ]
  - [   0.0000522514383192,  0.0001826179213822, -0.0082488693296909 ]
  - [   0.0001262244768441,  0.0001466889953008, -0.0082778371870518 ]
  - [   0.0000520625180798,  0.0001818710443331, -0.0083050951361656 ]
  - [   0.0000508222146891,  0.0001106506242650, -0.0082479789853096 ]
  - [   0.0001813965354813, -0.0000319962855428,  0.0033229440450668 ]
  - [   0.0001792942057364, -0.0001239862758666,  0.0034434907138348 ]
  - [   0.0001556185015943, -0.0000766415614635,  0.0033829174935818 ]
  - [   0.0000382955040550, -0.0000767288729548,  0.0033276602625847 ]
  - [   0.0000394922681153, -0.0000761593692005,  0.0034376718103886 ]
  - [   0.0004041634965688, -0.0000771256163716,  0.0033816285431385 ]
  - [   0.0001848298124969, -0.0001212062779814,  0.0033202506601810 ]
  - [   0.0001831588160712, -0.0000295862701023,  0.0034462213516235 ]
  - [   0.0001570330496179, -0.0000766653683968,  0.0033832415938377 ]
  - [   0.0009097999427468, -0.0010988737922162,  0.0018674097955227 ]
  - [   0.0009149933466688,  0.0004244765732437,  0.0029845163226128 ]
  - [  -0.0000522640257259, -0.0003435616381466,  0.0024218633770943 ]
  - [  -0.0001107121643145, -0.0003441625740379,  0.0023900400847197 ]
  - [  -0.0001113756297855, -0.0003442582674325,  0.0024543795734644 ]
  - [  -0.0000610154165770, -0.0003442512825131,  0.0024218671023846 ]
  - [   0.0009090523817576,  0.0004122603568248,  0.0018665380775928 ]
  - [   0.0009138193563558, -0.0011114866938442,  0.0029849857091904 ]
  - [  -0.0000517992484674, -0.0003433713281993,  0.0024220831692219 ]
  - [   0.0004128023865633,  0.0001072413288057, -0.0116716772317886 ]
  - [   0.0003030410152860,  0.0001070895232260, -0.0115899965167046 ]
  - [   0.0003028430219274,  0.0001068474812200, -0.0117463842034340 ]
  - [   0.0003354917571414,  0.0001064245589077, -0.0116688683629036 ]
  - [   0.0003080316237174,  0.0001007143873721, -0.0117672011256218 ]
  - [   0.0003079914022237,  0.0001126076094806, -0.0115713849663734 ]
  - [   0.0003350587794557,  0.0001066886034096, -0.0116694718599319 ]
  - [   0.0003081084578298,  0.0001130320815719, -0.0117669031023979 ]
  - [   0.0003093701670878,  0.0001011080821627, -0.0115723162889481 ]
  - [  -0.0000046002896852,  0.0000512311016792,  0.0154744070023298 ]
  - [   0.0000046461282182,  0.0000514137645951,  0.0154731813818216 ]
  - [   0.0000026665293262,  0.0000510319368914,  0.0154779050499201 ]
  - [  -0.0000035111370380,  0.0000492864055559,  0.0154741881415248 ]
  - [   0.0000031342133298,  0.0000492147519253,  0.0154808312654495 ]
  - [   0.0000027412097552,  0.0000487730139866,  0.0154672516509891 ]
  - [  -0.0000031216768548,  0.0000489849262522,  0.0154734030365944 ]
  - [   0.0000030841474654,  0.0000497124601679,  0.0154807250946760 ]
  - [   0.0000019363360479,  0.0000494085034006,  0.0154675766825676 ]
  - [   0.0001860148477135,  0.0003272896865383, -0.0125965923070908 ]
  - [   0.0001858863979578,  0.0004558530636132, -0.0124131441116333 ]
  - [   0.0001324415206909,  0.0003908446524292, -0.0125047266483307 ]
  - [   0.0001363414630760,  0.0003902907483280, -0.0125064253807068 ]
  - [   0.0001367423683405,  0.0003900402225554, -0.0125051736831665 ]
  - [   0.0001219343394041,  0.0003910721279681, -0.0125060975551605 ]
  - [   0.0001860235206550,  0.0004541344242170, -0.0125970095396042 ]
  - [   0.0001862831413746,  0.0003254734911025, -0.0124136656522751 ]
  - [   0.0001333374530077,  0.0003899857401848, -0.0125057548284531 ]
  - [   0.0001558958028909, -0.0001036357134581, -0.0000228062272072 ]
  - [   0.0001549173321109, -0.0000938912853599, -0.0000289976596832 ]
  - [   0.0001413780846633, -0.0000985651277006, -0.0000258013606071 ]
  - [   0.0001600003161002, -0.0000958633172559, -0.0000420287251472 ]
  - [   0.0001599338720553, -0.0000965577200986, -0.0000075995922089 ]
  - [   0.0001323554606643, -0.0000965619692579, -0.0000255182385445 ]
  - [   0.0001551635941723, -0.0000943120103329, -0.0000213012099266 ]
  - [   0.0001553073525429, -0.0001028578262776, -0.0000287070870399 ]
  - [   0.0001408085227013, -0.0000984270591289, -0.0000255033373833 ]
  - [  -0.0000010400890460, -0.0002705135266297, -0.0164817366749048 ]
  - [  -0.0000284821217065, -0.0002699916949496, -0.0164836160838604 ]
  - [  -0.0000294927085633, -0.0002701194316614, -0.0164840314537287 ]
  - [  -0.0000028495669540, -0.0002725343219936, -0.0164831727743149 ]
  - [  -0.0000231561571127, -0.0002782479859889, -0.0164863858371973 ]
  - [  -0.0000240608496824, -0.0002661617472768, -0.0164780281484127 ]
  - [  -0.0000021108426154, -0.0002693878486753, -0.0164826437830925 ]
  - [  -0.0000239112414420, -0.0002634008415043, -0.0164864864200354 ]
  - [  -0.0000242614187300, -0.0002763564698398, -0.0164778269827366 ]
  - [  -0.0004445426166058,  0.0001201698323712,  0.0475114509463310 ]
  - [  -0.0003994209691882,  0.0001157667720690,  0.0475984364748001 ]
  - [  -0.0004149647429585,  0.0001244462328032,  0.0473699644207954 ]
  - [   0.0000818260014057,  0.0001179140526801,  0.0474896281957626 ]
  - [  -0.0003137262538075, -0.0001415337901562,  0.0475375652313232 ]
  - [  -0.0002935389056802,  0.0003528399392962,  0.0474535524845123 ]
  - [   0.0000883731991053,  0.0001221273560077,  0.0474893674254417 ]
  - [  -0.0002991566434503,  0.0003732056356966,  0.0475321561098099 ]
  - [  -0.0002784449607134, -0.0001060063950717,  0.0474577620625496 ]
  - [   0.0037074598949403, -0.0027985901106149, -0.0080033987760544 ]
  - [   0.0037954738363624,  0.0027681356295943, -0.0117884054780006 ]
  - [  -0.0000470581289846, -0.0000644624233246, -0.0098618045449257 ]
  - [  -0.0004530684673227, -0.0000669825822115, -0.0100054442882538 ]
  - [  -0.0004623489221558, -0.0000653844326735, -0.0097117796540260 ]
  - [   0.0000155874004122, -0.0000660065561533, -0.0098586007952690 ]
  - [   0.0037104729562998,  0.0026702014729381, -0.0079960823059082 ]
  - [   0.0037975180894136, -0.0028994847089052, -0.0117954164743423 ]
  - [  -0.0000538658350706, -0.0000632330775261, -0.0098619982600212 ]
- atom:    1
  displacement:
    [  -0.0100000000000000,  0.0000000000000000,  0.0000000000000000 ]
  forces:
  - [   0.0184806548058987,  0.0000728555023670, -0.0067857429385185 ]
  - [   0.0003335308283567,  0.0000748597085476, -0.0066628903150558 ]
  - [   0.0003350228071213,  0.0000719297677279, -0.0070875920355320 ]
  - [  -0.0008455608040094,  0.0000680182129145, -0.0068783201277256 ]
  - [  -0.0008366648107767, -0.0001747291535139, -0.0070502571761608 ]
  - [  -0.0008424129337072,  0.0003267098218203, -0.0067042261362076 ]
  - [  -0.0008455663919449,  0.0000790245831013, -0.0068791061639786 ]
  - [  -0.0008368287235498,  0.0003210455179214, -0.0070490464568138 ]
  - [  -0.0008414741605520, -0.0001797769218683, -0.0067050792276859 ]
  - [  -0.0000740150426282, -0.0000314454082400, -0.0030649118125439 ]
  - [  -0.0000742571428418, -0.0000338773243129, -0.0030741039663553 ]
  - [  -0.0000713951885700, -0.0000331015326083, -0.0030701253563166 ]
  - [  -0.0000751744955778, -0.0000331029295921, -0.0030705053359270 ]
  - [  -0.0000753030180931, -0.0000330233015120, -0.0030682673677802 ]
  - [  -0.0000682026147842, -0.0000329837203026, -0.0030691819265485 ]
  - [  -0.0000741835683584, -0.0000349902547896, -0.0030659483745694 ]
  - [  -0.0000745272263885, -0.0000325902365148, -0.0030733719468117 ]
  - [  -0.0000708196312189, -0.0000328030437231, -0.0030701272189617 ]
  - [  -0.0000830578210298,  0.0001466869725846, -0.0082838945090771 ]
  - [   0.0000685204213369,  0.0001463444787078, -0.0083140395581722 ]
  - [   0.0000683204052621,  0.0001460942439735, -0.0082400366663933 ]
  - [   0.0001119607914006,  0.0001468188711442, -0.0082776509225368 ]
  - [   0.0001869687257567,  0.0001823757775128, -0.0082490481436253 ]
  - [   0.0001872835273389,  0.0001120214001276, -0.0083051137626171 ]
  - [   0.0001119128428400,  0.0001466422691010, -0.0082778893411160 ]
  - [   0.0001871548884083,  0.0001111395467888, -0.0082485973834991 ]
  - [   0.0001857591269072,  0.0001814129936974, -0.0083042830228806 ]
  - [   0.0001426241651643, -0.0001232631038874,  0.0034445114433765 ]
  - [   0.0001407344971085, -0.0000307697337121,  0.0033235512673855 ]
  - [   0.0001673617807683, -0.0000761486589909,  0.0033827014267445 ]
  - [   0.0002828079741448, -0.0000761984847486,  0.0034367628395557 ]
  - [   0.0002835227060132, -0.0000767104793340,  0.0033273324370384 ]
  - [  -0.0000840304419398, -0.0000770480837673,  0.0033821724355221 ]
  - [   0.0001383138005622, -0.0000310960604111,  0.0034460090100765 ]