# Thermal properties / unit cell (natom)

unit:
  temperature:   K
  free_energy:   kJ/mol
  entropy:       J/K/mol
  heat_capacity: J/K/mol

natom: 13   
cutoff_frequency: 0.00000
num_modes: 157950
num_integrated_modes: 157949

zero_point_energy:      37.4485412

thermal_properties:
- temperature:         0.0000000
  free_energy:        37.4485412
  entropy:             0.0000000
  heat_capacity:       0.0000000
  energy:             37.4485412

- temperature:        10.0000000
  free_energy:        37.4439932
  entropy:             1.8603846
  heat_capacity:       6.4425849
  energy:             37.4625970

- temperature:        20.0000000
  free_energy:        37.3652440
  entropy:            16.5251031
  heat_capacity:      43.7717329
  energy:             37.6957460

- temperature:        30.0000000
  free_energy:        37.0761318
  entropy:            42.3692251
  heat_capacity:      85.2416159
  energy:             38.3472086

- temperature:        40.0000000
  free_energy:        36.5075345
  entropy:            71.4775833
  heat_capacity:     116.9543155
  energy:             39.3666378

- temperature:        50.0000000
  free_energy:        35.6481399
  entropy:           100.1988901
  heat_capacity:     140.2412993
  energy:             40.6580844

- temperature:        60.0000000
  free_energy:        34.5085753
  entropy:           127.4434447
  heat_capacity:     158.5928179
  energy:             42.1551820

- temperature:        70.0000000
  free_energy:        33.1046040
  entropy:           153.0952956
  heat_capacity:     174.3015350
  energy:             43.8212747

- temperature:        80.0000000
  free_energy:        31.4514739
  entropy:           177.3059873
  heat_capacity:     188.4106227
  energy:             45.6359529

- temperature:        90.0000000
  free_energy:        29.5626949
  entropy:           200.2521836
  heat_capacity:     201.2830129
  energy:             47.5853914

- temperature:       100.0000000
  free_energy:        27.4501657
  entropy:           222.0765432
  heat_capacity:     213.0157299
  energy:             49.6578200

- temperature:       110.0000000
  free_energy:        25.1245441
  entropy:           242.8860510
  heat_capacity:     223.6399823
  energy:             51.8420097

- temperature:       120.0000000
  free_energy:        22.5955533
  entropy:           262.7624613
  heat_capacity:     233.1937435
  energy:             54.1270486

- temperature:       130.0000000
  free_energy:        19.8721841
  entropy:           281.7717773
  heat_capacity:     241.7373024
  energy:             56.5025152

- temperature:       140.0000000
  free_energy:        16.9628191
  entropy:           299.9704839
  heat_capacity:     249.3488177
  energy:             58.9586869

- temperature:       150.0000000
  free_energy:        13.8753076
  entropy:           317.4091208
  heat_capacity:     256.1156310
  energy:             61.4866757

- temperature:       160.0000000
  free_energy:        10.6170150
  entropy:           334.1341627
  heat_capacity:     262.1267912
  energy:             64.0784810

- temperature:       170.0000000
  free_energy:         7.1948582
  entropy:           350.1889461
  heat_capacity:     267.4679949
  energy:             66.7269791

- temperature:       180.0000000
  free_energy:         3.6153346
  entropy:           365.6141048
  heat_capacity:     272.2186867
  energy:             69.4258734

- temperature:       190.0000000
  free_energy:        -0.1154525
  entropy:           380.4477754
  heat_capacity:     276.4507195
  energy:             72.1696248

- temperature:       200.0000000
  free_energy:        -3.9917688
  entropy:           394.7257082
  heat_capacity:     280.2280218
  energy:             74.9533729

- temperature:       210.0000000
  free_energy:        -8.0082259
  entropy:           408.4813513
  heat_capacity:     283.6068554
  energy:             77.7728578

- temperature:       220.0000000
  free_energy:       -12.1597591
  entropy:           421.7459342
  heat_capacity:     286.6363870
  energy:             80.6243464

- temperature:       230.0000000
  free_energy:       -16.4416050
  entropy:           434.5485628
  heat_capacity:     289.3593944
  energy:             83.5045644

- temperature:       240.0000000
  free_energy:       -20.8492811
  entropy:           446.9163245
  heat_capacity:     291.8130058
  energy:             86.4106368

- temperature:       250.0000000
  free_energy:       -25.3785661
  entropy:           458.8744017
  heat_capacity:     294.0294103
  energy:             89.3400343

- temperature:       260.0000000
  free_energy:       -30.0254816
  entropy:           470.4461901
  heat_capacity:     296.0365130
  energy:             92.2905278

- temperature:       270.0000000
  free_energy:       -34.7862749
  entropy:           481.6534179
  heat_capacity:     297.8585204
  energy:             95.2601480

- temperature:       280.0000000
  free_energy:       -39.6574022
  entropy:           492.5162636
  heat_capacity:     299.5164559
  energy:             98.2471516

- temperature:       290.0000000
  free_energy:       -44.6355148
  entropy:           503.0534697
  heat_capacity:     301.0286059
  energy:            101.2499914

- temperature:       300.0000000
  free_energy:       -49.7174443
  entropy:           513.2824514
  heat_capacity:     302.4109063
  energy:            104.2672911

- temperature:       310.0000000
  free_energy:       -54.9001905
  entropy:           523.2193993
  heat_capacity:     303.6772720
  energy:            107.2978233

- temperature:       320.0000000
  free_energy:       -60.1809092
  entropy:           532.8793751
  heat_capacity:     304.8398798
  energy:            110.3404908

- temperature:       330.0000000
  free_energy:       -65.5569016
  entropy:           542.2764011
  heat_capacity:     305.9094096
  energy:            113.3943107

- temperature:       340.0000000
  free_energy:       -71.0256044
  entropy:           551.4235428
  heat_capacity:     306.8952492
  energy:            116.4584002

- temperature:       350.0000000
  free_energy:       -76.5845802
  entropy:           560.3329848
  heat_capacity:     307.8056705
  energy:            119.5319644

- temperature:       360.0000000
  free_energy:       -82.2315097
  entropy:           569.0161010
  heat_capacity:     308.6479783
  energy:            122.6142866

- temperature:       370.0000000
  free_energy:       -87.9641833
  entropy:           577.4835187
  heat_capacity:     309.4286388
  energy:            125.7047186

- temperature:       380.0000000
  free_energy:       -93.7804943
  entropy:           585.7451774
  heat_capacity:     310.1533885
  energy:            128.8026731

- temperature:       390.0000000
  free_energy:       -99.6784321
  entropy:           593.8103825
  heat_capacity:     310.8273281
  energy:            131.9076171

- temperature:       400.0000000
  free_energy:      -105.6560762
  entropy:           601.6878544
  heat_capacity:     311.4550027
  energy:            135.0190655

- temperature:       410.0000000
  free_energy:      -111.7115907
  entropy:           609.3857737
  heat_capacity:     312.0404715
  energy:            138.1365765

- temperature:       420.0000000
  free_energy:      -117.8432189
  entropy:           616.9118221
  heat_capacity:     312.5873668
  energy:            141.2597464

- temperature:       430.0000000
  free_energy:      -124.0492784
  entropy:           624.2732198
  heat_capacity:     313.0989460
  energy:            144.3882061

- temperature:       440.0000000
  free_energy:      -130.3281571
  entropy:           631.4767602
  heat_capacity:     313.5781361
  energy:            147.5216174

- temperature:       450.0000000
  free_energy:      -136.6783088
  entropy:           638.5288410
  heat_capacity:     314.0275719
  energy:            150.6596697

- temperature:       460.0000000
  free_energy:      -143.0982492
  entropy:           645.4354931
  heat_capacity:     314.4496303
  energy:            153.8020776

- temperature:       470.0000000
  free_energy:      -149.5865529
  entropy:           652.2024066
  heat_capacity:     314.8464589
  energy:            156.9485782

- temperature:       480.0000000
  free_energy:      -156.1418495
  entropy:           658.8349556
  heat_capacity:     315.2200021
  energy:            160.0989292

- temperature:       490.0000000
  free_energy:      -162.7628211
  entropy:           665.3382196
  heat_capacity:     315.5720231
  energy:            163.2529065

- temperature:       500.0000000
  free_energy:      -169.4481990
  entropy:           671.7170045
  heat_capacity:     315.9041234
  energy:            166.4103033

- temperature:       510.0000000
  free_energy:      -176.1967614
  entropy:           677.9758606
  heat_capacity:     316.2177604
  energy:            169.5709275

- temperature:       520.0000000
  free_energy:      -183.0073308
  entropy:           684.1191004
  heat_capacity:     316.5142621
  energy:            172.7346014

- temperature:       530.0000000
  free_energy:      -189.8787717
  entropy:           690.1508139
  heat_capacity:     316.7948406
  energy:            175.9011597

- temperature:       540.0000000
  free_energy:      -196.8099883
  entropy:           696.0748835
  heat_capacity:     317.0606040
  energy:            179.0704488

- temperature:       550.0000000
  free_energy:      -203.7999229
  entropy:           701.8949975
  heat_capacity:     317.3125667
  energy:            182.2423257

- temperature:       560.0000000
  free_energy:      -210.8475535
  entropy:           707.6146619
  heat_capacity:     317.5516585
  energy:            185.4166572

- temperature:       570.0000000
  free_energy:      -217.9518924
  entropy:           713.2372128
  heat_capacity:     317.7787331
  energy:            188.5933189

- temperature:       580.0000000
  free_energy:      -225.1119846
  entropy:           718.7658260
  heat_capacity:     317.9945753
  energy:            191.7721945

- temperature:       590.0000000
  free_energy:      -232.3269059
  entropy:           724.2035275
  heat_capacity:     318.1999072
  energy:            194.9531753

- temperature:       600.0000000
  free_energy:      -239.5957617
  entropy:           729.5532026
  heat_capacity:     318.3953947
  energy:            198.1361598

- temperature:       610.0000000
  free_energy:      -246.9176857
  entropy:           734.8176036
  heat_capacity:     318.5816519
  energy:            201.3210525

- temperature:       620.0000000
  free_energy:      -254.2918383
  entropy:           739.9993586
  heat_capacity:     318.7592463
  energy:            204.5077640

- temperature:       630.0000000
  free_energy:      -261.7174058
  entropy:           745.1009779
  heat_capacity:     318.9287029
  energy:            207.6962103

- temperature:       640.0000000
  free_energy:      -269.1935988
  entropy:           750.1248614
  heat_capacity:     319.0905075
  energy:            210.8863125

- temperature:       650.0000000
  free_energy:      -276.7196516
  entropy:           755.0733046
  heat_capacity:     319.2451108
  energy:            214.0779964

- temperature:       660.0000000
  free_energy:      -284.2948208
  entropy:           759.9485044
  heat_capacity:     319.3929309
  energy:            217.2711921

- temperature:       670.0000000
  free_energy:      -291.9183845
  entropy:           764.7525646
  heat_capacity:     319.5343561
  energy:            220.4658337

- temperature:       680.0000000
  free_energy:      -299.5896416
  entropy:           769.4875011
  heat_capacity:     319.6697477
  energy:            223.6618591

- temperature:       690.0000000
  free_energy:      -307.3079106
  entropy:           774.1552468
  heat_capacity:     319.7994420
  energy:            226.8592097

- temperature:       700.0000000
  free_energy:      -315.0725288
  entropy:           778.7576555
  heat_capacity:     319.9237521
  energy:            230.0578300

- temperature:       710.0000000
  free_energy:      -322.8828518
  entropy:           783.2965065
  heat_capacity:     320.0429702
  energy:            233.2576678

- temperature:       720.0000000
  free_energy:      -330.7382528
  entropy:           787.7735085
  heat_capacity:     320.1573690
  energy:            236.4586734

- temperature:       730.0000000
  free_energy:      -338.6381213
  entropy:           792.1903031
  heat_capacity:     320.2672035
  energy:            239.6607999

- temperature:       740.0000000
  free_energy:      -346.5818634
  entropy:           796.5484682
  heat_capacity:     320.3727118
  energy:            242.8640030

- temperature:       750.0000000
  free_energy:      -354.5689003
  entropy:           800.8495211
  heat_capacity:     320.4741170
  energy:            246.0682405

- temperature:       760.0000000
  free_energy:      -362.5986683
  entropy:           805.0949220
  heat_capacity:     320.5716281
  energy:            249.2734724

- temperature:       770.0000000
  free_energy:      -370.6706180
  entropy:           809.2860762
  heat_capacity:     320.6654408
  energy:            252.4796607

- temperature:       780.0000000
  free_energy:      -378.7842135
  entropy:           813.4243372
  heat_capacity:     320.7557389
  energy:            255.6867695

- temperature:       790.0000000
  free_energy:      -386.9389327
  entropy:           817.5110090
  heat_capacity:     320.8426951
  energy:            258.8947644

- temperature:       800.0000000
  free_energy:      -395.1342660
  entropy:           821.5473484
  heat_capacity:     320.9264713
  energy:            262.1036128

- temperature:       810.0000000
  free_energy:      -403.3697160
  entropy:           825.5345675
  heat_capacity:     321.0072201
  energy:            265.3132837

- temperature:       820.0000000
  free_energy:      -411.6447975
  entropy:           829.4738354
  heat_capacity:     321.0850850
  energy:            268.5237476

- temperature:       830.0000000
  free_energy:      -419.9590366
  entropy:           833.3662806
  heat_capacity:     321.1602011
  energy:            271.7349763

- temperature:       840.0000000
  free_energy:      -428.3119706
  entropy:           837.2129923
  heat_capacity:     321.2326956
  energy:            274.9469429

- temperature:       850.0000000
  free_energy:      -436.7031475
  entropy:           841.0150228
  heat_capacity:     321.3026888
  energy:            278.1596218

- temperature:       860.0000000
  free_energy:      -445.1321256
  entropy:           844.7733887
  heat_capacity:     321.3702938
  energy:            281.3729887

- temperature:       870.0000000
  free_energy:      -453.5984730
  entropy:           848.4890726
  heat_capacity:     321.4356177
  energy:            284.5870201

- temperature:       880.0000000
  free_energy:      -462.1017679
  entropy:           852.1630246
  heat_capacity:     321.4987615
  energy:            287.8016938

- temperature:       890.0000000
  free_energy:      -470.6415975
  entropy:           855.7961639
  heat_capacity:     321.5598209
  energy:            291.0169884

- temperature:       900.0000000
  free_energy:      -479.2175581
  entropy:           859.3893796
  heat_capacity:     321.6188862
  energy:            294.2328835

- temperature:       910.0000000
  free_energy:      -487.8292549
  entropy:           862.9435325
  heat_capacity:     321.6760431
  energy:            297.4493597

- temperature:       920.0000000
  free_energy:      -496.4763013
  entropy:           866.4594561
  heat_capacity:     321.7313725
  energy:            300.6663983

- temperature:       930.0000000
  free_energy:      -505.1583193
  entropy:           869.9379576
  heat_capacity:     321.7849513
  energy:            303.8839814

- temperature:       940.0000000
  free_energy:      -513.8749384
  entropy:           873.3798193
  heat_capacity:     321.8368523
  energy:            307.1020917

- temperature:       950.0000000
  free_energy:      -522.6257960
  entropy:           876.7857990
  heat_capacity:     321.8871446
  energy:            310.3207130

- temperature:       960.0000000
  free_energy:      -531.4105372
  entropy:           880.1566320
  heat_capacity:     321.9358937
  energy:            313.5398295

- temperature:       970.0000000
  free_energy:      -540.2288139
  entropy:           883.4930308
  heat_capacity:     321.9831621
  energy:            316.7594260

- temperature:       980.0000000
  free_energy:      -549.0802853
  entropy:           886.7956871
  heat_capacity:     322.0290089
  energy:            319.9794880

- temperature:       990.0000000
  free_energy:      -557.9646174
  entropy:           890.0652717
  heat_capacity:     322.0734902
  energy:            323.2000016

- temperature:      1000.0000000
  free_energy:      -566.8814827
  entropy:           893.3024361
  heat_capacity:     322.1166598
  energy:            326.4209534
