phonopy:
  version: "2.37.1"
  frequency_unit_conversion_factor: 15.633302
  symmetry_tolerance: 1.00000e-05

space_group:
  type: "P1"
  number: 1
  Hall_symbol: "P 1"

primitive_matrix:
- [ -1.000000000000000, -1.000000000000000, -1.000000000000000 ]
- [  0.000000000000000,  0.000000000000000,  1.000000000000000 ]
- [  0.000000000000000,  1.000000000000000,  0.000000000000000 ]

supercell_matrix:
- [   3,   0,   0 ]
- [   0,   2,   0 ]
- [   0,   0,   2 ]

primitive_cell:
  lattice:
  - [    -4.429228615709025,     0.000000000000000,     0.000000000000000 ] # a
  - [    -2.212908614553611,     0.449273297525370,     5.023608544904177 ] # b
  - [    -2.212031255364253,     5.375192482521219,     0.000000000000000 ] # c
  points:
  - symbol: Li # 1
    coordinates: [  0.806629116690112,  0.080151055357508,  0.760873773878774 ]
    mass: 6.940000
  - symbol: Li # 2
    coordinates: [  0.813670562639270,  0.565437132035828,  0.261117422165099 ]
    mass: 6.940000
  - symbol: Ga # 3
    coordinates: [  0.125572434123151,  0.463697748109766,  0.739261933247023 ]
    mass: 69.723000
  - symbol: Ga # 4
    coordinates: [  0.150033890429628,  0.056029481532778,  0.098158306278237 ]
    mass: 69.723000
  - symbol: Ga # 5
    coordinates: [  0.483391232198631,  0.705704289038076,  0.781629309874426 ]
    mass: 69.723000
  - symbol: Sn # 6
    coordinates: [  0.483001796320644,  0.116107667637308,  0.372026761349372 ]
    mass: 118.710000
  reciprocal_lattice: # without 2pi
  - [    -0.225772947563223,    -0.092911429358026,    -0.091144099357581 ] # a*
  - [    -0.000000000000000,     0.000000000000000,     0.199060096156253 ] # b*
  - [    -0.000000000000000,     0.186039849410370,    -0.016637987587728 ] # c*

unit_cell:
  lattice:
  - [     4.429228615709025,     0.000000000000000,     0.000000000000000 ] # a
  - [     2.217197360344772,     5.375192482521219,     0.000000000000000 ] # b
  - [     2.216320001155414,     0.449273297525370,     5.023608544904177 ] # c
  points:
  - symbol: Li # 1
    coordinates: [  0.352346054073606,  0.760873773878774,  0.080151055357508 ]
    mass: 6.940000
    reduced_to: 1
  - symbol: Li # 2
    coordinates: [  0.359774883159804,  0.261117422165099,  0.565437132035828 ]
    mass: 6.940000
    reduced_to: 2
  - symbol: Ga # 3
    coordinates: [  0.671467884520059,  0.739261933247023,  0.463697748109766 ]
    mass: 69.723000
    reduced_to: 3
  - symbol: Ga # 4
    coordinates: [  0.695778321759357,  0.098158306278237,  0.056029481532778 ]
    mass: 69.723000
    reduced_to: 4
  - symbol: Ga # 5
    coordinates: [  0.029275168888867,  0.781629309874426,  0.705704289038076 ]
    mass: 69.723000
    reduced_to: 5
  - symbol: Sn # 6
    coordinates: [  0.028863774692676,  0.372026761349372,  0.116107667637308 ]
    mass: 118.710000
    reduced_to: 6

supercell:
  lattice:
  - [    13.287685847127076,     0.000000000000000,     0.000000000000000 ] # a
  - [     4.434394720689545,    10.750384965042437,     0.000000000000000 ] # b
  - [     4.432640002310828,     0.898546595050741,    10.047217089808354 ] # c
  points:
  - symbol: Li # 1
    coordinates: [  0.117448684691202,  0.380436886939387,  0.040075527678754 ]
    mass: 6.940000
    reduced_to: 1
  - symbol: Li # 2
    coordinates: [  0.450782018024535,  0.380436886939387,  0.040075527678754 ]
    mass: 6.940000
    reduced_to: 1
  - symbol: Li # 3
    coordinates: [  0.784115351357869,  0.380436886939387,  0.040075527678754 ]
    mass: 6.940000
    reduced_to: 1
  - symbol: Li # 4
    coordinates: [  0.117448684691202,  0.880436886939387,  0.040075527678754 ]
    mass: 6.940000
    reduced_to: 1
  - symbol: Li # 5
    coordinates: [  0.450782018024535,  0.880436886939387,  0.040075527678754 ]
    mass: 6.940000
    reduced_to: 1
  - symbol: Li # 6
    coordinates: [  0.784115351357869,  0.880436886939387,  0.040075527678754 ]
    mass: 6.940000
    reduced_to: 1
  - symbol: Li # 7
    coordinates: [  0.117448684691202,  0.380436886939387,  0.540075527678754 ]
    mass: 6.940000
    reduced_to: 1
  - symbol: Li # 8
    coordinates: [  0.450782018024535,  0.380436886939387,  0.540075527678754 ]
    mass: 6.940000
    reduced_to: 1
  - symbol: Li # 9
    coordinates: [  0.784115351357869,  0.380436886939387,  0.540075527678754 ]
    mass: 6.940000
    reduced_to: 1
  - symbol: Li # 10
    coordinates: [  0.117448684691202,  0.880436886939387,  0.540075527678754 ]
    mass: 6.940000
    reduced_to: 1
  - symbol: Li # 11
    coordinates: [  0.450782018024535,  0.880436886939387,  0.540075527678754 ]
    mass: 6.940000
    reduced_to: 1
  - symbol: Li # 12
    coordinates: [  0.784115351357869,  0.880436886939387,  0.540075527678754 ]
    mass: 6.940000
    reduced_to: 1
  - symbol: Li # 13
    coordinates: [  0.119924961053268,  0.130558711082550,  0.282718566017914 ]
    mass: 6.940000
    reduced_to: 13
  - symbol: Li # 14
    coordinates: [  0.453258294386601,  0.130558711082550,  0.282718566017914 ]
    mass: 6.940000
    reduced_to: 13
  - symbol: Li # 15
    coordinates: [  0.786591627719935,  0.130558711082550,  0.282718566017914 ]
    mass: 6.940000
    reduced_to: 13
  - symbol: Li # 16
    coordinates: [  0.119924961053268,  0.630558711082550,  0.282718566017914 ]
    mass: 6.940000
    reduced_to: 13
  - symbol: Li # 17
    coordinates: [  0.453258294386601,  0.630558711082550,  0.282718566017914 ]
    mass: 6.940000
    reduced_to: 13
  - symbol: Li # 18
    coordinates: [  0.786591627719935,  0.630558711082550,  0.282718566017914 ]
    mass: 6.940000
    reduced_to: 13
  - symbol: Li # 19
    coordinates: [  0.119924961053268,  0.130558711082550,  0.782718566017914 ]
    mass: 6.940000
    reduced_to: 13
  - symbol: Li # 20
    coordinates: [  0.453258294386601,  0.130558711082550,  0.782718566017914 ]
    mass: 6.940000
    reduced_to: 13
  - symbol: Li # 21
    coordinates: [  0.786591627719935,  0.130558711082550,  0.782718566017914 ]
    mass: 6.940000
    reduced_to: 13
  - symbol: Li # 22
    coordinates: [  0.119924961053268,  0.630558711082550,  0.782718566017914 ]
    mass: 6.940000
    reduced_to: 13
  - symbol: Li # 23
    coordinates: [  0.453258294386601,  0.630558711082550,  0.782718566017914 ]
    mass: 6.940000
    reduced_to: 13
  - symbol: Li # 24
    coordinates: [  0.786591627719935,  0.630558711082550,  0.782718566017914 ]
    mass: 6.940000
    reduced_to: 13
  - symbol: Ga # 25
    coordinates: [  0.223822628173353,  0.369630966623512,  0.231848874054883 ]
    mass: 69.723000
    reduced_to: 25
  - symbol: Ga # 26
    coordinates: [  0.557155961506686,  0.369630966623512,  0.231848874054883 ]
    mass: 69.723000
    reduced_to: 25
  - symbol: Ga # 27
    coordinates: [  0.890489294840020,  0.369630966623512,  0.231848874054883 ]
    mass: 69.723000
    reduced_to: 25
  - symbol: Ga # 28
    coordinates: [  0.223822628173353,  0.869630966623512,  0.231848874054883 ]
    mass: 69.723000
    reduced_to: 25
  - symbol: Ga # 29
    coordinates: [  0.557155961506686,  0.869630966623512,  0.231848874054883 ]
    mass: 69.723000
    reduced_to: 25
  - symbol: Ga # 30
    coordinates: [  0.890489294840020,  0.869630966623512,  0.231848874054883 ]
    mass: 69.723000
    reduced_to: 25
  - symbol: Ga # 31
    coordinates: [  0.223822628173353,  0.369630966623512,  0.731848874054883 ]
    mass: 69.723000
    reduced_to: 25
  - symbol: Ga # 32
    coordinates: [  0.557155961506686,  0.369630966623512,  0.731848874054883 ]
    mass: 69.723000
    reduced_to: 25
  - symbol: Ga # 33
    coordinates: [  0.890489294840020,  0.369630966623512,  0.731848874054883 ]
    mass: 69.723000
    reduced_to: 25
  - symbol: Ga # 34
    coordinates: [  0.223822628173353,  0.869630966623512,  0.731848874054883 ]
    mass: 69.723000
    reduced_to: 25
  - symbol: Ga # 35
    coordinates: [  0.557155961506686,  0.869630966623512,  0.731848874054883 ]
    mass: 69.723000
    reduced_to: 25
  - symbol: Ga # 36
    coordinates: [  0.890489294840020,  0.869630966623512,  0.731848874054883 ]
    mass: 69.723000
    reduced_to: 25
  - symbol: Ga # 37
    coordinates: [  0.231926107253119,  0.049079153139119,  0.028014740766389 ]
    mass: 69.723000
    reduced_to: 37
  - symbol: Ga # 38
    coordinates: [  0.565259440586452,  0.049079153139119,  0.028014740766389 ]
    mass: 69.723000
    reduced_to: 37
  - symbol: Ga # 39
    coordinates: [  0.898592773919786,  0.049079153139119,  0.028014740766389 ]
    mass: 69.723000
    reduced_to: 37
  - symbol: Ga # 40
    coordinates: [  0.231926107253119,  0.549079153139118,  0.028014740766389 ]
    mass: 69.723000
    reduced_to: 37
  - symbol: Ga # 41
    coordinates: [  0.565259440586452,  0.549079153139118,  0.028014740766389 ]
    mass: 69.723000
    reduced_to: 37
  - symbol: Ga # 42
    coordinates: [  0.898592773919786,  0.549079153139118,  0.028014740766389 ]
    mass: 69.723000
    reduced_to: 37
  - symbol: Ga # 43
    coordinates: [  0.231926107253119,  0.049079153139119,  0.528014740766389 ]
    mass: 69.723000
    reduced_to: 37
  - symbol: Ga # 44
    coordinates: [  0.565259440586452,  0.049079153139119,  0.528014740766389 ]
    mass: 69.723000
    reduced_to: 37
  - symbol: Ga # 45
    coordinates: [  0.898592773919786,  0.049079153139119,  0.528014740766389 ]
    mass: 69.723000
    reduced_to: 37
  - symbol: Ga # 46
    coordinates: [  0.231926107253119,  0.549079153139118,  0.528014740766389 ]
    mass: 69.723000
    reduced_to: 37
  - symbol: Ga # 47
    coordinates: [  0.565259440586452,  0.549079153139118,  0.528014740766389 ]
    mass: 69.723000
    reduced_to: 37
  - symbol: Ga # 48
    coordinates: [  0.898592773919786,  0.549079153139118,  0.528014740766389 ]
    mass: 69.723000
    reduced_to: 37
  - symbol: Ga # 49
    coordinates: [  0.009758389629622,  0.390814654937213,  0.352852144519038 ]
    mass: 69.723000
    reduced_to: 49
  - symbol: Ga # 50
    coordinates: [  0.343091722962956,  0.390814654937213,  0.352852144519038 ]
    mass: 69.723000
    reduced_to: 49
  - symbol: Ga # 51
    coordinates: [  0.676425056296289,  0.390814654937213,  0.352852144519038 ]
    mass: 69.723000
    reduced_to: 49
  - symbol: Ga # 52
    coordinates: [  0.009758389629622,  0.890814654937213,  0.352852144519038 ]
    mass: 69.723000
    reduced_to: 49
  - symbol: Ga # 53
    coordinates: [  0.343091722962956,  0.890814654937213,  0.352852144519038 ]
    mass: 69.723000
    reduced_to: 49
  - symbol: Ga # 54
    coordinates: [  0.676425056296289,  0.890814654937213,  0.352852144519038 ]
    mass: 69.723000
    reduced_to: 49
  - symbol: Ga # 55
    coordinates: [  0.009758389629622,  0.390814654937213,  0.852852144519038 ]
    mass: 69.723000
    reduced_to: 49
  - symbol: Ga # 56
    coordinates: [  0.343091722962956,  0.390814654937213,  0.852852144519038 ]
    mass: 69.723000
    reduced_to: 49
  - symbol: Ga # 57
    coordinates: [  0.676425056296289,  0.390814654937213,  0.852852144519038 ]
    mass: 69.723000
    reduced_to: 49
  - symbol: Ga # 58
    coordinates: [  0.009758389629622,  0.890814654937213,  0.852852144519038 ]
    mass: 69.723000
    reduced_to: 49
  - symbol: Ga # 59
    coordinates: [  0.343091722962956,  0.890814654937213,  0.852852144519038 ]
    mass: 69.723000
    reduced_to: 49
  - symbol: Ga # 60
    coordinates: [  0.676425056296289,  0.890814654937213,  0.852852144519038 ]
    mass: 69.723000
    reduced_to: 49
  - symbol: Sn # 61
    coordinates: [  0.009621258230892,  0.186013380674686,  0.058053833818654 ]
    mass: 118.710000
    reduced_to: 61
  - symbol: Sn # 62
    coordinates: [  0.342954591564225,  0.186013380674686,  0.058053833818654 ]
    mass: 118.710000
    reduced_to: 61
  - symbol: Sn # 63
    coordinates: [  0.676287924897559,  0.186013380674686,  0.058053833818654 ]
    mass: 118.710000
    reduced_to: 61
  - symbol: Sn # 64
    coordinates: [  0.009621258230892,  0.686013380674686,  0.058053833818654 ]
    mass: 118.710000
    reduced_to: 61
  - symbol: Sn # 65
    coordinates: [  0.342954591564225,  0.686013380674686,  0.058053833818654 ]
    mass: 118.710000
    reduced_to: 61
  - symbol: Sn # 66
    coordinates: [  0.676287924897559,  0.686013380674686,  0.058053833818654 ]
    mass: 118.710000
    reduced_to: 61
  - symbol: Sn # 67
    coordinates: [  0.009621258230892,  0.186013380674686,  0.558053833818654 ]
    mass: 118.710000
    reduced_to: 61
  - symbol: Sn # 68
    coordinates: [  0.342954591564225,  0.186013380674686,  0.558053833818654 ]
    mass: 118.710000
    reduced_to: 61
  - symbol: Sn # 69
    coordinates: [  0.676287924897559,  0.186013380674686,  0.558053833818654 ]
    mass: 118.710000
    reduced_to: 61
  - symbol: Sn # 70
    coordinates: [  0.009621258230892,  0.686013380674686,  0.558053833818654 ]
    mass: 118.710000
    reduced_to: 61
  - symbol: Sn # 71
    coordinates: [  0.342954591564225,  0.686013380674686,  0.558053833818654 ]
    mass: 118.710000
    reduced_to: 61
  - symbol: Sn # 72
    coordinates: [  0.676287924897559,  0.686013380674686,  0.558053833818654 ]
    mass: 118.710000
    reduced_to: 61

displacements:
- atom:    1
  displacement:
    [   0.0100000000000000,  0.0000000000000000,  0.0000000000000000 ]
  forces:
  - [  -0.0227696225047112,  0.1261415928602219,  0.0062137683853507 ]
  - [   0.0013353415997699,  0.1263384521007538,  0.0062004290521145 ]
  - [   0.0013284800807014,  0.1259548664093018,  0.0061699831858277 ]
  - [   0.0001529650762677,  0.1262448728084564,  0.0061843558214605 ]
  - [   0.0004995460622013,  0.1261092573404312,  0.0061967214569449 ]
  - [   0.0005011423490942,  0.1261013895273209,  0.0061761559918523 ]
  - [   0.0004149970482104,  0.1261261105537415,  0.0061802612617612 ]
  - [   0.0005907739978284,  0.1261793971061707,  0.0061249476857483 ]
  - [   0.0005897120572627,  0.1261465400457382,  0.0062522878870368 ]
  - [   0.0004438739269972,  0.1261607706546783,  0.0061935996636748 ]
  - [   0.0004267450422049,  0.1261436194181442,  0.0061812945641577 ]
  - [   0.0004288968630135,  0.1261440515518188,  0.0061858426779509 ]
  - [  -0.0002780127397273, -0.0270886607468128, -0.0356621928513050 ]
  - [  -0.0002968142507598, -0.0271175876259804, -0.0356621704995632 ]
  - [  -0.0002975873358082, -0.0270785763859749, -0.0356620773673058 ]
  - [  -0.0001011150598060, -0.0270378664135933, -0.0354468375444412 ]
  - [  -0.0002441473770887, -0.0270927902311087, -0.0356591828167439 ]
  - [  -0.0001044244490913, -0.0271592568606138, -0.0358759313821793 ]
  - [  -0.0001320904120803, -0.0269674379378557, -0.0355055704712868 ]
  - [  -0.0001514395698905, -0.0272281114012003, -0.0358146578073502 ]
  - [  -0.0002796924673021, -0.0270915664732456, -0.0356609672307968 ]
  - [  -0.0005084704607725, -0.0270945206284523, -0.0356612950563431 ]
  - [  -0.0003063241019845, -0.0270944386720657, -0.0357298962771893 ]
  - [  -0.0003077425062656, -0.0270948670804501, -0.0355934239923954 ]
  - [   0.0050326497294009, -0.0267353653907776,  0.0544996559619904 ]
  - [   0.0015427088364959, -0.0274835675954819,  0.0510510131716728 ]
  - [   0.0049518058076501, -0.0282130874693394,  0.0477348007261753 ]
  - [   0.0017613423988223, -0.0275167152285576,  0.0510534867644310 ]
  - [   0.0015869066119194, -0.0272313114255667,  0.0509249158203602 ]
  - [   0.0016603819094598, -0.0276905987411737,  0.0512453280389309 ]
  - [   0.0014445367269218, -0.0274921003729105,  0.0510597303509712 ]
  - [   0.0006629005074501, -0.0275027342140675,  0.0516510456800461 ]
  - [   0.0006472417153418, -0.0274452976882458,  0.0505095720291138 ]
  - [   0.0016487676184624, -0.0275172851979733,  0.0510742291808128 ]
  - [   0.0016783269820735, -0.0274855922907591,  0.0510996356606483 ]
  - [   0.0016274518566206, -0.0274385809898376,  0.0510371215641499 ]
  - [   0.0035126362927258, -0.1122199296951294, -0.0698797777295113 ]
  - [   0.0039178580045700, -0.1118337213993073, -0.0698592439293861 ]
  - [   0.0038952091708779, -0.1126020476222038, -0.0698983743786812 ]
  - [   0.0081926360726357, -0.1083601489663124, -0.0694876313209534 ]
  - [   0.0040997909381986, -0.1122405976057053, -0.0698754265904427 ]
  - [   0.0080890739336610, -0.1159919202327728, -0.0702681988477707 ]
  - [   0.0041409223340452, -0.1121741235256195, -0.0698934420943260 ]
  - [   0.0041347919031978, -0.1122266799211502, -0.0698980763554573 ]
  - [   0.0041204593144357, -0.1122914031147957, -0.0698340460658073 ]
  - [   0.0041993856430054, -0.1123274192214012, -0.0699533596634865 ]
  - [   0.0040726698935032, -0.1122414916753769, -0.0696851164102554 ]
  - [   0.0041505564004183, -0.1121212691068649, -0.0699856281280518 ]
  - [  -0.0018992093391716,  0.0009195543825626, -0.0551377311348915 ]
  - [  -0.0030785622075200,  0.0008432529866695, -0.0556348450481892 ]
  - [  -0.0030429735779762,  0.0009893663227558, -0.0545816868543625 ]
  - [  -0.0020892187021673,  0.0009356215596199, -0.0550489462912083 ]
  - [  -0.0020870682783425,  0.0009461082518101, -0.0551614314317703 ]
  - [  -0.0020691067911685,  0.0008732303977013, -0.0551340803503990 ]
  - [   0.0018175113946199,  0.0012650601565838, -0.0512348897755146 ]
  - [   0.0019295655656606,  0.0005809143185616, -0.0590729899704456 ]
  - [  -0.0023052881006151,  0.0009126774966717, -0.0551259517669678 ]
  - [  -0.0021130898967385,  0.0006901845335960, -0.0552546977996826 ]
  - [  -0.0019307958427817,  0.0008900389075279, -0.0550922416150570 ]
  - [  -0.0021708854474127,  0.0011734738945961, -0.0549957118928432 ]
  - [  -0.0004496572946664,  0.0442515499889851,  0.1028803214430809 ]
  - [  -0.0003917999565601,  0.0351293012499809,  0.1039141044020653 ]
  - [  -0.0044755940325558,  0.0397355221211910,  0.1033925861120224 ]
  - [  -0.0036232238635421,  0.0397252961993217,  0.1033919453620911 ]
  - [  -0.0052284682169557,  0.0386629961431026,  0.1032417938113213 ]
  - [  -0.0051901875995100,  0.0407792218029499,  0.1035394519567490 ]
  - [  -0.0038743987679482,  0.0396253578364849,  0.1033038645982742 ]
  - [  -0.0038398941978812,  0.0397999808192253,  0.1033098399639130 ]
  - [  -0.0039276191964746,  0.0397909693419933,  0.1035698428750038 ]
  - [  -0.0039094649255276,  0.0397839359939098,  0.1033955290913582 ]
  - [  -0.0039158295840025,  0.0397262163460255,  0.1034427657723427 ]
  - [  -0.0038407370448112,  0.0397078916430473,  0.1033454090356827 ]
- atom:    1
  displacement:
    [  -0.0100000000000000,  0.0000000000000000,  0.0000000000000000 ]
  forces:
  - [   0.0236384123563766,  0.1260949373245239,  0.0061765331774950 ]
  - [  -0.0004618971724994,  0.1259533911943436,  0.0061700660735369 ]
  - [  -0.0004683656734414,  0.1263373196125031,  0.0062004211358726 ]
  - [   0.0007205484434962,  0.1260606050491333,  0.0061870892532170 ]
  - [   0.0003658025525510,  0.1261966675519943,  0.0061732982285321 ]
  - [   0.0003671324811876,  0.1262004822492599,  0.0061962585896254 ]
  - [   0.0004519184585661,  0.1261745989322662,  0.0061902632005513 ]
  - [   0.0002771463186946,  0.1261213570833206,  0.0062491185963154 ]
  - [   0.0002763847587630,  0.1261560767889023,  0.0061180759221315 ]
  - [   0.0004254514351487,  0.1261379718780518,  0.0061799190007150 ]
  - [   0.0004382133483887,  0.1261551231145859,  0.0061927270144224 ]
  - [   0.0004400857724249,  0.1261550635099411,  0.0061883879825473 ]
  - [  -0.0002004890702665, -0.0271009076386690, -0.0356661118566990 ]
  - [  -0.0001825738290790, -0.0270729046314955, -0.0356598794460297 ]
  - [  -0.0001797872828320, -0.0271126963198185, -0.0356602929532528 ]
  - [  -0.0003789186012000, -0.0271550230681896, -0.0358740165829659 ]
  - [  -0.0002335373865208, -0.0270999819040298, -0.0356629751622677 ]
  - [  -0.0003714691265486, -0.0270337052643299, -0.0354444943368435 ]
  - [  -0.0003449218347669, -0.0272233374416828, -0.0358128249645233 ]
  - [  -0.0003270064480603, -0.0269614458084106, -0.0355034470558167 ]
  - [  -0.0001972573809326, -0.0270987786352634, -0.0356634967029095 ]
  - [   0.0000307634472847, -0.0270883738994598, -0.0356684401631355 ]
  - [  -0.0001705624163151, -0.0270975641906261, -0.0355907082557678 ]
  - [  -0.0001701237633824, -0.0270977150648832, -0.0357271879911423 ]
  - [  -0.0016380845336244, -0.0282156858593225,  0.0477296896278858 ]
  - [   0.0017585164168850, -0.0274783894419670,  0.0510877631604671 ]
  - [  -0.0017453539185226, -0.0267365798354149,  0.0544971562922001 ]
  - [   0.0015393490903080, -0.0274450778961182,  0.0510965362191200 ]
  - [   0.0017115473747253, -0.0277271959930658,  0.0512229390442371 ]
  - [   0.0016341130249202, -0.0272638499736786,  0.0509039498865604 ]
  - [   0.0018572863191366, -0.0274724066257477,  0.0510985553264618 ]
  - [   0.0026234169490635, -0.0274551399052143,  0.0504920035600662 ]
  - [   0.0026589483022690, -0.0275121107697487,  0.0516323111951351 ]
  - [   0.0016529324930161, -0.0274441391229630,  0.0510650575160980 ]
  - [   0.0016248314641416, -0.0274753514677286,  0.0510442331433296 ]
  - [   0.0016704658046365, -0.0275217145681381,  0.0511009134352207 ]
  - [   0.0047466456890106, -0.1122199147939682, -0.0698785856366158 ]
  - [   0.0043329298496246, -0.1126023232936859, -0.0698986873030663 ]
  - [   0.0043680174276233, -0.1118402406573296, -0.0698585808277130 ]
  - [   0.0001982789253816, -0.1159852072596550, -0.0702643245458603 ]
  - [   0.0041639157570899, -0.1122202575206757, -0.0698792710900307 ]
  - [   0.0000406938779633, -0.1083527728915215, -0.0694841146469116 ]
  - [   0.0041211573407054, -0.1122887581586838, -0.0698567777872086 ]
  - [   0.0041285422630608, -0.1122347861528397, -0.0698550492525101 ]
  - [   0.0041412049904466, -0.1121691465377808, -0.0699137747287750 ]
  - [   0.0040608160197735, -0.1121304035186768, -0.0697969570755959 ]
  - [   0.0041931299492717, -0.1122192665934563, -0.0700664147734642 ]
  - [   0.0041105533018708, -0.1123391985893250, -0.0697612687945366 ]
  - [  -0.0022709816694260,  0.0009163729846478, -0.0551128350198269 ]
  - [  -0.0010997129138559,  0.0009903497993946, -0.0545953772962093 ]
  - [  -0.0011127290781587,  0.0008440986275673, -0.0556478202342987 ]
  - [  -0.0020779864862561,  0.0009027086198330, -0.0551803186535835 ]
  - [  -0.0020787052344531,  0.0008888393640518, -0.0550675466656685 ]
  - [  -0.0020938892848790,  0.0009629987180233, -0.0550957992672920 ]
  - [  -0.0060849389992654,  0.0005768053233624, -0.0590841919183731 ]
  - [  -0.0059913787990808,  0.0012600421905518, -0.0512476563453674 ]
  - [  -0.0018580520991236,  0.0009217485785484, -0.0550955459475517 ]
  - [  -0.0020526628941298,  0.0011489428579807, -0.0549737513065338 ]
  - [  -0.0022349110804498,  0.0009439550340176, -0.0551365688443184 ]
  - [  -0.0020034345798194,  0.0006635561585426, -0.0552334897220135 ]
  - [  -0.0073978896252811,  0.0351407118141651,  0.1039133220911026 ]
  - [  -0.0073192231357098,  0.0442600622773170,  0.1028797551989555 ]
  - [  -0.0033112056553364,  0.0397393144667149,  0.1033936589956284 ]
  - [  -0.0041622375138104,  0.0396977737545967,  0.1033931523561478 ]
  - [  -0.0025849044322968,  0.0407874956727028,  0.1035375446081161 ]
  - [  -0.0025698989629745,  0.0386681333184242,  0.1032408922910690 ]
  - [  -0.0039087599143386,  0.0398514680564404,  0.1034850999712944 ]
  - [  -0.0039436649531126,  0.0396783761680126,  0.1034792214632034 ]
  - [  -0.0038576461374760,  0.0396859571337700,  0.1032186672091484 ]
  - [  -0.0038695791736245,  0.0396932326257229,  0.1033950448036194 ]
  - [  -0.0038690660148859,  0.0397540554404259,  0.1033454611897469 ]
  - [  -0.0039453413337469,  0.0397719107568264,  0.1034435331821442 ]
- atom:    1
  displacement:
    [   0.0038132070251031,  0.0092444281696438,  0.0000000000000000 ]
  forces:
  - [  -0.0084154438227415,  0.1178203374147415,  0.0054778228513896 ]
  - [   0.0006005199975334,  0.1263092458248138,  0.0061481986194849 ]
  - [   0.0009554115822539,  0.1261629164218903,  0.0061391848139465 ]
  - [   0.0004129959270358,  0.1266201585531235,  0.0060535520315170 ]
  - [   0.0004141749814153,  0.1265209168195724,  0.0061193914152682 ]
  - [   0.0004189256578684,  0.1265169531106949,  0.0060753598809242 ]
  - [   0.0004042535729241,  0.1261822730302811,  0.0061304490081966 ]
  - [   0.0004876914317720,  0.1261792480945587,  0.0061521106399596 ]
  - [   0.0005206375499256,  0.1261667162179947,  0.0061692688614130 ]
  - [   0.0004486497491598,  0.1261086016893387,  0.0063146161846817 ]
  - [   0.0004246514290571,  0.1261567026376724,  0.0062222597189248 ]
  - [   0.0004273382946849,  0.1261564344167709,  0.0062242513522506 ]
  - [  -0.0002572416560724, -0.0269601568579674, -0.0359453037381172 ]
  - [  -0.0003786142333411, -0.0270811393857002, -0.0358384214341640 ]
  - [  -0.0001414439757355, -0.0270576532930136, -0.0358311273157597 ]
  - [   0.0000265146372840, -0.0269874315708876, -0.0352745279669762 ]
  - [  -0.0002345645043533, -0.0271367579698563, -0.0356886833906174 ]
  - [  -0.0004058995109517, -0.0270110480487347, -0.0354527048766613 ]
  - [  -0.0002197222784162, -0.0269578844308853, -0.0354253016412258 ]
  - [  -0.0001971051096916, -0.0270357690751553, -0.0355532728135586 ]
  - [  -0.0002448675222695, -0.0270970929414034, -0.0356876961886883 ]
  - [  -0.0003411285579205, -0.0272227600216866, -0.0353080146014690 ]
  - [  -0.0002308152616024, -0.0271357875317335, -0.0357750505208969 ]
  - [  -0.0002988092601299, -0.0271238535642624, -0.0357331484556198 ]
  - [   0.0029343881178647, -0.0276492107659578,  0.0518895015120506 ]
  - [   0.0016085556708276, -0.0275116506963968,  0.0511043518781662 ]
  - [   0.0029179903212935, -0.0281992647796869,  0.0493131764233112 ]
  - [   0.0016692504286766, -0.0281585734337568,  0.0516628324985504 ]
  - [   0.0017119986005127, -0.0276086982339621,  0.0511629320681095 ]
  - [   0.0015904633328319, -0.0276419594883919,  0.0516443029046059 ]
  - [   0.0015729689039290, -0.0272096972912550,  0.0512765683233738 ]
  - [   0.0012571411207318, -0.0273797325789928,  0.0512845888733864 ]
  - [   0.0012800805270672, -0.0273270532488823,  0.0508607998490334 ]
  - [   0.0015154272550717, -0.0275753065943718,  0.0511537082493305 ]
  - [   0.0016672017518431, -0.0275119189172983,  0.0510140880942345 ]
  - [   0.0017700095195323, -0.0275206528604031,  0.0511696003377438 ]
  - [   0.0039217625744641, -0.1111575067043304, -0.0697931349277496 ]
  - [   0.0041656298562884, -0.1121025159955025, -0.0697816610336304 ]
  - [   0.0039135841652751, -0.1125224009156227, -0.0698141902685165 ]
  - [   0.0097066033631563, -0.1088126897811890, -0.0696131363511086 ]
  - [   0.0041298735886812, -0.1121823787689209, -0.0698731392621994 ]
  - [   0.0016654211794958, -0.1117709353566170, -0.0699095427989960 ]
  - [   0.0041358163580298, -0.1122683137655258, -0.0698861330747604 ]
  - [   0.0041489535942674, -0.1122717410326004, -0.0699158012866974 ]
  - [   0.0041095074266195, -0.1123041957616806, -0.0698539167642593 ]
  - [   0.0041768634691834, -0.1122233346104622, -0.0703115388751030 ]
  - [   0.0040968758985400, -0.1122297719120979, -0.0698304623365402 ]
  - [   0.0041305320337415, -0.1122708767652512, -0.0699608922004700 ]
  - [  -0.0020133098587394,  0.0011305361986160, -0.0541962385177612 ]
  - [  -0.0023073125630617,  0.0010473132133484, -0.0550820976495743 ]
  - [  -0.0026052366010845,  0.0010621510446072, -0.0547054931521416 ]
  - [  -0.0021890429779887,  0.0008099600672722, -0.0551461130380630 ]
  - [  -0.0020908645819873,  0.0009151771664619, -0.0550714582204819 ]
  - [  -0.0019672312773764,  0.0008097179234028, -0.0552049353718758 ]
  - [  -0.0002754275337793,  0.0007476098835468, -0.0529837943613529 ]
  - [  -0.0008702288032509,  0.0004760622978210, -0.0559606626629829 ]
  - [  -0.0021697618067265,  0.0009034723043442, -0.0551416613161564 ]
  - [  -0.0021774612832814,  0.0005068741738796, -0.0551330372691154 ]
  - [  -0.0020294005516917,  0.0002199485898018, -0.0553449019789696 ]
  - [  -0.0020314557477832,  0.0007903203368187, -0.0552099123597145 ]
  - [   0.0008581643924117,  0.0440893471240997,  0.1027578487992287 ]
  - [  -0.0060744592919946,  0.0406656526029110,  0.1031405478715897 ]
  - [  -0.0041074370965362,  0.0398976057767868,  0.1034528538584709 ]
  - [  -0.0037754308432341,  0.0410294346511364,  0.1025805100798607 ]
  - [  -0.0057062208652496,  0.0385292321443558,  0.1032593697309494 ]
  - [  -0.0031065084040165,  0.0392579063773155,  0.1033735573291779 ]
  - [  -0.0038756495341659,  0.0397469922900200,  0.1029593870043755 ]
  - [  -0.0038685593754053,  0.0397040918469429,  0.1034116446971893 ]
  - [  -0.0039185099303722,  0.0397714972496033,  0.1034623533487320 ]
  - [  -0.0038956124335527,  0.0397471003234386,  0.1033475399017334 ]
  - [  -0.0039073359221220,  0.0397279486060143,  0.1033748164772987 ]
  - [  -0.0038686729967594,  0.0397313088178635,  0.1033537238836288 ]
- atom:    1
  displacement:
    [  -0.0038132070251031, -0.0092444281696438,  0.0000000000000000 ]
  forces:
  - [   0.0092396885156631,  0.1342943906784058,  0.0069059547968209 ]
  - [   0.0002683001803234,  0.1259830892086029,  0.0062221866101027 ]
  - [  -0.0000861817097757,  0.1261293292045593,  0.0062317405827343 ]
  - [   0.0004592854529619,  0.1256769746541977,  0.0063174651004374 ]
  - [   0.0004547243006527,  0.1257792562246323,  0.0062516042962670 ]
  - [   0.0004488616250455,  0.1257800161838531,  0.0062960768118501 ]
  - [   0.0004629042232409,  0.1261178553104401,  0.0062428200617433 ]
  - [   0.0003774637298193,  0.1261215806007385,  0.0062208860181272 ]
  - [   0.0003479885635898,  0.1261351108551025,  0.0062028951942921 ]
  - [   0.0004208376631141,  0.1261908411979675,  0.0060578244738281 ]
  - [   0.0004394296556711,  0.1261430084705353,  0.0061522135511041 ]
  - [   0.0004418585449457,  0.1261430829763412,  0.0061501720920205 ]
  - [  -0.0002250040852232, -0.0272706635296345, -0.0353341698646545 ]
  - [  -0.0001007095343084, -0.0271096695214510, -0.0354836322367191 ]
  - [  -0.0003331702610012, -0.0271310210227966, -0.0354902558028698 ]