# Thermal properties / unit cell (natom)

unit:
  temperature:   K
  free_energy:   kJ/mol
  entropy:       J/K/mol
  heat_capacity: J/K/mol

natom: 6    
cutoff_frequency: 0.00000
num_modes: 145080
num_integrated_modes: 145053

zero_point_energy:      17.2256414

thermal_properties:
- temperature:         0.0000000
  free_energy:        17.2256414
  entropy:             0.0000000
  heat_capacity:       0.0000000
  energy:             17.2256414

- temperature:        10.0000000
  free_energy:        17.2226550
  entropy:             1.0596124
  heat_capacity:       2.9075986
  energy:             17.2332512

- temperature:        20.0000000
  free_energy:        17.1865746
  entropy:             7.2581523
  heat_capacity:      18.6252129
  energy:             17.3317376

- temperature:        30.0000000
  free_energy:        17.0609838
  entropy:            18.3261483
  heat_capacity:      36.4659677
  energy:             17.6107683

- temperature:        40.0000000
  free_energy:        16.8159753
  entropy:            30.7079067
  heat_capacity:      49.5248594
  energy:             18.0442915

- temperature:        50.0000000
  free_energy:        16.4476814
  entropy:            42.8702480
  heat_capacity:      59.5329504
  energy:             18.5911938

- temperature:        60.0000000
  free_energy:        15.9603506
  entropy:            54.5070305
  heat_capacity:      68.2472924
  energy:             19.2307724

- temperature:        70.0000000
  free_energy:        15.3592203
  entropy:            65.6403651
  heat_capacity:      76.3161070
  energy:             19.9540459

- temperature:        80.0000000
  free_energy:        14.6490266
  entropy:            76.3278133
  heat_capacity:      83.8280816
  energy:             20.7552517

- temperature:        90.0000000
  free_energy:        13.8340271
  entropy:            86.6057252
  heat_capacity:      90.7212913
  energy:             21.6285424

- temperature:       100.0000000
  free_energy:        12.9182161
  entropy:            96.4921906
  heat_capacity:      96.9434395
  energy:             22.5674352

- temperature:       110.0000000
  free_energy:        11.9054547
  entropy:           105.9971955
  heat_capacity:     102.4873872
  energy:             23.5651462

- temperature:       120.0000000
  free_energy:        10.7995156
  entropy:           115.1292226
  heat_capacity:     107.3839009
  energy:             24.6150223

- temperature:       130.0000000
  free_energy:         9.6040808
  entropy:           123.8981658
  heat_capacity:     111.6861490
  energy:             25.7108424

- temperature:       140.0000000
  free_energy:         8.3227226
  entropy:           132.3160766
  heat_capacity:     115.4568337
  energy:             26.8469734

- temperature:       150.0000000
  free_energy:         6.9588830
  entropy:           140.3969167
  heat_capacity:     118.7598274
  energy:             28.0184205

- temperature:       160.0000000
  free_energy:         5.5158570
  entropy:           148.1559740
  heat_capacity:     121.6554986
  energy:             29.2208128

- temperature:       170.0000000
  free_energy:         3.9967828
  entropy:           155.6092520
  heat_capacity:     124.1985059
  energy:             30.4503557

- temperature:       180.0000000
  free_energy:         2.4046372
  entropy:           162.7729537
  heat_capacity:     126.4370717
  energy:             31.7037689

- temperature:       190.0000000
  free_energy:         0.7422356
  entropy:           169.6630892
  heat_capacity:     128.4130683
  energy:             32.9782225

- temperature:       200.0000000
  free_energy:        -0.9877646
  entropy:           176.2952009
  heat_capacity:     130.1625051
  energy:             34.2712756

- temperature:       210.0000000
  free_energy:        -2.7828581
  entropy:           182.6841842
  heat_capacity:     131.7161774
  energy:             35.5808206

- temperature:       220.0000000
  free_energy:        -4.6406851
  entropy:           188.8441802
  heat_capacity:     133.1003465
  energy:             36.9050346

- temperature:       230.0000000
  free_energy:        -6.5590230
  entropy:           194.7885235
  heat_capacity:     134.3373865
  energy:             38.2423374

- temperature:       240.0000000
  free_energy:        -8.5357785
  entropy:           200.5297260
  heat_capacity:     135.4463652
  energy:             39.5913557

- temperature:       250.0000000
  free_energy:       -10.5689794
  entropy:           206.0794872
  heat_capacity:     136.4435528
  energy:             40.9508924

- temperature:       260.0000000
  free_energy:       -12.6567666
  entropy:           211.4487204
  heat_capacity:     137.3428580
  energy:             42.3199007

- temperature:       270.0000000
  free_energy:       -14.7973860
  entropy:           216.6475896
  heat_capacity:     138.1561981
  energy:             43.6974632

- temperature:       280.0000000
  free_energy:       -16.9891821
  entropy:           221.6855518
  heat_capacity:     138.8938094
  energy:             45.0827724

- temperature:       290.0000000
  free_energy:       -19.2305901
  entropy:           226.5714019
  heat_capacity:     139.5645094
  energy:             46.4751164

- temperature:       300.0000000
  free_energy:       -21.5201304
  entropy:           231.3133182
  heat_capacity:     140.1759144
  energy:             47.8738651

- temperature:       310.0000000
  free_energy:       -23.8564021
  entropy:           235.9189073
  heat_capacity:     140.7346225
  energy:             49.2784592

- temperature:       320.0000000
  free_energy:       -26.2380778
  entropy:           240.3952463
  heat_capacity:     141.2463664
  energy:             50.6884011

- temperature:       330.0000000
  free_energy:       -28.6638982
  entropy:           244.7489239
  heat_capacity:     141.7161417
  energy:             52.1032467

- temperature:       340.0000000
  free_energy:       -31.1326679
  entropy:           248.9860779
  heat_capacity:     142.1483138
  energy:             53.5225986

- temperature:       350.0000000
  free_energy:       -33.6432505
  entropy:           253.1124311
  heat_capacity:     142.5467082
  energy:             54.9461004

- temperature:       360.0000000
  free_energy:       -36.1945650
  entropy:           257.1333234
  heat_capacity:     142.9146870
  energy:             56.3734314

- temperature:       370.0000000
  free_energy:       -38.7855821
  entropy:           261.0537425
  heat_capacity:     143.2552127
  energy:             57.8043027

- temperature:       380.0000000
  free_energy:       -41.4153205
  entropy:           264.8783512
  heat_capacity:     143.5709027
  energy:             59.2384529

- temperature:       390.0000000
  free_energy:       -44.0828443
  entropy:           268.6115128
  heat_capacity:     143.8640752
  energy:             60.6756457

- temperature:       400.0000000
  free_energy:       -46.7872596
  entropy:           272.2573147
  heat_capacity:     144.1367889
  energy:             62.1156663

- temperature:       410.0000000
  free_energy:       -49.5277122
  entropy:           275.8195893
  heat_capacity:     144.3908763
  energy:             63.5583194

- temperature:       420.0000000
  free_energy:       -52.3033850
  entropy:           279.3019337
  heat_capacity:     144.6279721
  energy:             65.0034272

- temperature:       430.0000000
  free_energy:       -55.1134957
  entropy:           282.7077275
  heat_capacity:     144.8495383
  energy:             66.4508271

- temperature:       440.0000000
  free_energy:       -57.9572950
  entropy:           286.0401489
  heat_capacity:     145.0568851
  energy:             67.9003706

- temperature:       450.0000000
  free_energy:       -60.8340641
  entropy:           289.3021899
  heat_capacity:     145.2511891
  energy:             69.3519213

- temperature:       460.0000000
  free_energy:       -63.7431136
  entropy:           292.4966695
  heat_capacity:     145.4335092
  energy:             70.8053544

- temperature:       470.0000000
  free_energy:       -66.6837812
  entropy:           295.6262467
  heat_capacity:     145.6048002
  energy:             72.2605548

- temperature:       480.0000000
  free_energy:       -69.6554306
  entropy:           298.6934314
  heat_capacity:     145.7659248
  energy:             73.7174165

- temperature:       490.0000000
  free_energy:       -72.6574498
  entropy:           301.7005954
  heat_capacity:     145.9176639
  energy:             75.1758420

- temperature:       500.0000000
  free_energy:       -75.6892499
  entropy:           304.6499815
  heat_capacity:     146.0607255
  energy:             76.6357409

- temperature:       510.0000000
  free_energy:       -78.7502639
  entropy:           307.5437130
  heat_capacity:     146.1957527
  energy:             78.0970297

- temperature:       520.0000000
  free_energy:       -81.8399453
  entropy:           310.3838009
  heat_capacity:     146.3233308
  energy:             79.5596311

- temperature:       530.0000000
  free_energy:       -84.9577675
  entropy:           313.1721524
  heat_capacity:     146.4439931
  energy:             81.0234733

- temperature:       540.0000000
  free_energy:       -88.1032220
  entropy:           315.9105769
  heat_capacity:     146.5582265
  energy:             82.4884896

- temperature:       550.0000000
  free_energy:       -91.2758183
  entropy:           318.6007931
  heat_capacity:     146.6664762
  energy:             83.9546179

- temperature:       560.0000000
  free_energy:       -94.4750826
  entropy:           321.2444341
  heat_capacity:     146.7691498
  energy:             85.4218005

- temperature:       570.0000000
  free_energy:       -97.7005569
  entropy:           323.8430534
  heat_capacity:     146.8666209
  energy:             86.8899835

- temperature:       580.0000000
  free_energy:      -100.9517985
  entropy:           326.3981297
  heat_capacity:     146.9592326
  energy:             88.3591167

- temperature:       590.0000000
  free_energy:      -104.2283791
  entropy:           328.9110714
  heat_capacity:     147.0473006
  energy:             89.8291530

- temperature:       600.0000000
  free_energy:      -107.5298840
  entropy:           331.3832209
  heat_capacity:     147.1311153
  energy:             91.3000486

- temperature:       610.0000000
  free_energy:      -110.8559118
  entropy:           333.8158588
  heat_capacity:     147.2109445
  energy:             92.7717621

- temperature:       620.0000000
  free_energy:      -114.2060735
  entropy:           336.2102073
  heat_capacity:     147.2870354
  energy:             94.2442550

- temperature:       630.0000000
  free_energy:      -117.5799922
  entropy:           338.5674338
  heat_capacity:     147.3596165
  energy:             95.7174911

- temperature:       640.0000000
  free_energy:      -120.9773022
  entropy:           340.8886539
  heat_capacity:     147.4288990
  energy:             97.1914363

- temperature:       650.0000000
  free_energy:      -124.3976488
  entropy:           343.1749347
  heat_capacity:     147.4950787
  energy:             98.6660587

- temperature:       660.0000000
  free_energy:      -127.8406878
  entropy:           345.4272970
  heat_capacity:     147.5583373
  energy:            100.1413282

- temperature:       670.0000000
  free_energy:      -131.3060850
  entropy:           347.6467183
  heat_capacity:     147.6188432
  energy:            101.6172163

- temperature:       680.0000000
  free_energy:      -134.7935155
  entropy:           349.8341352
  heat_capacity:     147.6767530
  energy:            103.0936964

- temperature:       690.0000000
  free_energy:      -138.3026640
  entropy:           351.9904452
  heat_capacity:     147.7322124
  energy:            104.5707432

- temperature:       700.0000000
  free_energy:      -141.8332236
  entropy:           354.1165093
  heat_capacity:     147.7853571
  energy:            106.0483329

- temperature:       710.0000000
  free_energy:      -145.3848961
  entropy:           356.2131537
  heat_capacity:     147.8363135
  energy:            107.5264430

- temperature:       720.0000000
  free_energy:      -148.9573913
  entropy:           358.2811716
  heat_capacity:     147.8851997
  energy:            109.0050523

- temperature:       730.0000000
  free_energy:      -152.5504267
  entropy:           360.3213249
  heat_capacity:     147.9321256
  energy:            110.4841405

- temperature:       740.0000000
  free_energy:      -156.1637273
  entropy:           362.3343459
  heat_capacity:     147.9771944
  energy:            111.9636886

- temperature:       750.0000000
  free_energy:      -159.7970255
  entropy:           364.3209387
  heat_capacity:     148.0205022
  energy:            113.4436785

- temperature:       760.0000000
  free_energy:      -163.4500603
  entropy:           366.2817807
  heat_capacity:     148.0621394
  energy:            114.9240931

- temperature:       770.0000000
  free_energy:      -167.1225774
  entropy:           368.2175240
  heat_capacity:     148.1021904
  energy:            116.4049160

- temperature:       780.0000000
  free_energy:      -170.8143292
  entropy:           370.1287962
  heat_capacity:     148.1407344
  energy:            117.8861319

- temperature:       790.0000000
  free_energy:      -174.5250738
  entropy:           372.0162022
  heat_capacity:     148.1778459
  energy:            119.3677259

- temperature:       800.0000000
  free_energy:      -178.2545756
  entropy:           373.8803248
  heat_capacity:     148.2135947
  energy:            120.8496842

- temperature:       810.0000000
  free_energy:      -182.0026046
  entropy:           375.7217260
  heat_capacity:     148.2480464
  energy:            122.3319935

- temperature:       820.0000000
  free_energy:      -185.7689362
  entropy:           377.5409479
  heat_capacity:     148.2812629
  energy:            123.8146410

- temperature:       830.0000000
  free_energy:      -189.5533514
  entropy:           379.3385135
  heat_capacity:     148.3133022
  energy:            125.2976148

- temperature:       840.0000000
  free_energy:      -193.3556360
  entropy:           381.1149278
  heat_capacity:     148.3442193
  energy:            126.7809034

- temperature:       850.0000000
  free_energy:      -197.1755810
  entropy:           382.8706784
  heat_capacity:     148.3740657
  energy:            128.2644957

- temperature:       860.0000000
  free_energy:      -201.0129822
  entropy:           384.6062366
  heat_capacity:     148.4028901
  energy:            129.7483813

- temperature:       870.0000000
  free_energy:      -204.8676400
  entropy:           386.3220577
  heat_capacity:     148.4307385
  energy:            131.2325502

- temperature:       880.0000000
  free_energy:      -208.7393591
  entropy:           388.0185818
  heat_capacity:     148.4576544
  energy:            132.7169929

- temperature:       890.0000000
  free_energy:      -212.6279487
  entropy:           389.6962349
  heat_capacity:     148.4836788
  energy:            134.2017003

- temperature:       900.0000000
  free_energy:      -216.5332222
  entropy:           391.3554288
  heat_capacity:     148.5088506
  energy:            135.6866637

- temperature:       910.0000000
  free_energy:      -220.4549971
  entropy:           392.9965623
  heat_capacity:     148.5332064
  energy:            137.1718746

- temperature:       920.0000000
  free_energy:      -224.3930946
  entropy:           394.6200215
  heat_capacity:     148.5567811
  energy:            138.6573252

- temperature:       930.0000000
  free_energy:      -228.3473398
  entropy:           396.2261802
  heat_capacity:     148.5796076
  energy:            140.1430077

- temperature:       940.0000000
  free_energy:      -232.3175617
  entropy:           397.8154007
  heat_capacity:     148.6017172
  energy:            141.6289149

- temperature:       950.0000000
  free_energy:      -236.3035926
  entropy:           399.3880341
  heat_capacity:     148.6231395
  energy:            143.1150398

- temperature:       960.0000000
  free_energy:      -240.3052682
  entropy:           400.9444206
  heat_capacity:     148.6439027
  energy:            144.6013755

- temperature:       970.0000000
  free_energy:      -244.3224279
  entropy:           402.4848904
  heat_capacity:     148.6640334
  energy:            146.0879157

- temperature:       980.0000000
  free_energy:      -248.3549141
  entropy:           404.0097635
  heat_capacity:     148.6835569
  energy:            147.5746542

- temperature:       990.0000000
  free_energy:      -252.4025722
  entropy:           405.5193507
  heat_capacity:     148.7024975
  energy:            149.0615849

- temperature:      1000.0000000
  free_energy:      -256.4652511
  entropy:           407.0139534
  heat_capacity:     148.7208780
  energy:            150.5487023
