# Tetrahedron method
       -1.9935925175        0.0000000000
       -1.9289161149        0.0000000000
       -1.8642397123        0.0000000000
       -1.7995633097        0.0000000000
       -1.7348869071        0.0000000000
       -1.6702105045        0.0000000000
       -1.6055341019        0.0000000000
       -1.5408576993        0.0000000000
       -1.4761812967        0.0000000000
       -1.4115048940        0.0000000000
       -1.3468284914        0.0000000000
       -1.2821520888        0.0000000000
       -1.2174756862        0.0000000000
       -1.1527992836        0.0000000000
       -1.0881228810        0.0000000000
       -1.0234464784        0.0000000000
       -0.9587700758        0.0000000000
       -0.8940936731        0.0017249371
       -0.8294172705        0.0152795918
       -0.7647408679        0.0260842879
       -0.7000644653        0.0353060285
       -0.6353880627        0.0382064706
       -0.5707116601        0.0357569364
       -0.5060352575        0.0372848417
       -0.4413588549        0.0348892104
       -0.3766824522        0.0326111918
       -0.3120060496        0.0305321222
       -0.2473296470        0.0276574353
       -0.1826532444        0.0278559441
       -0.1179768418        0.0282393793
       -0.0533004392        0.0286308185
        0.0113759634        0.0290130066
        0.0760523660        0.0297477119
        0.1407287686        0.0309665881
        0.2054051713        0.0326546214
        0.2700815739        0.0355268159
        0.3347579765        0.0400025484
        0.3994343791        0.0445104368
        0.4641107817        0.0501159032
        0.5287871843        0.0570963532
        0.5934635869        0.0656103428
        0.6581399895        0.0766823019
        0.7228163922        0.0889119345
        0.7874927948        0.1038924674
        0.8521691974        0.1214815113
        0.9168456000        0.1378002662
        0.9815220026        0.1540399058
        1.0461984052        0.1701033689
        1.1108748078        0.1969085632
        1.1755512104        0.1996981602
        1.2402276130        0.2196948718
        1.3049040157        0.2410292217
        1.3695804183        0.2630103938
        1.4342568209        0.2818069861
        1.4989332235        0.3138460853
        1.5636096261        0.3382935374
        1.6282860287        0.3506560603
        1.6929624313        0.3670105074
        1.7576388339        0.3835768623
        1.8223152366        0.4073584968
        1.8869916392        0.4308822596
        1.9516680418        0.4564298171
        2.0163444444        0.4846296513
        2.0810208470        0.5167447907
        2.1456972496        0.5467987043
        2.2103736522        0.5791293244
        2.2750500548        0.6111447928
        2.3397264574        0.6507057255
        2.4044028601        0.6828217502
        2.4690792627        0.7129616022
        2.5337556653        0.7458008175
        2.5984320679        0.7843440398
        2.6631084705        0.8342340631
        2.7277848731        0.8907673904
        2.7924612757        0.9637200118
        2.8571376783        1.0541257781
        2.9218140810        1.1306523233
        2.9864904836        1.1697384670
        3.0511668862        1.2113698419
        3.1158432888        1.2644851313
        3.1805196914        1.3171565374
        3.2451960940        1.3804683801
        3.3098724966        1.4523206608
        3.3745488992        1.5350498878
        3.4392253019        1.6992818673
        3.5039017045        1.8828280172
        3.5685781071        2.0696405950
        3.6332545097        2.3068169467
        3.6979309123        2.3313998807
        3.7626073149        1.9643458139
        3.8272837175        1.8516378232
        3.8919601201        1.5415727563
        3.9566365227        1.4341913543
        4.0213129254        1.3233297736
        4.0859893280        1.3132502959
        4.1506657306        1.4085485000
        4.2153421332        1.4071121076
        4.2800185358        1.3396129733
        4.3446949384        1.2537268604
        4.4093713410        1.2187960492
        4.4740477436        1.1966690802
        4.5387241463        1.1761264103
        4.6034005489        1.1747170782
        4.6680769515        1.1738680891
        4.7327533541        1.2703421474
        4.7974297567        1.4837414865
        4.8621061593        1.5304688669
        4.9267825619        1.6246732674
        4.9914589645        1.7898743474
        5.0561353671        1.8817550101
        5.1208117698        1.8635956333
        5.1854881724        1.8011627482
        5.2501645750        1.8252212602
        5.3148409776        1.6467701189
        5.3795173802        1.6083435226
        5.4441937828        1.5694415895
        5.5088701854        1.5921178569
        5.5735465880        1.6928937583
        5.6382229907        1.6579924863
        5.7028993933        1.6385780900
        5.7675757959        1.6221714889
        5.8322521985        1.5815040847
        5.8969286011        1.5372058492
        5.9616050037        1.5346934205
        6.0262814063        1.5206842353
        6.0909578089        1.5570847722
        6.1556342116        1.5594654582
        6.2203106142        1.5727801479
        6.2849870168        1.6112504746
        6.3496634194        1.6343386267
        6.4143398220        1.6255926791
        6.4790162246        1.6725244962
        6.5436926272        1.6964354244
        6.6083690298        1.6119975860
        6.6730454324        1.5451025022
        6.7377218351        1.5119923437
        6.8023982377        1.4567328813
        6.8670746403        1.4629473489
        6.9317510429        1.4994143244
        6.9964274455        1.5332823138
        7.0611038481        1.5918977180
        7.1257802507        1.6641608743
        7.1904566533        1.8157481584
        7.2551330560        1.8353931103
        7.3198094586        1.8453204353
        7.3844858612        1.8016336173
        7.4491622638        1.7719019716
        7.5138386664        1.7480366456
        7.5785150690        1.7212596153
        7.6431914716        1.6848538979
        7.7078678742        1.6566081517
        7.7725442768        1.4926733645
        7.8372206795        1.3832820601
        7.9018970821        1.2286450920
        7.9665734847        1.1003029985
        8.0312498873        1.1554366615
        8.0959262899        1.1689847057
        8.1606026925        1.0850461814
        8.2252790951        1.1547394408
        8.2899554977        1.2349265051
        8.3546319004        1.1283348912
        8.4193083030        1.1746339941
        8.4839847056        1.3001230141
        8.5486611082        1.4268209865
        8.6133375108        1.5858950456
        8.6780139134        1.9227736972
        8.7426903160        2.2728126539
        8.8073667186        2.5687923828
        8.8720431213        2.4754433874
        8.9367195239        2.7097403910
        9.0013959265        2.6741215461
        9.0660723291        2.6814432158
        9.1307487317        2.5779832876
        9.1954251343        2.3181056621
        9.2601015369        2.2665212597
        9.3247779395        1.8598854447
        9.3894543421        1.4936776038
        9.4541307448        1.3765809599
        9.5188071474        1.2644880301
        9.5834835500        1.0811950195
        9.6481599526        0.8003720336
        9.7128363552        0.5734617423
        9.7775127578        0.2515475006
        9.8421891604        0.1198892371
        9.9068655630        0.0000000000
        9.9715419657        0.0000000000
       10.0362183683        0.0000000000
       10.1008947709        0.0000000000
       10.1655711735        0.0000000000
       10.2302475761        0.0000000000
       10.2949239787        0.0000000000
       10.3596003813        0.0000000000
       10.4242767839        0.0000000000
       10.4889531865        0.0000000000
       10.5536295892        0.0000000000
       10.6183059918        0.0000000000
       10.6829823944        0.0000000000
       10.7476587970        0.0000000000
       10.8123351996        0.0000000000
       10.8770116022        0.0000000000
       10.9416880048        0.0000000000
