phonopy:
  version: "2.37.1"
  frequency_unit_conversion_factor: 15.633302
  symmetry_tolerance: 1.00000e-05

space_group:
  type: "P1"
  number: 1
  Hall_symbol: "P 1"

primitive_matrix:
- [  1.000000000000000,  0.000000000000000, -1.000000000000000 ]
- [ -1.000000000000000,  0.000000000000000,  0.000000000000000 ]
- [  0.000000000000000,  1.000000000000000,  0.000000000000000 ]

supercell_matrix:
- [   2,   0,   0 ]
- [   0,   2,   0 ]
- [   0,   0,   2 ]

primitive_cell:
  lattice:
  - [     3.392857286591842,    -5.879581810969340,     0.000000000000000 ] # a
  - [     3.393569681605357,     1.959355899718575,     5.543301829549231 ] # b
  - [    -6.789073201833927,     0.000000000000000,     0.000000000000000 ] # c
  points:
  - symbol: Sn # 1
    coordinates: [  0.826352356973798,  0.911120846390381,  0.208325926409042 ]
    mass: 118.710000
  - symbol: Sn # 2
    coordinates: [  0.326877973156467,  0.412375925586951,  0.709429282148842 ]
    mass: 118.710000
  - symbol: Sn # 3
    coordinates: [  0.327820474869471,  0.409229654708178,  0.211496805450175 ]
    mass: 118.710000
  - symbol: Sn # 4
    coordinates: [  0.830117176529065,  0.410003733218688,  0.215252412078896 ]
    mass: 118.710000
  - symbol: Sn # 5
    coordinates: [  0.330204838081204,  0.908126657683411,  0.210524987053732 ]
    mass: 118.710000
  - symbol: Sn # 6
    coordinates: [  0.828914583635208,  0.411473971675231,  0.713607887618329 ]
    mass: 118.710000
  - symbol: Sn # 7
    coordinates: [  0.828570094606769,  0.910563791866202,  0.708854737177370 ]
    mass: 118.710000
  - symbol: Sn # 8
    coordinates: [  0.326756742920902,  0.910499248950524,  0.709250677617717 ]
    mass: 118.710000
  reciprocal_lattice: # without 2pi
  - [    -0.000000000000000,    -0.170080123408494,     0.060117147410029 ] # a*
  - [    -0.000000000000000,    -0.000000000000000,     0.180397898355341 ] # b*
  - [    -0.147295510045446,    -0.084997991457077,     0.120216959791032 ] # c*

unit_cell:
  lattice:
  - [     6.789073201833927,     0.000000000000000,     0.000000000000000 ] # a
  - [     3.396215915242086,     5.879581810969340,     0.000000000000000 ] # b
  - [     3.393569681605356,     1.959355899718575,     5.543301829549232 ] # c
  points:
  - symbol: Sn # 1
    coordinates: [  0.618026430564756,  0.173647643026202,  0.911120846390381 ]
    mass: 118.710000
    reduced_to: 1
  - symbol: Sn # 2
    coordinates: [  0.617448691007625,  0.673122026843533,  0.412375925586951 ]
    mass: 118.710000
    reduced_to: 2
  - symbol: Sn # 3
    coordinates: [  0.116323669419296,  0.672179525130529,  0.409229654708178 ]
    mass: 118.710000
    reduced_to: 3
  - symbol: Sn # 4
    coordinates: [  0.614864764450170,  0.169882823470935,  0.410003733218688 ]
    mass: 118.710000
    reduced_to: 4
  - symbol: Sn # 5
    coordinates: [  0.119679851027472,  0.669795161918796,  0.908126657683411 ]
    mass: 118.710000
    reduced_to: 5
  - symbol: Sn # 6
    coordinates: [  0.115306696016879,  0.171085416364792,  0.411473971675231 ]
    mass: 118.710000
    reduced_to: 6
  - symbol: Sn # 7
    coordinates: [  0.119715357429399,  0.171429905393231,  0.910563791866202 ]
    mass: 118.710000
    reduced_to: 7
  - symbol: Sn # 8
    coordinates: [  0.617506065303185,  0.673243257079098,  0.910499248950524 ]
    mass: 118.710000
    reduced_to: 8

supercell:
  lattice:
  - [    13.578146403667855,     0.000000000000000,     0.000000000000000 ] # a
  - [     6.792431830484172,    11.759163621938679,     0.000000000000000 ] # b
  - [     6.787139363210711,     3.918711799437150,    11.086603659098463 ] # c
  points:
  - symbol: Sn # 1
    coordinates: [  0.309013215282378,  0.086823821513101,  0.455560423195190 ]
    mass: 118.710000
    reduced_to: 1
  - symbol: Sn # 2
    coordinates: [  0.809013215282378,  0.086823821513101,  0.455560423195190 ]
    mass: 118.710000
    reduced_to: 1
  - symbol: Sn # 3
    coordinates: [  0.309013215282378,  0.586823821513101,  0.455560423195190 ]
    mass: 118.710000
    reduced_to: 1
  - symbol: Sn # 4
    coordinates: [  0.809013215282378,  0.586823821513101,  0.455560423195190 ]
    mass: 118.710000
    reduced_to: 1
  - symbol: Sn # 5
    coordinates: [  0.309013215282378,  0.086823821513101,  0.955560423195190 ]
    mass: 118.710000
    reduced_to: 1
  - symbol: Sn # 6
    coordinates: [  0.809013215282378,  0.086823821513101,  0.955560423195190 ]
    mass: 118.710000
    reduced_to: 1
  - symbol: Sn # 7
    coordinates: [  0.309013215282378,  0.586823821513101,  0.955560423195190 ]
    mass: 118.710000
    reduced_to: 1
  - symbol: Sn # 8
    coordinates: [  0.809013215282378,  0.586823821513101,  0.955560423195190 ]
    mass: 118.710000
    reduced_to: 1
  - symbol: Sn # 9
    coordinates: [  0.308724345503812,  0.336561013421767,  0.206187962793475 ]
    mass: 118.710000
    reduced_to: 9
  - symbol: Sn # 10
    coordinates: [  0.808724345503812,  0.336561013421767,  0.206187962793475 ]
    mass: 118.710000
    reduced_to: 9
  - symbol: Sn # 11
    coordinates: [  0.308724345503812,  0.836561013421767,  0.206187962793475 ]
    mass: 118.710000
    reduced_to: 9
  - symbol: Sn # 12
    coordinates: [  0.808724345503812,  0.836561013421767,  0.206187962793475 ]
    mass: 118.710000
    reduced_to: 9
  - symbol: Sn # 13
    coordinates: [  0.308724345503812,  0.336561013421767,  0.706187962793475 ]
    mass: 118.710000
    reduced_to: 9
  - symbol: Sn # 14
    coordinates: [  0.808724345503812,  0.336561013421767,  0.706187962793475 ]
    mass: 118.710000
    reduced_to: 9
  - symbol: Sn # 15
    coordinates: [  0.308724345503812,  0.836561013421767,  0.706187962793475 ]
    mass: 118.710000
    reduced_to: 9
  - symbol: Sn # 16
    coordinates: [  0.808724345503812,  0.836561013421767,  0.706187962793475 ]
    mass: 118.710000
    reduced_to: 9
  - symbol: Sn # 17
    coordinates: [  0.058161834709648,  0.336089762565265,  0.204614827354089 ]
    mass: 118.710000
    reduced_to: 17
  - symbol: Sn # 18
    coordinates: [  0.558161834709648,  0.336089762565265,  0.204614827354089 ]
    mass: 118.710000
    reduced_to: 17
  - symbol: Sn # 19
    coordinates: [  0.058161834709648,  0.836089762565265,  0.204614827354089 ]
    mass: 118.710000
    reduced_to: 17
  - symbol: Sn # 20
    coordinates: [  0.558161834709648,  0.836089762565265,  0.204614827354089 ]
    mass: 118.710000
    reduced_to: 17
  - symbol: Sn # 21
    coordinates: [  0.058161834709648,  0.336089762565265,  0.704614827354089 ]
    mass: 118.710000
    reduced_to: 17
  - symbol: Sn # 22
    coordinates: [  0.558161834709648,  0.336089762565265,  0.704614827354089 ]
    mass: 118.710000
    reduced_to: 17
  - symbol: Sn # 23
    coordinates: [  0.058161834709648,  0.836089762565265,  0.704614827354089 ]
    mass: 118.710000
    reduced_to: 17
  - symbol: Sn # 24
    coordinates: [  0.558161834709648,  0.836089762565265,  0.704614827354089 ]
    mass: 118.710000
    reduced_to: 17
  - symbol: Sn # 25
    coordinates: [  0.307432382225085,  0.084941411735467,  0.205001866609344 ]
    mass: 118.710000
    reduced_to: 25
  - symbol: Sn # 26
    coordinates: [  0.807432382225085,  0.084941411735467,  0.205001866609344 ]
    mass: 118.710000
    reduced_to: 25
  - symbol: Sn # 27
    coordinates: [  0.307432382225085,  0.584941411735467,  0.205001866609344 ]
    mass: 118.710000
    reduced_to: 25
  - symbol: Sn # 28
    coordinates: [  0.807432382225085,  0.584941411735467,  0.205001866609344 ]
    mass: 118.710000
    reduced_to: 25
  - symbol: Sn # 29
    coordinates: [  0.307432382225085,  0.084941411735467,  0.705001866609344 ]
    mass: 118.710000
    reduced_to: 25
  - symbol: Sn # 30
    coordinates: [  0.807432382225085,  0.084941411735467,  0.705001866609344 ]
    mass: 118.710000
    reduced_to: 25
  - symbol: Sn # 31
    coordinates: [  0.307432382225085,  0.584941411735467,  0.705001866609344 ]
    mass: 118.710000
    reduced_to: 25
  - symbol: Sn # 32
    coordinates: [  0.807432382225085,  0.584941411735467,  0.705001866609344 ]
    mass: 118.710000
    reduced_to: 25
  - symbol: Sn # 33
    coordinates: [  0.059839925513736,  0.334897580959398,  0.454063328841706 ]
    mass: 118.710000
    reduced_to: 33
  - symbol: Sn # 34
    coordinates: [  0.559839925513736,  0.334897580959398,  0.454063328841706 ]
    mass: 118.710000
    reduced_to: 33
  - symbol: Sn # 35
    coordinates: [  0.059839925513736,  0.834897580959398,  0.454063328841706 ]
    mass: 118.710000
    reduced_to: 33
  - symbol: Sn # 36
    coordinates: [  0.559839925513736,  0.834897580959398,  0.454063328841706 ]
    mass: 118.710000
    reduced_to: 33
  - symbol: Sn # 37
    coordinates: [  0.059839925513736,  0.334897580959398,  0.954063328841706 ]
    mass: 118.710000
    reduced_to: 33
  - symbol: Sn # 38
    coordinates: [  0.559839925513736,  0.334897580959398,  0.954063328841706 ]
    mass: 118.710000
    reduced_to: 33
  - symbol: Sn # 39
    coordinates: [  0.059839925513736,  0.834897580959398,  0.954063328841706 ]
    mass: 118.710000
    reduced_to: 33
  - symbol: Sn # 40
    coordinates: [  0.559839925513736,  0.834897580959398,  0.954063328841706 ]
    mass: 118.710000
    reduced_to: 33
  - symbol: Sn # 41
    coordinates: [  0.057653348008439,  0.085542708182396,  0.205736985837615 ]
    mass: 118.710000
    reduced_to: 41
  - symbol: Sn # 42
    coordinates: [  0.557653348008439,  0.085542708182396,  0.205736985837615 ]
    mass: 118.710000
    reduced_to: 41
  - symbol: Sn # 43
    coordinates: [  0.057653348008439,  0.585542708182396,  0.205736985837615 ]
    mass: 118.710000
    reduced_to: 41
  - symbol: Sn # 44
    coordinates: [  0.557653348008439,  0.585542708182396,  0.205736985837615 ]
    mass: 118.710000
    reduced_to: 41
  - symbol: Sn # 45
    coordinates: [  0.057653348008439,  0.085542708182396,  0.705736985837615 ]
    mass: 118.710000
    reduced_to: 41
  - symbol: Sn # 46
    coordinates: [  0.557653348008439,  0.085542708182396,  0.705736985837615 ]
    mass: 118.710000
    reduced_to: 41
  - symbol: Sn # 47
    coordinates: [  0.057653348008439,  0.585542708182396,  0.705736985837615 ]
    mass: 118.710000
    reduced_to: 41
  - symbol: Sn # 48
    coordinates: [  0.557653348008439,  0.585542708182396,  0.705736985837615 ]
    mass: 118.710000
    reduced_to: 41
  - symbol: Sn # 49
    coordinates: [  0.059857678714699,  0.085714952696616,  0.455281895933101 ]
    mass: 118.710000
    reduced_to: 49
  - symbol: Sn # 50
    coordinates: [  0.559857678714699,  0.085714952696616,  0.455281895933101 ]
    mass: 118.710000
    reduced_to: 49
  - symbol: Sn # 51
    coordinates: [  0.059857678714699,  0.585714952696616,  0.455281895933101 ]
    mass: 118.710000
    reduced_to: 49
  - symbol: Sn # 52
    coordinates: [  0.559857678714699,  0.585714952696616,  0.455281895933101 ]
    mass: 118.710000
    reduced_to: 49
  - symbol: Sn # 53
    coordinates: [  0.059857678714699,  0.085714952696616,  0.955281895933101 ]
    mass: 118.710000
    reduced_to: 49
  - symbol: Sn # 54
    coordinates: [  0.559857678714699,  0.085714952696616,  0.955281895933101 ]
    mass: 118.710000
    reduced_to: 49
  - symbol: Sn # 55
    coordinates: [  0.059857678714699,  0.585714952696616,  0.955281895933101 ]
    mass: 118.710000
    reduced_to: 49
  - symbol: Sn # 56
    coordinates: [  0.559857678714699,  0.585714952696616,  0.955281895933101 ]
    mass: 118.710000
    reduced_to: 49
  - symbol: Sn # 57
    coordinates: [  0.308753032651593,  0.336621628539549,  0.455249624475262 ]
    mass: 118.710000
    reduced_to: 57
  - symbol: Sn # 58
    coordinates: [  0.808753032651593,  0.336621628539549,  0.455249624475262 ]
    mass: 118.710000
    reduced_to: 57
  - symbol: Sn # 59
    coordinates: [  0.308753032651593,  0.836621628539549,  0.455249624475262 ]
    mass: 118.710000
    reduced_to: 57
  - symbol: Sn # 60
    coordinates: [  0.808753032651593,  0.836621628539549,  0.455249624475262 ]
    mass: 118.710000
    reduced_to: 57
  - symbol: Sn # 61
    coordinates: [  0.308753032651593,  0.336621628539549,  0.955249624475262 ]
    mass: 118.710000
    reduced_to: 57
  - symbol: Sn # 62
    coordinates: [  0.808753032651593,  0.336621628539549,  0.955249624475262 ]
    mass: 118.710000
    reduced_to: 57
  - symbol: Sn # 63
    coordinates: [  0.308753032651593,  0.836621628539549,  0.955249624475262 ]
    mass: 118.710000
    reduced_to: 57
  - symbol: Sn # 64
    coordinates: [  0.808753032651593,  0.836621628539549,  0.955249624475262 ]
    mass: 118.710000
    reduced_to: 57

displacements:
- atom:    1
  displacement:
    [   0.0100000000000000,  0.0000000000000000,  0.0000000000000000 ]
  forces:
  - [  -0.0188519768416882, -0.0165269151329994, -0.0062254816293716 ]
  - [  -0.0069689266383648, -0.0165617167949677, -0.0061721531674266 ]
  - [  -0.0072378693148494, -0.0164070520550013, -0.0061534745618701 ]
  - [  -0.0072376374155283, -0.0167177580296993, -0.0061900038272142 ]
  - [  -0.0072372951544821, -0.0164927914738655, -0.0060321446508169 ]
  - [  -0.0072393659502268, -0.0166304707527161, -0.0063119605183601 ]
  - [  -0.0073558902367949, -0.0165605247020721, -0.0061724078841507 ]
  - [  -0.0073363031260669, -0.0165612474083900, -0.0061718346551061 ]
  - [  -0.0196844041347504, -0.0207289177924395, -0.0172390192747116 ]
  - [  -0.0194780640304089, -0.0207053981721401, -0.0172472130507231 ]
  - [  -0.0191795304417610, -0.0204965975135565, -0.0171084627509117 ]
  - [  -0.0191756822168827, -0.0209042616188526, -0.0173953250050545 ]
  - [  -0.0191815476864576, -0.0205021575093269, -0.0171025823801756 ]
  - [  -0.0191822573542595, -0.0209080241620541, -0.0173919461667538 ]
  - [  -0.0196750741451979, -0.0206771418452263, -0.0172643270343542 ]
  - [  -0.0194773785769939, -0.0206991732120514, -0.0172503069043159 ]
  - [   0.0098268035799265, -0.0054819015786052,  0.0021085147745907 ]
  - [   0.0102824345231056, -0.0050539034418762,  0.0014874131884426 ]
  - [   0.0098869772627950, -0.0054007926955819,  0.0019748983904719 ]
  - [   0.0096801277250051, -0.0054064281284809,  0.0019755838438869 ]
  - [   0.0096789803355932, -0.0053952867165208,  0.0019743610173464 ]
  - [   0.0098870620131493, -0.0053966483101249,  0.0019795466214418 ]
  - [   0.0098272757604718, -0.0053070029243827,  0.0018463148735464 ]
  - [   0.0103120487183332, -0.0057704816572368,  0.0024875979870558 ]
  - [   0.0287824273109436,  0.0246961675584316,  0.0047880057245493 ]
  - [   0.0288986954838037,  0.0242900997400284,  0.0031501206103712 ]
  - [   0.0285474229604006,  0.0245007891207933,  0.0032969636376947 ]
  - [   0.0285227559506893,  0.0244469512254000,  0.0034443826880306 ]
  - [   0.0289159938693047,  0.0248229894787073,  0.0051734484732151 ]
  - [   0.0288961939513683,  0.0242932625114918,  0.0031642725225538 ]
  - [   0.0285428017377853,  0.0244937054812908,  0.0033053646329790 ]
  - [   0.0285118743777275,  0.0244499724358320,  0.0034428630024195 ]
  - [  -0.0008523082360625,  0.0181645117700100,  0.0147362817078829 ]
  - [  -0.0008583521703258,  0.0201701037585735,  0.0145473545417190 ]
  - [  -0.0008668797090650,  0.0201599523425102,  0.0145548265427351 ]
  - [  -0.0009719235822558,  0.0184383392333984,  0.0147038837894797 ]
  - [  -0.0012390213087201,  0.0198437105864286,  0.0144988773390651 ]
  - [  -0.0012158383615315,  0.0199607200920582,  0.0144089031964540 ]
  - [  -0.0012149618705735,  0.0199622027575970,  0.0144040361046791 ]
  - [  -0.0012444830499589,  0.0198420751839876,  0.0144971450790763 ]
  - [   0.0011986198369414,  0.0031276410445571, -0.0033713760785758 ]
  - [   0.0011571357026696,  0.0026375192683190, -0.0052262344397604 ]
  - [   0.0008451330941170,  0.0029177465476096, -0.0035076241474599 ]
  - [   0.0008130378555506,  0.0029696747660637, -0.0036544085014611 ]
  - [   0.0011267270892859,  0.0026935571804643, -0.0051194075495005 ]
  - [   0.0011960428673774,  0.0031273248605430, -0.0033619580790401 ]
  - [   0.0008224974153563,  0.0029714787378907, -0.0036545102484524 ]
  - [   0.0008436560165137,  0.0029306653887033, -0.0035147089511156 ]
  - [  -0.0139727452769876,  0.0003324508143123, -0.0012066955678165 ]
  - [  -0.0138928722590208,  0.0003048719372600, -0.0012271690648049 ]
  - [  -0.0170952603220940,  0.0003177840262651, -0.0012195552699268 ]
  - [  -0.0170942060649395,  0.0003196498146281, -0.0012153864372522 ]
  - [  -0.0170940682291985,  0.0003201253712177, -0.0012132162228227 ]
  - [  -0.0170941352844238,  0.0003176433965564, -0.0012214066227898 ]
  - [  -0.0169148854911327,  0.0003194180317223, -0.0012164402287453 ]
  - [  -0.0169154498726130,  0.0003190608695149, -0.0012165694497526 ]
  - [   0.0059226588346064, -0.0033468329347670,  0.0081619638949633 ]
  - [   0.0059623750858009, -0.0052423882298172,  0.0083166938275099 ]
  - [   0.0058719348162413, -0.0034251401666552,  0.0081493677571416 ]
  - [   0.0059408117085695, -0.0052401283755898,  0.0083224978297949 ]
  - [   0.0055940579622984, -0.0050364583730698,  0.0084578189998865 ]
  - [   0.0055687446147203, -0.0049182074144483,  0.0083737820386887 ]
  - [   0.0056003672070801, -0.0050402181223035,  0.0084704663604498 ]
  - [   0.0055729164741933, -0.0049202120862901,  0.0083717666566372 ]
- atom:    1
  displacement:
    [  -0.0100000000000000,  0.0000000000000000,  0.0000000000000000 ]
  forces:
  - [   0.0042193271219730, -0.0166041031479836, -0.0061196885071695 ]
  - [  -0.0077572236768901, -0.0165616814047098, -0.0061716884374619 ]
  - [  -0.0074877142906189, -0.0167156569659710, -0.0061898576095700 ]
  - [  -0.0074892644770443, -0.0164055600762367, -0.0061534172855318 ]
  - [  -0.0074877683073282, -0.0166307501494884, -0.0063123437575996 ]
  - [  -0.0074888947419822, -0.0164922215044498, -0.0060319681651890 ]
  - [  -0.0073673035949469, -0.0165604017674923, -0.0061720884405077 ]
  - [  -0.0073895934037864, -0.0165610536932945, -0.0061719091609120 ]
  - [  -0.0190944280475378, -0.0206811763346195, -0.0172534156590700 ]
  - [  -0.0193024761974812, -0.0207017902284861, -0.0172481127083302 ]
  - [  -0.0196009241044521, -0.0209065619856119, -0.0173913929611444 ]
  - [  -0.0196011215448380, -0.0205002091825008, -0.0171033442020416 ]
  - [  -0.0195987187325954, -0.0209033656865358, -0.0173948071897030 ]
  - [  -0.0195975080132484, -0.0204952731728554, -0.0171056333929300 ]
  - [  -0.0190996602177620, -0.0207234732806683, -0.0172382909804583 ]
  - [  -0.0192987676709890, -0.0207025222480297, -0.0172483865171671 ]
  - [   0.0099586527794600, -0.0052572018466890,  0.0017629414796829 ]
  - [   0.0096667846664786, -0.0057038627564907,  0.0024114600382745 ]
  - [   0.0099984258413315, -0.0053956094197929,  0.0019785882905126 ]
  - [   0.0102053657174110, -0.0053906831890345,  0.0019764504395425 ]
  - [   0.0102088749408722, -0.0054015787318349,  0.0019797813147306 ]
  - [   0.0100011900067329, -0.0054011577740312,  0.0019758297130466 ]
  - [   0.0099572837352753, -0.0055485940538347,  0.0021905072499067 ]
  - [   0.0096304453909397, -0.0050614336505532,  0.0015183835057542 ]
  - [   0.0282657146453857,  0.0241028666496277,  0.0021145488135517 ]
  - [   0.0281580109149218,  0.0245161447674036,  0.0037795891985297 ]
  - [   0.0285090226680040,  0.0243057236075401,  0.0036355212796479 ]
  - [   0.0285337790846825,  0.0243575386703014,  0.0034882852341980 ]
  - [   0.0281513221561909,  0.0239952933043242,  0.0017971470952034 ]
  - [   0.0281556211411953,  0.0245140194892883,  0.0037701122928411 ]
  - [   0.0285122077912092,  0.0243146084249020,  0.0036263694055378 ]
  - [   0.0285410992801189,  0.0243575107306242,  0.0034877280704677 ]
  - [  -0.0016215369105339,  0.0215450935065746,  0.0143586471676826 ]
  - [  -0.0016064682276919,  0.0195047743618488,  0.0145479887723923 ]
  - [  -0.0015987493097782,  0.0195116959512234,  0.0145433992147446 ]
  - [  -0.0014838338829577,  0.0212040022015572,  0.0143960192799568 ]
  - [  -0.0012217722833157,  0.0198292415589094,  0.0145982662215829 ]
  - [  -0.0012498334981501,  0.0197135917842388,  0.0146888773888350 ]
  - [  -0.0012483237078413,  0.0197100639343262,  0.0146919181570411 ]
  - [  -0.0012211701832712,  0.0198328811675310,  0.0145982131361961 ]
  - [   0.0004559820517898,  0.0029037268832326, -0.0039822054095566 ]
  - [   0.0005051322514191,  0.0033861242700368, -0.0021588029339910 ]
  - [   0.0008112301584333,  0.0031146882101893, -0.0038439084310085 ]
  - [   0.0008422017563134,  0.0030620344914496, -0.0036975888069719 ]
  - [   0.0005194079130888,  0.0033470038324594, -0.0021975990384817 ]
  - [   0.0004616797668859,  0.0029033487662673, -0.0039877700619400 ]
  - [   0.0008339157793671,  0.0030599366873503, -0.0036992672830820 ]
  - [   0.0008121031569317,  0.0031027835793793, -0.0038371293339878 ]
  - [  -0.0199784114956856,  0.0003045587218367, -0.0012290072627366 ]
  - [  -0.0197459831833839,  0.0003332600463182, -0.0012078010477126 ]
  - [  -0.0166955366730690,  0.0003200438804924, -0.0012163643259555 ]
  - [  -0.0166971497237682,  0.0003180935455021, -0.0012182713253424 ]
  - [  -0.0166968405246735,  0.0003164401277900, -0.0012208909029141 ]
  - [  -0.0166965387761593,  0.0003213067539036, -0.0012136336881667 ]
  - [  -0.0168741866946220,  0.0003181430511177, -0.0012166621163487 ]
  - [  -0.0168764181435108,  0.0003200280480087, -0.0012164583895355 ]
  - [   0.0052492436952889, -0.0064435424283147,  0.0084793707355857 ]
  - [   0.0051987767219543, -0.0045805703848600,  0.0083266925066710 ]
  - [   0.0052781184203923, -0.0064359419047832,  0.0085005648434162 ]
  - [   0.0052234889008105, -0.0045873345807195,  0.0083217686042190 ]
  - [   0.0055689858272672, -0.0047905100509524,  0.0081872418522835 ]
  - [   0.0055917473509908, -0.0049101659096777,  0.0082726739346981 ]
  - [   0.0055586826056242, -0.0047874045558274,  0.0081730633974075 ]
  - [   0.0055902814492583, -0.0049051651731133,  0.0082717519253492 ]
- atom:    1
  displacement:
    [   0.0050018089261597,  0.0086592094019136,  0.0000000000000000 ]
  forces:
  - [  -0.0130789075046778, -0.0265303775668144, -0.0062184315174818 ]
  - [  -0.0071654831990600, -0.0165313705801964, -0.0061536561697721 ]
  - [  -0.0071666985750198, -0.0162224639207125, -0.0061722961254418 ]
  - [  -0.0074354950338602, -0.0163758881390095, -0.0061903819441795 ]
  - [  -0.0072398916818202, -0.0164886992424726, -0.0060327928513288 ]
  - [  -0.0073614674620330, -0.0165564194321632, -0.0061716437339783 ]
  - [  -0.0073589785024524, -0.0164180807769299, -0.0063115190714598 ]
  - [  -0.0073498990386724, -0.0165384579449892, -0.0061720395460725 ]
  - [  -0.0195553675293922, -0.0202346183359623, -0.0188114531338215 ]
  - [  -0.0194359719753265, -0.0206908658146858, -0.0172250196337700 ]
  - [  -0.0191059224307537, -0.0204344727098942, -0.0169445425271988 ]
  - [  -0.0194650739431381, -0.0206401143223047, -0.0170824695378542 ]
  - [  -0.0191134661436081, -0.0204446837306023, -0.0169380344450474 ]
  - [  -0.0194568112492561, -0.0206441171467304, -0.0170871280133724 ]
  - [  -0.0195167791098356, -0.0202731825411320, -0.0186871346086264 ]
  - [  -0.0194304790347815, -0.0206858552992344, -0.0172287989407778 ]
  - [   0.0098032392561436, -0.0056246211752295,  0.0019704070873559 ]
  - [   0.0104213561862707, -0.0052833789959550,  0.0014838341157883 ]
  - [   0.0099135376513004, -0.0054479278624058,  0.0019745877943933 ]
  - [   0.0098110772669315, -0.0054534543305635,  0.0021017002873123 ]
  - [   0.0098086204379797, -0.0049044182524085,  0.0024857083335519 ]
  - [   0.0099169127643108, -0.0054471930488944,  0.0019796891137958 ]
  - [   0.0099534112960100, -0.0055367974564433,  0.0018497712444514 ]
  - [   0.0098141301423311, -0.0056268409825861,  0.0019812087994069 ]
  - [   0.0289103388786316,  0.0244604274630547,  0.0047823633067310 ]
  - [   0.0286144092679024,  0.0243717860430479,  0.0032976097427309 ]
  - [   0.0286204703152180,  0.0247932337224483,  0.0031482982449234 ]
  - [   0.0285636298358440,  0.0243743397295475,  0.0034430518280715 ]
  - [   0.0290882959961891,  0.0245541948825121,  0.0051836459897459 ]
  - [   0.0286173857748508,  0.0243712328374386,  0.0033042968716472 ]
  - [   0.0286137126386166,  0.0247698239982128,  0.0031654881313443 ]
  - [   0.0285613797605038,  0.0243692304939032,  0.0034447018988431 ]
  - [  -0.0025154212489724,  0.0209876671433449,  0.0147181525826454 ]
  - [  -0.0007587410509586,  0.0199944954365492,  0.0145478611811996 ]
  - [  -0.0007677208632231,  0.0199924949556589,  0.0145550444722176 ]
  - [  -0.0022968971170485,  0.0207785125821829,  0.0147166838869452 ]
  - [  -0.0012316294014454,  0.0198226235806942,  0.0144940279424191 ]
  - [  -0.0011188643984497,  0.0197870321571827,  0.0144119737669826 ]
  - [  -0.0011138818226755,  0.0197915025055408,  0.0144026260823011 ]
  - [  -0.0012323041446507,  0.0198292341083288,  0.0145023483783007 ]
  - [   0.0011097845854238,  0.0030945679172873, -0.0035319374874234 ]
  - [   0.0006660401122645,  0.0027725324034691, -0.0036565216723830 ]
  - [   0.0007529396098107,  0.0033091106452048, -0.0038254738319665 ]
  - [   0.0007801298052073,  0.0029408223927021, -0.0036728514824063 ]
  - [   0.0006985263898969,  0.0027567120268941, -0.0036977450363338 ]
  - [   0.0011091912165284,  0.0030976035632193, -0.0035300343297422 ]
  - [   0.0007868275279179,  0.0029376824386418, -0.0036796214990318 ]
  - [   0.0007600943790749,  0.0032919240184128, -0.0038152765482664 ]
  - [  -0.0154050709679723, -0.0001562676916365, -0.0013783470494673 ]
  - [  -0.0154244489967823, -0.0001845099031925, -0.0013923253864050 ]
  - [  -0.0170013457536697,  0.0008022827096283, -0.0012183964718133 ]
  - [  -0.0169901438057423,  0.0008046051952988, -0.0012207480613142 ]
  - [  -0.0169962365180254,  0.0003991387784481, -0.0010723380837590 ]
  - [  -0.0169944614171982,  0.0003924481570721, -0.0010782608296722 ]
  - [  -0.0169038027524948,  0.0003153416328132, -0.0011686258949339 ]
  - [  -0.0169066078960896,  0.0003114324063063, -0.0011643612524495 ]
  - [   0.0071862293407321, -0.0022016554139555,  0.0083458153530955 ]
  - [   0.0054811891168356, -0.0050842193886638,  0.0083229690790176 ]
  - [   0.0069422330707312, -0.0024927081540227,  0.0083051212131977 ]
  - [   0.0054839057847857, -0.0050866953097284,  0.0083212554454803 ]
  - [   0.0054803285747766, -0.0050858417525887,  0.0083176251500845 ]
  - [   0.0055683394894004, -0.0049316831864417,  0.0083218161016703 ]
  - [   0.0054820254445076, -0.0050858668982983,  0.0083275465294719 ]
  - [   0.0055745793506503, -0.0049302810803056,  0.0083229700103402 ]
- atom:    1
  displacement:
    [  -0.0050018089261597, -0.0086592094019136,  0.0000000000000000 ]
  forces:
  - [  -0.0016054800944403, -0.0065391897223890, -0.0061270976439118 ]
  - [  -0.0075595723465085, -0.0165925752371550, -0.0061905253678560 ]
  - [  -0.0075589814223349, -0.0169011279940605, -0.0061712702736259 ]
  - [  -0.0072911595925689, -0.0167477764189243, -0.0061531220562756 ]
  - [  -0.0074848160147667, -0.0166351366788149, -0.0063119921833277 ]
  - [  -0.0073665101081133, -0.0165663175284863, -0.0061721783131361 ]
  - [  -0.0073645329102874, -0.0167028605937958, -0.0060325320810080 ]
  - [  -0.0073760980740190, -0.0165840610861778, -0.0061716572381556 ]
  - [  -0.0192284900695086, -0.0211603306233883, -0.0157205648720264 ]
  - [  -0.0193449035286903, -0.0207159668207169, -0.0172708276659250 ]
  - [  -0.0196754820644855, -0.0209701620042324, -0.0175579637289047 ]
  - [  -0.0193128846585751, -0.0207641646265984, -0.0174160245805979 ]
  - [  -0.0196669362485409, -0.0209595523774624, -0.0175570584833622 ]
  - [  -0.0193214640021324, -0.0207594260573387, -0.0174100939184427 ]
  - [  -0.0192548576742411, -0.0211425218731165, -0.0157796051353216 ]
  - [  -0.0193444676697254, -0.0207160338759422, -0.0172697491943836 ]
  - [   0.0100821442902088, -0.0051715997979045,  0.0019828504882753 ]
  - [   0.0095291556790471, -0.0054763015359640,  0.0024145690258592 ]
  - [   0.0099719371646643, -0.0053487229160964,  0.0019787508063018 ]
  - [   0.0100742056965828, -0.0054588010534644,  0.0017686034552753 ]
  - [   0.0100775007158518, -0.0058185681700706,  0.0015217652544379 ]
  - [   0.0099711492657661, -0.0053502712398767,  0.0019757039844990 ]
  - [   0.0098308976739645, -0.0053181536495686,  0.0021868997719139 ]
  - [   0.0100696906447411, -0.0051692407578230,  0.0019738592673093 ]
  - [   0.0281356330960989,  0.0243449397385120,  0.0021207681857049 ]
  - [   0.0284397639334202,  0.0244347881525755,  0.0036338937934488 ]
  - [   0.0284367296844721,  0.0240160524845123,  0.0037816390395164 ]
  - [   0.0284921489655972,  0.0244319811463356,  0.0034897611476481 ]
  - [   0.0279842838644981,  0.0242564082145691,  0.0017877310747281 ]
  - [   0.0284366235136986,  0.0244351141154766,  0.0036275731399655 ]
  - [   0.0284411292523146,  0.0240363627672195,  0.0037687830626965 ]
  - [   0.0284931305795908,  0.0244362503290176,  0.0034857983700931 ]
  - [   0.0000223750248551,  0.0187111366540194,  0.0143810957670212 ]
  - [  -0.0017053000628948,  0.0196784771978855,  0.0145478863269091 ]
  - [  -0.0016991691663861,  0.0196814518421888,  0.0145436134189367 ]
  - [  -0.0001432313583791,  0.0188729371875525,  0.0143790915608406 ]
  - [  -0.0012303888797760,  0.0198499187827110,  0.0146014308556914 ]
  - [  -0.0013465909287333,  0.0198865383863449,  0.0146858189254999 ]
  - [  -0.0013494188897312,  0.0198814421892166,  0.0146934362128377 ]
  - [  -0.0012323381379247,  0.0198461301624775,  0.0145949674770236 ]
  - [   0.0005459337262437,  0.0029370747506618, -0.0038189762271941 ]
  - [   0.0009866182226688,  0.0032623745501041, -0.0036917880643159 ]
  - [   0.0009032646194100,  0.0027247853577137, -0.0035260571166873 ]
  - [   0.0008751463610679,  0.0030917599797249, -0.0036788752768189 ]
  - [   0.0009598704054952,  0.0032729604281485, -0.0036574094556272 ]
  - [   0.0005473518976942,  0.0029334207065403, -0.0038218693807721 ]
  - [   0.0008694209391251,  0.0030925942119211, -0.0036743385717273 ]