13
Lattice="4.737730818275959 -0.011479410824448581 0.0002371346054490493 -2.353154512884617 4.116167069537085 0.014803357696441678 -0.014178534248768058 -0.032177727111196444 14.674107148489243" Properties=species:S:1:pos:R:3:forces:R:3 structure_index=0 total_energy=-42.596595764160156 stress="-0.014347200281918049 -1.0968444257741794e-05 -0.0010006437078118324 -1.1040043318644166e-05 -0.010163096711039543 0.0033801982644945383 -0.00100061169359833 0.0033803340047597885 -0.017405429854989052" pbc="T T T"
Li       0.42159466       3.50154373       7.65007973      -0.00095106       0.00034242       0.00351926
Li       2.77906558       2.12694375       9.48064226       0.00082754      -0.00195625      -0.02575283
Li       0.42718058       3.50530901       4.67508327      -0.00020999       0.00064656       0.02761099
Li       0.41991731       3.48586919      13.55075784      -0.00076533       0.00019995       0.02338666
Li       2.78655554       2.12710936       6.50887397       0.00022426       0.00101468      -0.00609756
Li       2.79307106       2.14157176       0.60785309       0.00014963      -0.00058664      -0.02586900
Sn       2.78409405       2.11218840      12.33836766      -0.00135343       0.00122015      -0.00311585
Sn       2.79341100       2.13098679       3.51908898      -0.00005177      -0.00095556       0.00432026
Sn       0.40694133       0.74540975      14.40926942      -0.00018148       0.00000671      -0.00055664
Sn       0.41290638       3.50112035      10.63773888       0.00222482      -0.00125673      -0.00144240
Sn       0.42771888       3.51442830       1.81860360      -0.00032665       0.00152380       0.00323827
Sn       0.41446541       0.76463566       5.54216130       0.00066621      -0.00188665       0.00784484
Sn       0.40814199       0.76108191       8.59800093      -0.00025275       0.00168759      -0.00708609
4
Lattice="4.303286816553106 0.002343004727730817 -1.6713138706433148 -0.8031068609753065 4.08025101832494 -2.061709159460763 -0.6949943145704708 -0.459757004253999 4.5853377643228095" Properties=species:S:1:pos:R:3:forces:R:3 structure_index=1 total_energy=-11.253005981445312 stress="-0.09061545878648758 0.01625635102391243 0.06203826516866684 0.016256358474493027 0.010511585511267185 0.04260401427745819 0.062038127332925797 0.04260444641113281 0.044864341616630554" pbc="T T T"
Li       2.27029347       1.61341368      -0.05322492       0.01923431       0.02910832       0.05000067
Li      -0.26528409       3.67905558      -0.20267463      -0.01917168      -0.02906883      -0.04975701
Li       3.20816554       0.37737160       2.35984471       0.00006111       0.00004396       0.00011961
Sn       0.65504227       2.41638184       2.16482609      -0.00012377      -0.00008344      -0.00036328
15
Lattice="4.901950867895715 0.004027330576581503 -0.6402034915153131 -0.08797005289078363 4.903319293317488 -0.6411497776775648 -0.5751688352170049 -0.5834766755785705 14.708094957031014" Properties=species:S:1:pos:R:3:forces:R:3 structure_index=2 total_energy=-50.545677185058594 stress="0.007482827175408602 -0.0005338003393262625 -0.0033270358107984066 -0.000533837010152638 0.007495717145502567 -0.0034277415834367275 -0.0033270767889916897 -0.0034277536906301975 -0.01787872053682804" pbc="T T T"
Li      -0.04035153       1.66478249      10.54912485       0.00445852       0.00431216       0.03377175
Li       3.90194367       0.68925397       2.51818766      -0.00204491      -0.00266876      -0.01382449
Li       1.40712056       3.13627448       2.51803426      -0.00142193      -0.00098559      -0.01306857
Li       2.89045148      -0.34086898      13.88126729      -0.00026633      -0.00005025      -0.00020087
Li       0.39527982       2.10915808      13.88160962       0.00011647       0.00002328      -0.00082928
Li       2.36429014       4.11758417       9.90952775       0.00468875       0.00504996       0.03236119
Sn      -0.28617681       3.91322653       8.70508874      -0.00395181      -0.00423835      -0.03458090
Sn       4.08139661       3.36895347       3.91976061      -0.00265389      -0.00241922      -0.01706612
Sn       1.91796478       3.66338603       6.49381884       0.00198710       0.00152792       0.01007738
Sn       1.68917695       0.92872961       4.67657817      -0.00082521      -0.00044870      -0.00376410
Sn       2.63042530       1.89131873      11.91246909       0.00091493      -0.00027085       0.00483533
Sn       0.13557989       4.34150279      11.91718735       0.00104399       0.00145272       0.00855474
Sn       3.63714432       2.91348562       0.49794326      -0.00159474       0.00043216      -0.00139794
Sn       4.41596460       1.21539146       6.50733630       0.00080180       0.00035303       0.00016944
Sn       1.23445656       0.46496412       1.17457990      -0.00125277      -0.00206950      -0.00503756
12
Lattice="4.448366600098725 -0.0006744592533611528 -1.4789097574583958 -2.792145325207334e-05 9.758382588367807 -0.004608393038403242 -0.6572928613165391 0.0025884078825784223 5.452893792169738" Properties=species:S:1:pos:R:3:forces:R:3 structure_index=3 total_energy=-35.73252868652344 stress="-0.006854098290205002 1.3736871551373042e-05 0.003985711373388767 1.3619240235129837e-05 0.014014103449881077 4.552233804133721e-05 0.0039857723750174046 4.541218368103728e-05 0.0038076520431786776" pbc="T T T"
Li       2.20847588       9.56455760       0.54277162       0.00044348       0.00456826       0.00171154
Li       2.20837418       4.39540018       0.54502366       0.00049631      -0.00447060       0.00205357
Li       2.76146548       2.10154170       2.21256173       0.00219538       0.00018868       0.00654818
Li       1.03455142       6.98193944       4.44026413      -0.00101413      -0.00001715      -0.00228152
Li       1.00467321       2.10255548       4.35840066       0.00105401       0.00000962       0.00224551
Li      -0.06488554       6.98041358       1.13329750      -0.00225209      -0.00020055      -0.00664335
Li       0.48813610       4.68646963       2.80072234      -0.00049555       0.00454049      -0.00204138
Li       0.48819426       9.27578923       2.79843133      -0.00050181      -0.00459647      -0.00181741
Sn       2.67135194       6.98068912       1.93429123      -0.00151425      -0.00005902      -0.00431099
Sn       3.24379027       4.54205291       3.65986873       0.00002748      -0.00038705       0.00005316
Sn       3.24385855       9.42100311       3.65755716       0.00001030       0.00038674       0.00007553
Sn       0.02516031       2.10125149       1.41138024       0.00155087       0.00003704       0.00440717
18
Lattice="4.493576774120514 -0.004201624481045649 0.6546600334735951 -0.11004114143857366 6.3929599641125 0.793342677517547 0.10151845430499665 0.061844235042215416 15.047819076552711" Properties=species:S:1:pos:R:3:forces:R:3 structure_index=4 total_energy=-62.7203483581543 stress="0.012556933797895908 -0.00025917161838151515 8.04874871391803e-05 -0.00025915156584233046 0.015087554231286049 0.001582867233082652 8.049077587202191e-05 0.001582894939929247 0.011937505565583706" pbc="T T T"
Li       3.69486259       6.39820750      13.01652860       0.00242106       0.04175512      -0.00997632
Li       2.21777227       2.12171805       7.38675275      -0.00050098       0.02917440       0.01522576
Li       0.25388520       0.60179928       5.13383306      -0.00157018      -0.03616088       0.00198845
Li       1.73300017       4.88227161      10.74490054       0.00098953      -0.02654491      -0.01100142
Li       0.71496308       1.05658521       1.93208005       0.00029323       0.04681323       0.01118320
Li       3.22845759       5.95206803      16.20668691       0.00168742      -0.04460517      -0.00733599
Sn       0.18987401       3.79141292       5.58649144       0.00118793       0.02107982      -0.01872703
Sn       3.16404927       2.69489491       0.89709622      -0.00120575       0.00541574      -0.00015219
Sn       2.66849643       5.68921338       4.33260227      -0.00082273       0.01329996      -0.01088837
Sn       1.28051877       1.33227637      13.80927597      -0.00175335      -0.02326515       0.01033156
Sn       3.76060111       3.21611842      12.54429433      -0.00292346      -0.02306924       0.03153001
Sn       2.19391329       5.37834384       7.59393673      -0.00358123      -0.00631415       0.01845582
Sn       4.27916083       0.29906836       8.99477871      -0.00121080       0.00488429       0.00390180
Sn       4.22263653       3.49939934       9.39817586       0.00057744      -0.00307499      -0.00516677
Sn       0.67789257       4.25555981       2.21303614       0.00412295      -0.00313187      -0.01634039
Sn       2.68928839       2.37493091       4.14980427       0.00124624      -0.03504369       0.00395731
Sn       1.25643676       4.63313265      13.99457130       0.00033338       0.03506216      -0.00435128
Sn       1.76037923       1.62499297      10.53721611       0.00070930       0.00372534      -0.01263414
8
Lattice="4.8554753486731075 0.0013828702573563329 0.0003980421060307061 -0.0007245930379856498 5.1955635827305064 -2.997333595413243 -0.0005874132852819231 -0.00520027681736592 5.9994345700442935" Properties=species:S:1:pos:R:3:forces:R:3 structure_index=5 total_energy=-22.158185958862305 stress="-0.028525687754154205 0.0008503373246639967 -0.00029376419843174517 0.0008502830751240253 -0.0030013069044798613 -0.0011086818994954228 -0.00029378573526628315 -0.0011086746817454696 -0.0014734130818396807" pbc="T T T"
Li       0.09689069       3.18933120       0.82307449      -0.00002801       0.01476838       0.02615855
Li       0.09649129       3.18645322       3.65841112       0.00003057       0.01549643      -0.02579566
Li       2.52447605       4.10140408      -0.75646796      -0.00001461       0.03155780      -0.00097946
Li       2.52507009       1.36344395       0.82363723      -0.00021292      -0.01577367       0.02615618
Li       2.52454017       1.36020058       3.65934921       0.00005233      -0.01450703      -0.02658297
Li       0.09714542       0.44823584       5.23856206      -0.00025962      -0.03137378       0.00110803
Sn       0.09704237       0.54383343       2.23963046       0.00028207       0.00007365      -0.00069893
Sn       2.52431210       4.00592322       2.24260221       0.00015018      -0.00024178       0.00063427
5
Lattice="4.099487589761322 0.0033941798665545835 1.7447465566329983 1.935939622669231 4.682710149283653 1.1300492482870197 0.14653605505267273 0.004107139526196611 5.34738710787696" Properties=species:S:1:pos:R:3:forces:R:3 structure_index=6 total_energy=-15.419208526611328 stress="0.04630111902952194 0.0027819396927952766 -0.01090282667428255 0.002781829796731472 0.06183404475450516 -0.007242141291499138 -0.010902632027864456 -0.007241996470838785 0.06556563079357147" pbc="T T T"
Li       3.34873954       3.89601269       5.56121926      -0.00738101      -0.04615148       0.01634711
Li       1.80103831       1.97044840       3.51108653       0.00698871       0.04488384      -0.01676482
Li       4.55156573       2.93223812       2.73462010      -0.00028864      -0.00024211      -0.00011546
Sn       3.09386581       1.10065658       6.16128841       0.01489986      -0.01972967      -0.02941389
Sn       0.11939339       0.08162612       1.78020421      -0.01421891       0.02123944       0.02994706
18
Lattice="4.706139006452956 0.0025664245610303852 -0.0007820009445221982 -2.355093647412075 4.073789396325653 0.001388115342265375 0.00456723535649791 -0.0011700751085423028 19.259095461015395" Properties=species:S:1:pos:R:3:forces:R:3 structure_index=7 total_energy=-53.9971809387207 stress="-0.004333303775638342 5.111931841383921e-06 1.9634084935660212e-07 5.106805929244729e-06 -0.0043284534476697445 1.0597154869174119e-05 4.920641458738828e-07 1.0761983503471129e-05 -0.005661732982844114" pbc="T T T"
Li      -0.72559681       2.76695097       9.20890195       0.00003812      -0.00003195       0.00220934
Li       1.63158664       1.40890598      16.34081124      -0.00018453      -0.00011976      -0.01224386
Li       3.98498544       0.04998723      18.67502629      -0.00008329      -0.00001754      -0.00759409
Li      -0.72427150       2.76759849      11.99336195      -0.00000340      -0.00016954      -0.00556603
Li       3.98123100       0.05236274       7.56581910       0.00006436       0.00014036      -0.00170511
Li       3.98000858       0.04969586       4.85456167       0.00022509       0.00027522      -0.00064199
Li       3.98535215       0.05214706      16.07365468      -0.00019629      -0.00012382      -0.00855350
Li       1.62922023       1.41092186      11.11331926      -0.00000344      -0.00025759       0.05154076
Li       1.62648071       1.40752009       0.27469109      -0.00001713       0.00004183      -0.00705976
Li       3.98398004       0.05315171      13.36770234      -0.00004533      -0.00014810      -0.00523843
Li      -0.72739473       2.76393766       1.37173337       0.00005688       0.00014290      -0.00520049
Sn       1.62614674       1.40578824       3.51081266       0.00019649       0.00029812       0.00332120
Sn      -0.72667445       2.76633241       6.21298359       0.00008510       0.00009071      -0.00054189
Sn      -0.72249568       2.76678397      14.79293553      -0.00017362      -0.00015416      -0.01510268
Sn       1.62761991       1.40941406       8.11029363       0.00006607       0.00013376       0.02329239
Sn       3.98274824       0.05377276      10.46695079      -0.00000910      -0.00024762       0.00251966
Sn      -0.72232769       2.76497582      17.69486188      -0.00013184      -0.00006070      -0.00955749
Sn       3.97996219       0.04930327       2.11081801       0.00011592       0.00020789      -0.00387803
8
Lattice="4.8580689885479496 -0.0007509270894990621 0.0007687906103052617 0.0009576781854587996 5.193203106190028 -3.0010386369960274 -0.00122337226188851 0.002245938024735251 5.998549398062161" Properties=species:S:1:pos:R:3:forces:R:3 structure_index=8 total_energy=-22.157974243164062 stress="0.0011067201849073172 -0.000499469053465873 -0.0006262630340643227 -0.0004993590409867465 0.010798271745443344 0.0006955532589927316 -0.0006262914976105094 0.0006956327124498785 0.011005833745002747" pbc="T T T"
Li       0.25098713       4.27654079       3.04177345      -0.00022293       0.01567125       0.02888090
Li       0.25117219       1.53870964       1.46170589      -0.00017539      -0.03401557       0.00085691
Li       2.68035493       2.44870993      -0.11775635      -0.00008503      -0.01599421      -0.02908645
Li       2.67984159       2.45064191       3.04305449      -0.00009354      -0.01674456       0.02850880
Li       2.68016327       5.18666863       1.46228856      -0.00012064       0.03317722      -0.00110371
Li       0.25114792       4.27369625      -0.11880492       0.00033225       0.01774745      -0.02932471
Sn       0.25019225       1.63228024       4.46117907       0.00028972       0.00027261       0.00006422
Sn       2.68087427       5.09260322      -1.53779092       0.00007557      -0.00011418       0.00120404
12
Lattice="5.686955398978093 -0.000732581870154836 0.005607350994376566 0.00040592005662856446 4.7219805124342855 0.0014296745336842844 -0.0038807910741380795 0.0036369151383879284 8.532797788648699" Properties=species:S:1:pos:R:3:forces:R:3 structure_index=9 total_energy=-35.14817810058594 stress="-0.0062327575869858265 5.817340024805162e-06 -0.00015487313794437796 6.002117515890859e-06 -0.007809084374457598 -5.6505938118789345e-05 -0.00015488159260712564 -5.6376080465270206e-05 -0.011391086503863335" pbc="T T T"
Li       1.95436603       4.26569103       0.23669055      -0.00036770       0.00068773      -0.00113082
Li       4.79785289       4.26590261       0.23967993       0.00030228       0.00005241      -0.00199827
Li       0.53008724       1.91139677       7.65573345       0.00215000       0.00089093      -0.01752845
Li       3.37302172       1.90214057       1.34832034      -0.00094825      -0.00139321       0.01536874
Li       4.79582801       1.90733223       4.50308675      -0.00010862      -0.00019766       0.00225429
Li       0.53356454       4.27239662       3.39081851       0.00150859      -0.00011449      -0.01904650
Li       3.37252978       4.26546838       5.61400592      -0.00152580       0.00023316       0.01820695
Li       1.95288210       1.90777470       4.50096645      -0.00067485      -0.00022851       0.00045233
Sn       3.37488116       1.90395458       7.09208607       0.00150205      -0.00128000      -0.00131629
Sn       0.52799564       4.27327917       6.17818535      -0.00167741       0.00075717       0.00292875
Sn       0.52892265       1.91196909       1.91079724      -0.00313532       0.00094130       0.00238310
Sn       3.37790389       4.26210022       2.82628396       0.00297508      -0.00034883      -0.00057388
11
Lattice="4.490065680983455 0.00022814288848673785 -1.372756487278879 -0.018680019139036438 5.3981677007856 -0.06342768070570558 0.014208460656528256 -0.004811114903869055 8.089548314577076" Properties=species:S:1:pos:R:3:forces:R:3 structure_index=10 total_energy=-28.62653350830078 stress="-0.016612572595477104 0.000494768435601145 -0.0027844475116580725 0.0004948353162035346 -0.012262005358934402 -0.0022572895977646112 -0.002784763928502798 -0.002257575746625662 -0.0171261727809906" pbc="T T T"
Li       1.70847728       0.85989530       3.33585807      -0.00426813       0.00808428      -0.01087376
Li       1.27106529       3.28822894       1.90588478       0.00486672      -0.00678424       0.00900453
Li       3.31550486       1.71017681       0.55656273      -0.00866007      -0.00804101      -0.02445564
Li       2.53240356       1.21689337       6.03575815      -0.00121364       0.02116720      -0.00507274
Li       3.72402660       4.77821093       1.89640935       0.00079856      -0.00349488       0.00437387
Li       4.15195349       2.44326177       3.30424928       0.00956963       0.00711742       0.02589476
Li       2.90246108       4.36895292      -0.79644515      -0.01182771       0.01834692      -0.03934371
Li       0.05941693       5.17707793       5.97259670       0.00973484      -0.01839621       0.03630102
Li       0.46147605       2.92221984       7.29125481       0.00109371      -0.01720111       0.00486413
Sn       0.88287130       0.42551049       0.62932577       0.00150224      -0.02143495       0.00547628
Sn       2.09730003       3.72247577       4.61180297      -0.00159618       0.02063655      -0.00616874
12
Lattice="5.047167527032134 0.0005435904943554106 0.0005834460409689888 -0.0008183854730170196 5.338172558060678 0.0017278023419349513 -0.0009905102231339633 -0.001155813909849323 8.586014278676236" Properties=species:S:1:pos:R:3:forces:R:3 structure_index=11 total_energy=-35.67633819580078 stress="-0.0202749315649271 -5.576041803578846e-05 -9.250024959328584e-06 -5.572010559262708e-05 -0.01635495014488697 1.9050439732382074e-05 -9.27042401599465e-06 1.9068318579229526e-05 0.0026345527730882168" pbc="T T T"
Li       1.76637048       4.72124564       4.85138138       0.00023481       0.00916219      -0.00790095
Li       4.29103143       3.07623943       2.02827860      -0.00012608      -0.00881937       0.00841657
Li       1.76821556       2.05280274       0.55765926      -0.00002408       0.00925829      -0.00813521
Li       1.76710641       2.05203355       6.32173132       0.00009932       0.00902533       0.00762877
Li       4.29079219       0.40665160       6.32086592       0.00001676      -0.00880329       0.00765980
Li       4.29024237       3.07633809       4.85053801       0.00000857      -0.00932327      -0.00784366
Li       1.76725010       4.72187446       2.02902860       0.00000097       0.00895152       0.00853423
Li       4.29198279       0.40786761       0.55670530      -0.00019116      -0.00940518      -0.00794062
Sn       1.76652350       4.73427904       7.73337509       0.00080967       0.01540532       0.00015325
Sn       4.29121676       0.39393321       3.43881532      -0.00080114      -0.01547704      -0.00041967
Sn       1.76680914       2.06571725       3.43983387       0.00092795       0.01551530      -0.00062619
Sn       4.29098387       3.06246247       7.73235692      -0.00095558      -0.01548980       0.00047369
5
Lattice="4.159120853254234 -0.00306200985676205 1.7985117715915973 2.092014266535074 4.4541607998796895 0.8777165031849017 0.2985878520980438 -0.019942985765184978 5.0176137986570994" Properties=species:S:1:pos:R:3:forces:R:3 structure_index=12 total_energy=-13.316117286682129 stress="0.03452687710523605 -0.013956587761640549 0.04809853062033653 -0.013956314884126186 -0.022924212738871574 0.030734414234757423 0.04809877648949623 0.03073427639901638 -0.057703107595443726" pbc="T T T"
Li       2.72237898       2.09225691       2.93030124       0.01630817      -0.00266266      -0.03904072
Li       4.42000978       3.66155130       4.71405650      -0.01614795       0.00283290       0.03826513
Li       4.03111748       1.12127353       5.60999224      -0.00199994       0.04223494       0.00421487
Li       1.01960717       0.17856518       1.15553276       0.00160060      -0.04238087      -0.00318661
Sn       5.79995426       2.86549916       7.23025684       0.00023914      -0.00002433      -0.00025267
9
Lattice="4.180449110717714 -0.0030552918854854644 1.3740999980528306 2.2603469891982426 6.513033968452571 0.18508116376170178 0.048556979725313934 0.08951027147367452 6.895771977886846" Properties=species:S:1:pos:R:3:forces:R:3 structure_index=13 total_energy=-28.2958984375 stress="-0.00012960571621078998 -0.0008006366551853716 -0.0011851979652419686 -0.0008005205309018493 0.0019392475951462984 0.0012838798575103283 -0.0011852456955239177 0.0012837524991482496 0.0008909213938750327" pbc="T T T"
Li       2.23123818       5.90165074       6.21721563      -0.00277874      -0.01913954       0.01033580
Li       0.71625699       1.55424160       3.76750603       0.00681197       0.00852323      -0.01709817
Li       4.26558164       3.66402151       7.07612781       0.00114107      -0.00226480      -0.00676151
Li       3.50998304       1.52240273       2.32739211      -0.00053802      -0.00939532      -0.00238220
Li       5.03090786       5.79634214       4.75084189      -0.01044721       0.03738140       0.03131324
Sn       1.46361105       3.64062829       1.51008506       0.00012100      -0.00054119      -0.00238157
Sn       3.61066777       5.91448413       2.02905784       0.00117640      -0.03301436      -0.00599891
Sn       2.83916609       3.67701750       4.36534419       0.01092186      -0.00684608      -0.03148779
Sn       2.15648146       1.44877890       6.43273541      -0.00640831       0.02529665       0.02446113
4
Lattice="3.330285333227316 0.0004050258824960459 0.0035502858583838608 -0.0006551399812429375 4.972525746065227 -0.0003629151157686288 -0.004270812403742068 -0.0011988407010868544 5.0415588779994245" Properties=species:S:1:pos:R:3:forces:R:3 structure_index=14 total_energy=-13.04042911529541 stress="0.07115690410137177 -5.1482369599398226e-05 0.0012526116333901882 -5.152164521859959e-05 -0.043260958045721054 0.0013610325986519456 0.0012525954516604543 0.0013610887108370662 -0.022148452699184418" pbc="T T T"
Li       2.04521280       2.80960480       4.80251446      -0.00089711       0.00105826      -0.04586351
Li       2.04606550       0.32527178       1.70710433       0.00045442      -0.00109082       0.04695232
Sn       0.38125616       2.80990200       2.23815123      -0.00032672       0.00112563       0.02677050
Sn       0.37909378       0.32452548       4.26905579       0.00076941      -0.00109307      -0.02785930
5
Lattice="4.201684987303 -0.00041547036839082233 2.0368156402996593 1.6082866082805392 3.8825529723062133 2.035611956274908 -0.029564415986170055 -0.019591927082656984 5.413623854932769" Properties=species:S:1:pos:R:3:forces:R:3 structure_index=15 total_energy=-13.386459350585938 stress="-0.051022253930568695 0.0182578656822443 -0.0563279427587986 0.01825791597366333 -0.06446873396635056 -0.03946632146835327 -0.05632787197828293 -0.039466336369514465 0.037657808512449265" pbc="T T T"
Li       5.11605593       2.57009323       3.40340007       0.00563993       0.00445850      -0.01099200
Li       2.70705773       0.95969419       3.01713037      -0.00432687      -0.00135092       0.01370857
Li       1.61200118       0.23063758       5.28067512      -0.00231913      -0.00400816       0.00803946
Li       1.98143107       3.28345361       4.51656160       0.00489592       0.00398972      -0.00260796
Sn       3.89832875       1.75731704       5.92042852      -0.00388987      -0.00308912      -0.00814806
4
Lattice="4.027723733943924 0.00020561075993012393 2.325543801973363 1.3414826709498309 3.7974686096313413 2.325945836812544 0.00012641179066895223 4.3900837504494686e-05 4.651445049318906" Properties=species:S:1:pos:R:3:forces:R:3 structure_index=16 total_energy=-11.255075454711914 stress="0.01895095780491829 -0.00201485981233418 -0.000719987612683326 -0.002014654688537121 0.01743549108505249 8.647813956486061e-05 -0.0007200381951406598 8.606468327343464e-05 0.019613094627857208" pbc="T T T"
Li       0.87703829       2.22269092       1.52922291       0.00135667       0.00115207       0.00128980
Li       3.56313221       1.27381193       6.18085182       0.00244457       0.00264645       0.00130070
Li       2.22010553       3.17288113       3.85622110       0.00203800       0.00166398      -0.00075363
Sn       2.22259492       0.32622562       3.85605696      -0.00583925      -0.00546252      -0.00183687
16
Lattice="6.015693769779668 -0.01036353099242694 0.003495819952466886 0.006079596139701899 6.015604898893325 0.0020707230394091908 -0.00472346578632691 -0.002639356219076846 8.407488793685337" Properties=species:S:1:pos:R:3:forces:R:3 structure_index=17 total_energy=-41.12687301635742 stress="0.019511369988322258 -0.0027449021581560373 0.0005187622737139463 -0.002744882134720683 0.019422149285674095 0.00034313779906369746 0.000518905813805759 0.000343167717801407 -0.0070067341439425945" pbc="T T T"
Li       2.49976565       3.54337252       4.84351190       0.02236340       0.02414837       0.02604631
Li       5.42419660       0.45107592       4.84362274      -0.02341736      -0.02390444       0.02667899
Li       2.50076784       3.54317064       0.92949723       0.02299797       0.02473082      -0.02537233
Li       3.96008909       1.99688485       7.08971549       0.00099509      -0.00000089       0.00203280
Li       5.42724230       3.53824099       4.84672220      -0.02356563       0.02451038       0.02351521
Li       0.95556698       5.01008744       7.09011439       0.00063092      -0.00075096       0.00045193
Li       5.42840475       0.45318830       0.93011170      -0.02593041      -0.02335344      -0.02530848
Li       5.42995179       3.53931414       0.93324976      -0.02333568       0.02331110      -0.02841710
Li       2.49703269       0.45629881       4.84337222       0.02221573      -0.02423821       0.02436524
Li       0.95771307       5.01107886       2.88576872       0.00040259      -0.00070186       0.00193585
Li       0.95305199       2.00164809       7.08576583      -0.00076743       0.00036561       0.00149048
Li       3.96272772       1.99814508       2.88689581      -0.00015500      -0.00048262       0.00079401
Li       2.49719381       0.45828844       0.92960362       0.02473986      -0.02414360      -0.02698052
Sn       3.96520595       5.00577469       2.88758339       0.00141902       0.00012551       0.00000086
Sn       3.96399571       5.00506589       7.09388101      -0.00052334      -0.00067983      -0.00223978
Sn       0.95420394       2.00265310       2.88629536       0.00193029       0.00106409       0.00100652
19
Lattice="7.629930822545355 -0.04128351134438046 -2.781893411309165 -3.934764399195957 6.305806560159825 -2.9337632602152186 0.022287902620732894 -0.016946730474256964 8.202363788311393" Properties=species:S:1:pos:R:3:forces:R:3 structure_index=18 total_energy=-58.831932067871094 stress="-0.01646755449473858 -0.002186348894611001 -0.010726363398134708 -0.0021865167655050755 0.00805986300110817 0.008331467397511005 -0.010726259090006351 0.008331328630447388 -0.01051812618970871" pbc="T T T"
Li       4.23763775       1.57069078      -2.15646337       0.00862151       0.00913761       0.01911758
Li       2.14931935       6.23469267      -3.36284739      -0.00451697       0.01181467       0.00514081
Li       1.40553384       5.53555288      -0.35875385       0.01659573      -0.00755784      -0.01630619
Li       0.84718371       1.75653493       1.82699518      -0.02227334       0.00033866       0.00111400
Li      -2.74872129       5.14925891      -1.63448919       0.00360214      -0.02818606      -0.01791360
Li       3.32079843       3.85715399       1.20522469       0.01516632       0.00579415      -0.00556634
Li       2.48421954       3.13187597       4.36059161       0.00221339       0.01751205      -0.00041578
Li      -2.10276178       5.84331845       3.59947388      -0.00019569       0.00643059      -0.00272080
Li      -1.00033684       3.52052127       0.05335553      -0.00414392      -0.01573888       0.00391048
Li       0.55591666       4.88032058       2.40924293      -0.01406183       0.01072534      -0.02749332
Li       0.05432556       1.16979371       4.92525834      -0.00172838      -0.01122724       0.01400938
Sn       2.61689522       0.23317667       3.67609646       0.00312306       0.01443651       0.00491461
Sn       6.90521786       0.31012496       5.03132124      -0.01053842      -0.01445539       0.00899794
Sn      -0.12615994       4.22238950       5.24068303       0.00778376       0.00104895       0.00827951
Sn       1.55442363       2.52066763      -0.95069820      -0.00502981       0.02201994      -0.01047496