4
Lattice="4.055876272689788 0.0003887250422936258 0.0015436438842757873 -0.000423249360927529 4.05582874234119 -0.0005906013733313991 -0.0018319940783211339 0.000700729737946243 4.44831607162953" Properties=species:S:1:pos:R:3:forces:R:3 structure_index=0 total_energy=-11.800260543823242 stress="0.02846299484372139 -0.00032584203290753067 -0.0004540636145975441 -0.00032596729579381645 0.028221067041158676 0.0001719557330943644 -0.0004540631780400872 0.0001720629952615127 0.09640837460756302" pbc="T T T"
Li       3.53056829       3.48106187       3.70817796      -0.00003754      -0.00011453       0.00051290
Li       1.50276641       1.45286575       3.70750560       0.00012473       0.00004711       0.00086002
Ga       3.53167696       1.45284019       1.48434891       0.00015235      -0.00065486      -0.00010370
Sn       1.50358280       3.48036571       1.48356807      -0.00023955       0.00072229      -0.00126924
12
Lattice="5.281188748823153 0.11265512012791191 0.5157518668085883 2.463806999749233 4.606018169587481 0.9124113095012819 -1.3142251920490404 -0.13810062212115043 10.378665983397651" Properties=species:S:1:pos:R:3:forces:R:3 structure_index=1 total_energy=-37.351158142089844 stress="0.0032061205711215734 -0.004947910085320473 0.015295207500457764 -0.0049478416331112385 -0.021845702081918716 -0.00959710031747818 0.015295187942683697 -0.009597210213541985 0.023607123643159866" pbc="T T T"
Li       3.26053349       0.27107943       2.88821799       0.02312877       0.02288627       0.00979690
Li       4.79743245       3.04208972       6.06875985       0.00344442       0.00925766       0.02032615
Li       2.16267259       1.41783335       5.62397417      -0.01885905       0.01734339      -0.01495493
Li       2.86299983       2.12798628      11.03598698       0.03100500      -0.00022696      -0.00063001
Li       1.14710808       2.56810124       8.39703021      -0.03669021      -0.00599467      -0.02743249
Ga       1.58253293       0.70354193       0.37500134       0.00164303      -0.02095634      -0.03028374
Ga       5.88618125       1.87402022       3.42962152       0.01007824      -0.00784819       0.02853760
Sn       3.23733404       3.23307953       3.43099257       0.00363773       0.00327953      -0.02005726
Sn       5.44193426       3.69389031      11.59549450       0.00699312      -0.00116900      -0.00321397
Sn       2.02326389       4.48219145       5.95296985       0.01140421      -0.01238218       0.02532305
Sn       3.85747897       1.17990057       8.25095740      -0.03097443      -0.00894742       0.02101122
Sn       3.72013578       4.17659708       8.82745578      -0.00481083       0.00475792      -0.00842249
11
Lattice="4.083507775590552 0.0031173046835408025 -1.1559277486678792 -0.5056908167952806 6.549009551759657 -1.767015518302176 0.020041223022470588 0.020481073766190096 7.85762059742503" Properties=species:S:1:pos:R:3:forces:R:3 structure_index=2 total_energy=-32.749454498291016 stress="-0.0031106353271752596 0.0004574563936330378 0.013351683504879475 0.0004573316255118698 -0.0033515130635350943 0.007451537996530533 0.013351616449654102 0.007451628800481558 0.03126892074942589" pbc="T T T"
Li       0.37356931       2.15695231       1.15746726      -0.00619365       0.01073841      -0.01889469
Li       1.14069778       1.53626972       3.86542584      -0.00027795      -0.00720634       0.00070500
Li      -0.26394424       5.79546408      -1.08394705       0.00529267       0.02887938       0.01861108
Li       0.49969677       5.19750546       1.61255083       0.00434830      -0.01269651       0.01510533
Li       3.70377005       2.78996302       5.13029374      -0.00086855       0.01179773      -0.00364238
Ga       2.75690641       0.42818892       1.78074736      -0.00247326      -0.00170512      -0.00812984
Ga       1.30669959       4.50585104       4.46143430      -0.00406569      -0.01326482      -0.00797750
Ga       2.99748286       6.42472715       2.64480272       0.00132482      -0.02630750       0.00911875
Sn       2.90386368       3.38990949       2.31500375       0.00705220      -0.00085943       0.00669401
Sn       2.07439488       4.05364417      -0.61990712      -0.00258111       0.01720959      -0.00504348
Sn       1.93980682       0.87985858       6.68267391      -0.00155778      -0.00658534      -0.00654628
8
Lattice="4.853443364547769 -0.38056187035806366 -0.0029540705318958325 -0.41244947292344397 4.850702119079925 -0.001783058967438685 0.00034285821951664377 0.0037818750761253544 6.27106385326464" Properties=species:S:1:pos:R:3:forces:R:3 structure_index=3 total_energy=-22.970924377441406 stress="-0.03399980068206787 0.03007870353758335 -0.0029389197006821632 0.030078645795583725 -0.03395732492208481 0.004772630985826254 -0.0029387346003204584 0.004772566258907318 -0.007365848869085312" pbc="T T T"
Li       3.99394789       0.73357860       6.11737825       0.00060638       0.00195045       0.03997027
Li       1.38048361       3.34129986       3.08365068      -0.00122418      -0.00202055      -0.04054964
Li       3.80624097       3.15551730       4.59929256      -0.00265572       0.00126865      -0.00016570
Li       1.56950481       0.91854698       4.60121854       0.00275053      -0.00132502       0.00084029
Li       1.56798740       0.91625418       1.46615792       0.00457985      -0.00289376      -0.00039433
Ga       3.80814892       3.15513411       1.46355234      -0.00471743       0.00248316       0.00026687
Sn       1.37909950       3.34319309       6.16518960      -0.00140304      -0.00352907      -0.03169674
Sn       3.99661473       0.73070198       3.03552500       0.00206362       0.00406613       0.03172898
4
Lattice="4.40385201972286 -0.0002604758857940052 2.5451108478394904 1.4680972798244383 4.151110943920028 2.5408377707206466 0.0009759213682666719 -0.000622881907823052 5.0855183292753425" Properties=species:S:1:pos:R:3:forces:R:3 structure_index=4 total_energy=-12.854851722717285 stress="-0.04969502612948418 0.0005853893235325813 -0.003891721600666642 0.0005853392067365348 -0.05105968564748764 0.005061206873506308 -0.003891688771545887 0.00506129115819931 -0.05086115747690201" pbc="T T T"
Li       3.00365318       0.56036690       5.58149840      -0.00038386       0.00051515       0.00015973
Ga       1.53566194       2.63635695       3.03684071      -0.00124778       0.00097255      -0.00004010
Sn       3.00256058       3.67391778       5.57896113       0.00188544       0.00010229       0.00114623
Sn       4.47218575       1.59895982       8.12527110      -0.00025380      -0.00158999      -0.00126586
18
Lattice="6.468612217023362 -0.0741336224177757 2.859388104735856 1.9326473742151689 6.169564399878657 2.924801179455985 -0.06397017439801873 -0.09080423001419712 7.107872327386225" Properties=species:S:1:pos:R:3:forces:R:3 structure_index=5 total_energy=-48.42657470703125 stress="-0.0027791308239102364 0.003938957117497921 -0.004760693293064833 0.003938852809369564 0.0014786631800234318 0.001647790428251028 -0.0047609549947083 0.001647906843572855 0.0014760285848751664" pbc="T T T"
Li       2.97330479       2.26434398       7.22801309       0.00919963      -0.01085802       0.00142833
Li       7.00403129       3.62545240       8.61663559      -0.01751466       0.02902878       0.01769974
Li       4.27202912       1.65277327       4.26465989      -0.00631204       0.02231699       0.00650114
Li       5.84765942       4.42769266       4.36454655       0.00821601      -0.02230184      -0.01030234
Li       4.61588422       5.02292040       7.26973562      -0.01830534       0.01032593      -0.01235484
Li       1.94082586       4.73390830       7.83019339       0.01923756       0.00583518      -0.02132712
Li       5.59862878       2.65659317       6.45286015      -0.01261627      -0.00703499      -0.00027312
Li       3.23669560       5.66644228      10.11399075      -0.00493068       0.00477376      -0.01704876
Li       2.71797456       0.59233712       2.22159053      -0.01128465      -0.00712270      -0.01091687
Li       0.09456670       0.26889391       2.82162679      -0.00293990       0.00597016      -0.02551025
Ga       3.23188824       4.08660905       5.14650111       0.02219174       0.00273172       0.02292559
Ga       1.85076370       3.19750906       2.84477577       0.00605376      -0.01919884       0.01144411
Ga       5.24975971       0.87771368       8.66606694      -0.00137253      -0.00760037      -0.02368393
Ga       6.82895319       1.91457600      10.81255127      -0.00589249       0.00105655      -0.00923319
Ga       4.39329580       3.36868820       9.29417338       0.00343750      -0.00679315       0.03326086
Ga       5.97459050       6.03534947       9.39844324      -0.03001095      -0.01475693      -0.00890113
Ga       7.11925752       5.37926988       6.54690992       0.02841715       0.00005650       0.01053272
Sn       1.55515976       1.24486927       4.95985305       0.01442612       0.01357124       0.03575901
4
Lattice="4.056328446644317 -0.00043883032006316095 0.001722302126245234 0.0004751516776193953 4.056412020629037 -0.00037581209103221844 -0.0020323148648001437 0.00044419964695515107 4.446838781012746" Properties=species:S:1:pos:R:3:forces:R:3 structure_index=6 total_energy=-11.800271987915039 stress="0.03238917514681816 0.00033547665225341916 -0.00045934043009765446 0.00033543433528393507 0.03281613066792488 0.00010247445607092232 -0.0004593977937474847 0.00010254723019897938 0.08244320005178452" pbc="T T T"
Li       1.20369691       3.18754881       2.48080814      -0.00081581      -0.00003091       0.00083501
Li       3.23118403       1.15894552       2.48199615       0.00014926       0.00031504       0.00058358
Ga       3.23235759       3.18702207       0.25894311      -0.00036463       0.00076313      -0.00079153
Sn       1.20376716       1.15928784       0.25787999       0.00103117      -0.00104727      -0.00062706
10
Lattice="4.072944218358297 -0.0035105867621463417 0.008586265425893096 0.005430370382018623 4.20734611498731 -0.8504595432191092 -0.022743433276550262 -0.00010049806572546533 10.862174929162776" Properties=species:S:1:pos:R:3:forces:R:3 structure_index=7 total_energy=-29.442142486572266 stress="0.005418203771114349 0.00022561258811037987 0.0006336447549983859 0.00022562802769243717 0.033260248601436615 -0.018128693103790283 0.0006336524384096265 -0.01812872476875782 -0.025163916870951653" pbc="T T T"
Li       2.50146088       1.76321118       9.13113684       0.00003889       0.00015918      -0.00154830
Li       0.47505959       3.07721534       4.77515272       0.00010039       0.00221642       0.01332002
Li       2.51636046       2.61969681       2.52707749      -0.00029133      -0.00659359      -0.03864267
Li       2.51788063       0.07881733       0.77453394      -0.00030788       0.00280757       0.01536901
Ga       0.46780159       3.82945930       8.50471392       0.00028193      -0.00140465      -0.00697481
Ga       2.50880999       0.98322099       5.26012095      -0.00007933       0.00111841       0.00816166
Ga       2.50769979       3.46349261       6.70134106       0.00025873       0.00044156      -0.00053057
Ga       0.46867059       1.36019620       7.11452786       0.00003231       0.00032061       0.00914152
Sn       0.47660642       0.55432530       3.12760155       0.00024455       0.00280974       0.00854237
Sn       0.48415337       2.17318950       0.29016867      -0.00027826      -0.00187526      -0.00683825
8
Lattice="5.379324410277101 0.05961094466168809 0.0014598070880877838 -2.113962590989281 4.943993275111035 -0.002885087347229076 -0.0006176586566566597 0.0016802808199710049 5.969947786815339" Properties=species:S:1:pos:R:3:forces:R:3 structure_index=8 total_energy=-24.24282455444336 stress="0.04027637839317322 -0.020391246303915977 -9.156854503089562e-05 -0.02039111964404583 0.007593258284032345 0.00016505460371263325 -9.159871115116403e-05 0.0001650489866733551 0.01884089782834053" pbc="T T T"
Li       1.44953364       2.08539602       0.06326985       0.00205341      -0.00503863       0.00015733
Li       3.04908931       4.60556502       3.04754732      -0.00450463       0.00586769       0.00033883
Ga       4.13941188       2.14738871       1.55676679      -0.00910389      -0.00660425       0.00009554
Ga       0.35604433       4.54691980       4.54069046       0.00960282       0.00383238      -0.00086203
Ga       4.13929722       2.14754411       4.54057191      -0.00906514      -0.00455423       0.00050744
Ga       0.35600729       4.54425187       1.55461209       0.00991447       0.00699245      -0.00030759
Sn       1.46640454       2.07498326       3.04828928      -0.01807872       0.01015106       0.00029406
Sn       3.02869167       4.61786890       0.06276644       0.01918168      -0.01064646      -0.00022357
4
Lattice="4.335315705793232 0.00012685850056600343 -0.0024155269337012256 -0.00013870753566604 4.292323228630086 -0.00023372376373874775 0.0021691612276759087 0.00013462417604133235 4.291972214183788" Properties=species:S:1:pos:R:3:forces:R:3 structure_index=9 total_energy=-12.158429145812988 stress="-0.09935027360916138 -7.252913201227784e-05 -0.001034913002513349 -7.262794679263607e-05 0.0758700743317604 -0.00028307767934165895 -0.0010349736548960209 -0.00028304755687713623 0.07321479916572571" pbc="T T T"
Li       1.74346197       0.12597879       3.65648620       0.00009224      -0.00031635      -0.00126438
Ga       3.91110494       2.27185671       3.65441850       0.00007678       0.00016138      -0.00006545
Ga       3.91019250       0.12554513       1.50850936      -0.00019433       0.00051441       0.00056079
Sn       1.74241852       2.27194850       1.50969044       0.00002530      -0.00035944       0.00076905
4
Lattice="4.354095278543557 0.0003654252082271893 -0.0006279600378227025 -0.00044594042824835613 4.546401531463123 7.138126536573484e-05 0.0005618165767853795 -8.657836057319086e-05 4.545356047296514" Properties=species:S:1:pos:R:3:forces:R:3 structure_index=10 total_energy=-13.074138641357422 stress="0.004726027138531208 -0.00023227986821439117 -0.0003234197210986167 -0.0002322669606655836 0.03331004083156586 -6.197035691002384e-05 -0.0003235029289498925 -6.194092566147447e-05 0.02977038361132145" pbc="T T T"
Li       0.98495236       0.98505057       2.38997718       0.00119780      -0.00003879      -0.00074170
Ga       0.98440673       3.25793652       0.11690572       0.00206970       0.00017115      -0.00001987
Sn       3.16254878       0.98500426       0.11599200      -0.00175974       0.00021471       0.00119876
Sn       3.16243803       3.25843202       2.38902911      -0.00150776      -0.00034708      -0.00043720
12
Lattice="5.0849771884753165 0.3505127978809705 -0.6744510244854496 -0.6856512764321514 5.413646569060792 -2.359661303155345 1.0370704505609558 0.2651923813293826 7.8019784299288535" Properties=species:S:1:pos:R:3:forces:R:3 structure_index=11 total_energy=-35.264461517333984 stress="0.014595204964280128 0.010709169320762157 0.022954493761062622 0.010709178633987904 0.009679220616817474 -0.0016232134075835347 0.022954633459448814 -0.001623245538212359 -0.0010976990452036262" pbc="T T T"
Li       2.83731802       5.05843527       2.65627466      -0.00239513       0.01898708      -0.00973126
Li       1.95713193       2.66116371       1.16601881      -0.00622562       0.00842658      -0.01350014
Li       4.06215974       4.73920860       5.32710255       0.00132133       0.01730545       0.00287223
Li       0.80819122       0.81911371       4.76691644       0.00407314      -0.02325162       0.00685770
Li       4.40310046       2.07193934       6.53198511      -0.01324027      -0.00890486       0.00180560
Li       1.60668296       5.37582245      -0.05576979       0.01651993      -0.00447111       0.00087690
Ga       4.65868380       1.45404110       1.35974047       0.00430594      -0.02241577       0.02095754
Ga       0.47078905       3.50621579       3.58905398      -0.00569084       0.01700848      -0.00284473
Ga       1.70257626       3.23739914       6.31485802       0.00125487      -0.02935980       0.00355191
Sn       4.30261134       4.18495284       0.22686268       0.01792915       0.01738060      -0.02858178
Sn       2.05616627       0.51532064       7.44468351      -0.02129520       0.02625836       0.00948089
Sn       3.18058846       2.34692942       3.83651041       0.00344273      -0.01696337       0.00825510
12
Lattice="4.810473662271021 -0.0022108215665249307 -0.0004298929670875573 -2.4065411269909003 4.16862227817959 0.00045530673130671304 0.0008251635202582404 -0.0006383124770354216 12.48450431679531" Properties=species:S:1:pos:R:3:forces:R:3 structure_index=12 total_energy=-35.852752685546875 stress="-0.004961003549396992 -0.00010062226647278294 -6.620095518883318e-05 -0.0001007017053780146 -0.005259092431515455 6.823248986620456e-05 -6.631378346355632e-05 6.818130350438878e-05 -0.03046123869717121" pbc="T T T"
Li       1.99328892       1.74206134       5.94660142       0.00018770      -0.00068267       0.00164032
Li       4.39892549       0.35149133       4.64826817      -0.00002246       0.00043427      -0.02338582
Li       4.39790271       0.35210583       1.15992060      -0.00081132       0.00121475       0.02323637
Li       1.99704851       1.74352841       9.14406368       0.00043022       0.00039550       0.00139742
Li       1.99310904       1.74204774      12.34831935      -0.00045873       0.00004049      -0.00421624
Li       1.99209418       1.74201658       2.90472290      -0.00031104       0.00001832       0.00067623
Ga      -0.41202041       3.13267149      11.19130758      -0.00086907       0.00064033       0.00254332
Ga      -0.41114832       3.13169084       7.10364619      -0.00099794       0.00134601      -0.00334127
Sn       4.40094600       0.35198615       7.66646840       0.00047464      -0.00083538      -0.04796852
Sn      -0.41312686       3.13187673       4.35342547      -0.00010231      -0.00016898      -0.01190676
Sn      -0.41451092       3.13283550       1.45754120       0.00141574      -0.00135916       0.01036018
Sn       4.39991621       0.35291640      10.62493026       0.00106454      -0.00104349       0.05096477
4
Lattice="4.031310203172734 0.00027190833556135877 2.327104083432745 1.3428599831855912 3.8010823748371227 2.32766057852119 0.0003680021464681091 0.0002470888548150704 4.655385358819961" Properties=species:S:1:pos:R:3:forces:R:3 structure_index=13 total_energy=-11.746607780456543 stress="0.043369729071855545 -0.0012471545487642288 -0.002053762087598443 -0.0012471952941268682 0.0438816174864769 -0.0011834152974188328 -0.002053788397461176 -0.0011834352044388652 0.041666027158498764" pbc="T T T"
Li       4.48091330       3.39699762       5.56515286      -0.00026288      -0.00002763       0.00366368
Li       1.79436803       1.49654865       5.56660279      -0.00115007      -0.00030772       0.00096929
Ga       0.45059392       0.54669655       3.24011751      -0.00031216      -0.00136986      -0.00277228
Sn       3.13687601       2.44615711       3.23904760       0.00172510       0.00170520      -0.00186070
8
Lattice="5.297730593050423 -0.2477456989714374 -1.526062691314499 -2.9001875674724875 4.451781803589819 -1.4910869945591148 0.21131341985371546 0.34401907497411843 6.0378333656129675" Properties=species:S:1:pos:R:3:forces:R:3 structure_index=14 total_energy=-23.58610725402832 stress="0.008027298375964165 0.004321473650634289 0.003869196167215705 0.00432176236063242 -0.006473809015005827 -0.020614538341760635 0.003869179170578718 -0.020614715293049812 -0.015138338319957256" pbc="T T T"
Li       2.57381311       2.32975257       3.14667974       0.00158293      -0.00654115      -0.00241036
Li      -1.52420281       4.68152524       3.16410053       0.00396277      -0.00368632      -0.00762731
Li       0.72779564       3.85699241      -1.58499779      -0.00012466       0.00689699       0.00238468
Li      -0.47107060       1.75323831      -0.07623624      -0.00469048       0.00317517       0.00731396
Ga       2.38502045       2.16528661       0.07031167      -0.00993350       0.00923216       0.00657139
Ga       0.91729502       4.02169361       1.49140664       0.00941028      -0.00956600      -0.00642618
Sn      -0.40547806       1.98419200       2.99107682      -0.01620826       0.02347256       0.02027029
Sn      -1.59006125       4.45025776       0.09661416       0.01600094      -0.02298341      -0.02007646
8
Lattice="4.440725258597413 0.0023491136408140124 -0.0007276928526012209 -0.0018987711748872582 4.054708703715969 -0.0005921559787005638 0.0015343862770203943 0.001161920972576883 8.105872399109602" Properties=species:S:1:pos:R:3:forces:R:3 structure_index=15 total_energy=-23.600515365600586 stress="-0.020920438691973686 0.0008452198235318065 0.00034663782571442425 0.0008452179608866572 -0.04324989765882492 -5.903475539525971e-05 0.0003466748748905957 -5.908413004362956e-05 -0.05268093943595886" pbc="T T T"
Li       2.06156871       1.75246031       0.33869968       0.00007377      -0.00018129       0.00338387
Li       2.06232100       3.78161854       6.41595637      -0.00042006      -0.00229394       0.00542389
Li       2.06248672       1.75307559       4.39830448       0.00023624       0.00000345      -0.00749974
Li       2.06105659       3.77943302       2.37217596      -0.00011828       0.00111692      -0.00506315
Ga       4.28089031       3.78055957       0.34189591       0.00027641       0.00073143      -0.00513800
Ga       4.28236007       3.78147760       4.39141802      -0.00049160      -0.00071389       0.00482009
Sn       4.28341457       1.75419341       6.42024859      -0.00003169       0.00159524       0.00044983
Sn       4.28221794       1.75361605       2.36623853       0.00047522      -0.00025792       0.00362321
10
Lattice="3.012846097645627 0.00036282719495946315 0.00030835615155111646 -0.0009216112497362754 7.903586780889459 -0.0049608565682243986 -0.0008329972930473321 0.004500286295973501 7.908556511777511" Properties=species:S:1:pos:R:3:forces:R:3 structure_index=16 total_energy=-28.90846061706543 stress="-0.018478747457265854 9.867019798548426e-06 -1.378118213324342e-05 1.0096402547787875e-05 -0.0183035247027874 -0.0007574523915536702 -1.3622317965200637e-05 -0.0007573763141408563 -0.017623990774154663" pbc="T T T"
Li       2.18700218       4.81039864       6.50845731      -0.00040691       0.02575329       0.02404644
Li       2.18549633       0.86142270       7.64494886       0.00286842       0.02350535      -0.02581119
Li       2.18757237       1.98898985       3.69378968      -0.00028039      -0.02413752      -0.02917754
Li       2.18743383       5.93967047       2.54868528      -0.00056694      -0.02170995       0.02787932
Ga       0.68075603       4.33021407       4.16770817       0.00020728      -0.01695479       0.01802564
Ga       0.68061188       2.47287033       6.02862502      -0.00079202       0.01658389      -0.01581655
Ga       0.68083022       6.42133955       0.21251933      -0.00050847       0.01855159       0.01400581
Ga       0.68136648       0.37785761       2.07526902      -0.00058920      -0.01790836      -0.01505214
Sn       0.67985710       7.35121743       5.09564804       0.00029078      -0.00070210      -0.00010834
Sn       0.68121645       3.39895340       1.14405125      -0.00022249      -0.00298140       0.00200851
4
Lattice="4.033581897267276 5.516844272157504e-05 2.326372284873259 1.345632097730146 3.802354612433395 2.330004195344022 0.00017223232132096636 5.1282607829261696e-05 4.656483647763384" Properties=species:S:1:pos:R:3:forces:R:3 structure_index=17 total_energy=-11.746580123901367 stress="0.07154620438814163 0.00022653024643659592 -0.001539423130452633 0.0002264756622025743 0.07023251056671143 0.0006186494138091803 -0.0015393553767353296 0.0006187987746670842 0.06987719237804413" pbc="T T T"
Li       2.78908383       1.64313303       4.16659320      -0.00038238      -0.00099226      -0.00143064
Li       1.44508837       3.54407441       6.49595147      -0.00011365      -0.00050107       0.00017289
Ga       1.44431855       0.69116045       1.83682264      -0.00036512       0.00245106       0.00240436
Sn       4.13359854       2.59378545       6.49468342       0.00086116      -0.00095773      -0.00114661
4
Lattice="4.438266143378456 0.0019593219829520487 0.00014098819045505395 -0.001472007253341865 4.059043265070452 -0.003264411795049323 -0.00016117026302501914 0.002507830458396533 4.059006392576052" Properties=species:S:1:pos:R:3:forces:R:3 structure_index=18 total_energy=-11.800283432006836 stress="-0.0016743806190788746 0.001061172690242529 -0.0001044972741510719 0.0010611721081659198 0.049593761563301086 -0.007031451445072889 -0.00010441823542350903 -0.007031443994492292 0.04942062869668007" pbc="T T T"
Li       3.86088811       2.34085138       1.28432940       0.00018895       0.00009519      -0.00029827
Li       3.86150009       0.31259012       3.31532667       0.00027085       0.00008926       0.00012024
Ga       1.64268065       0.31048469       1.28573535      -0.00028698      -0.00025870       0.00008358
Sn       1.64171871       2.34120459       3.31362134      -0.00017282       0.00007425       0.00009445
3
Lattice="3.9312821399323434 0.0006010628527302444 2.269781960647246 1.3096407619510355 3.7079418022380684 2.2684596873469864 -0.00010351114908242553 0.00023833895732053444 4.540089949290557" Properties=species:S:1:pos:R:3:forces:R:3 structure_index=19 total_energy=-9.425336837768555 stress="0.053208980709314346 -0.0016512778820469975 0.0006918595754541457 -0.0016517319018021226 0.05721384286880493 -0.0033150308299809694 0.0006915507256053388 -0.0033146971836686134 0.05488191172480583" pbc="T T T"
Li       2.25381572       0.36200144       2.62985362       0.00171313       0.00090051       0.00079399
Ga       3.56603777       1.29029810       4.90039445      -0.00552132       0.00115804       0.00152472
Sn       0.94402637       2.21743321       4.90078757       0.00380816      -0.00205854      -0.00231871
12
Lattice="4.3841864820214225 0.0007903584757027352 0.00021362819461702244 -0.0011548118925657463 6.023085958399185 0.003219892854732966 -0.00033911589481733294 0.0031059464883360227 8.904662163171077" Properties=species:S:1:pos:R:3:forces:R:3 structure_index=20 total_energy=-36.10211181640625 stress="-0.007952142506837845 -7.37855771149043e-07 1.2044451977999415e-05 -7.786273954479839e-07 -0.006315187551081181 1.1087350685556885e-05 1.1995431123068556e-05 1.1135578461107798e-05 -0.007799005135893822" pbc="T T T"
Li       1.22860459       3.53488749       8.90595575      -0.00021942      -0.04556198      -0.00006055
Li       3.42014609       5.40090848       4.47762332       0.00021125       0.04729586       0.01337364
Li       3.42088694       2.10315972       7.34610041      -0.00000774      -0.02764340      -0.00027390
Li       1.22907466       0.52326319       8.79532560       0.00001812      -0.04487670      -0.00124607
Li       3.42068555       5.10802387       1.44974455      -0.00018407      -0.02467209      -0.00106990
Li       3.42093194       2.38910140       4.31468106      -0.00004886       0.04841278      -0.01145877
Ga       1.22898837       0.79455904       2.88067660       0.00020096       0.01710179       0.00314408
Ga       1.22855860       3.80291255       5.91382161      -0.00003429       0.01919432      -0.00286700
Sn       3.42037926       5.03885409       7.45273621       0.00000968      -0.02463401       0.00378610
Sn       1.22900614       0.89279186       5.83494093       0.00002953       0.03103323       0.00268331
Sn       1.22865534       3.90766756       2.96076208      -0.00011211       0.02741054      -0.00390980
Sn       3.42101516       2.02231879       1.34168567       0.00013693      -0.02306033      -0.00210115
16
Lattice="5.018692471449387 0.001547273600804821 0.0007372048326068949 -0.0009520834259782267 5.43679291538833 0.18438252740893146 -0.00039799955232724835 0.06973575622682819 13.118798341734388" Properties=species:S:1:pos:R:3:forces:R:3 structure_index=21 total_energy=-51.36961364746094 stress="-0.01767084188759327 6.268620927585289e-05 3.900301817338914e-05 6.269267032621428e-05 -0.014056573621928692 0.0021470540668815374 3.8884398236405104e-05 0.0021469672210514545 -0.01972368359565735" pbc="T T T"
Li       1.39966655       2.48624521       9.41122033      -0.00066615       0.01778532      -0.00413311
Li       3.90494733       1.53937179       4.78649377      -0.00021741      -0.03803537      -0.00313512
Li       3.90586111       1.55968878       1.51984318       0.00013975       0.00931225       0.00116846
Li       1.39757629       5.29753294       8.03437367       0.00002621       0.00544369       0.01588490
Li       3.90372201       4.17927038       6.35518895       0.00075662      -0.02041102      -0.01650693
Ga       1.39588689       5.21784566       1.65716603       0.00057296       0.02494943       0.02797054
Ga       3.90628264       1.58304070       7.68714911      -0.00002233      -0.00842295      -0.00417608
Ga       1.39541583       2.45569442       6.50995555       0.00040171      -0.01056365      -0.00634900
Sn       3.90534467       4.28471255       3.31625626      -0.00113436      -0.01572720      -0.00720170
Sn       3.90826620       1.62926764      11.03157463      -0.00076893      -0.00260516      -0.03218013
Sn       1.39604638       2.34791360       3.19676392       0.00041027      -0.00072529       0.02634743
Sn       1.39825277       5.12562708      10.98194788      -0.00012884       0.01099735       0.01579008
Sn       3.90793528       4.22946878       9.18550723      -0.00075838       0.00220416      -0.02277815
Sn       3.90564936       4.44880073      13.20257381      -0.00024827       0.01335414       0.01322871
Sn       1.39680060       2.50565496      12.94155735       0.00068202       0.01873996      -0.00852393