6
Lattice="3.0779060244793 0.0002660680104019326 -0.5210451609420096 -0.0005924668080923239 4.399486738364319 -0.0015865500460737951 -0.02588434723755198 0.0029061203904599377 9.234347013791108" Properties=species:S:1:pos:R:3:forces:R:3 structure_index=0 total_energy=-18.527681350708008 stress="-0.04506197199225426 0.00017597139230929315 0.00740360701456666 0.0001759082661010325 -0.043613795191049576 3.2055115298135206e-05 0.007403726689517498 3.214823664166033e-05 -0.00048170782974921167" pbc="T T T"
Li       0.41491933       3.35884774       6.50805471       0.00764127      -0.00109874       0.03668830
Li       1.06117792       1.15478339       0.91645586      -0.00645129       0.00163243      -0.03578315
Ga       2.37994732       3.35876550       8.73649638      -0.00052700      -0.00010253       0.00687497
Ga       2.14917740       1.15892567       7.40161472      -0.00013999      -0.00062256      -0.00570404
Sn       1.66184728       1.15771423       4.52590107       0.00612045      -0.00064789       0.02101710
Sn       2.89286538       3.35587649       2.37876470      -0.00664345       0.00083929      -0.02309320
10
Lattice="4.485445483945882 0.0035070157292109013 0.0018196156762879448 -2.2436451914753914 3.8852555229182504 0.0008213237741602368 -0.0031265206532509826 -0.009622593517263543 12.663859454661663" Properties=species:S:1:pos:R:3:forces:R:3 structure_index=1 total_energy=-30.19793701171875 stress="0.01695815473794937 0.0012402653228491545 -0.0004824587085749954 0.0012402712600305676 0.018353283405303955 -0.0002748786355368793 -0.00048256985610350966 -0.0002749779960140586 -0.013825876638293266" pbc="T T T"
Li       0.56009166       0.69027540       4.72226642      -0.00200378       0.00147007       0.00090809
Li       0.55466339       0.69091249       7.74069019       0.00108076      -0.00034383      -0.01269036
Li       0.55587589       0.69939646       0.29555569       0.00085795      -0.00215752       0.01706937
Ga       2.79956144       1.98823165       6.01317017       0.00353482      -0.00012513       0.00694930
Ga       0.55258944       3.27947534      11.71341935       0.00087754      -0.00079325      -0.02837723
Ga       0.55665104       3.28230047       6.47889790      -0.00361361      -0.00004766      -0.00790082
Ga       0.55336345       3.28041662       9.06185307       0.00091909      -0.00013784      -0.03618295
Sn       2.79663529       1.98490654      10.45014779      -0.00105620       0.00199455       0.00898633
Sn       0.55785374       3.28645247       1.84925767      -0.00156847       0.00268398       0.00256002
Sn       2.80111649       1.99130871       3.11716596       0.00097190      -0.00254337       0.04867827
11
Lattice="4.488843498873868 0.0013290911918605645 -0.0006772567201277499 -2.2453855332171835 3.8875043962357245 0.0007745537266037036 0.0012359333484574903 0.0012485147072734772 13.33903559550604" Properties=species:S:1:pos:R:3:forces:R:3 structure_index=2 total_energy=-32.869956970214844 stress="0.03100593015551567 0.0003635689790826291 -0.000222547329030931 0.00036351411836221814 0.03126837685704231 0.00035835534799844027 -0.00022255443036556244 0.00035839443444274366 0.02484184317290783" pbc="T T T"
Li       1.81580495       0.10714166       0.45659914       0.00087025      -0.00074331      -0.01917474
Li       1.81737561       2.69899665       9.97472054      -0.00125391       0.00054118      -0.01424521
Li       1.81682078       2.69919396       2.41986788       0.00016048      -0.00054003       0.00590847
Li       1.81595150       2.70148292       5.49639330       0.00058127      -0.00086670       0.02624491
Ga      -0.42797303       1.40233256       1.49337119      -0.00042421       0.00014162      -0.00771240
Ga      -0.42625066       1.40238571       4.20499502      -0.00062865       0.00081186      -0.04699413
Ga       1.81833909       0.10668662       3.38807003      -0.00074823       0.00047787       0.04402768
Ga       1.81690671       0.10706933      11.09013081       0.00076485      -0.00033982      -0.01497914
Sn      -0.42802748       1.40400952       7.04817855       0.00018438      -0.00021901       0.03838492
Sn       1.81695336       0.10812699       8.31720010       0.00017284      -0.00022834       0.02151659
Sn      -0.42783176       1.40257706      11.99848275       0.00032091       0.00096470      -0.03297694
8
Lattice="4.1866787042523725 -0.011231359071204197 -0.002470083118305288 -2.075756151124885 6.024277207921657 0.0010284063590733613 0.0021568594319104034 -0.00220855879157019 6.698626475117758" Properties=species:S:1:pos:R:3:forces:R:3 structure_index=3 total_energy=-23.922595977783203 stress="-0.008363498374819756 0.00034094773582182825 -9.72187626757659e-05 0.0003408628690522164 0.008753309026360512 -0.0008621039451099932 -9.715810301713645e-05 -0.0008621654123999178 -0.03717050328850746" pbc="T T T"
Li      -0.46048790       4.25713977       4.59635407      -0.00050807      -0.03204053      -0.00094543
Li      -0.46511802       3.16296098       1.23870601      -0.00056580       0.03110442       0.00394363
Ga       1.62366596       2.45597374       3.24638872       0.00322741      -0.00839055       0.00255138
Ga       1.63645862       4.95159319       2.58956978      -0.00267831       0.00840388      -0.00164243
Ga       1.63627309       4.95081820       6.59710635      -0.00076662       0.00495026       0.00041976
Ga       1.62572315       2.45400808       5.93801404       0.00166050      -0.00537566      -0.00283743
Sn       1.62132108       0.47176747       1.24366970       0.00149872      -0.04252284      -0.00107403
Sn       3.71443059       0.91104908       4.59264577      -0.00186784       0.04387103      -0.00041545
11
Lattice="3.0647119618054934 0.0012642579941762695 -0.0006844831111605844 -0.0033599697896024854 8.009912140168836 -0.5276924024427283 0.001969918888321495 0.13008582808030225 9.5547007279304" Properties=species:S:1:pos:R:3:forces:R:3 structure_index=4 total_energy=-35.19355773925781 stress="-0.021279500797390938 -7.590025234094355e-06 -7.871955176597112e-07 -7.582755188195733e-06 -0.012103325687348843 -0.0011309479596093297 -8.374082653972437e-07 -0.001131191966123879 -0.01355014368891716" pbc="T T T"
Li       0.24040784       7.37589222       3.98357062       0.00024847      -0.02511086      -0.00990412
Li       0.24284336       2.80530080       6.96372437       0.00026654      -0.04617297       0.00930823
Li       0.23990852       7.77509943      -0.17424152      -0.00022591       0.04685048      -0.00941416
Li       0.24221782       3.20594019       2.80602630      -0.00015684       0.02530834       0.00928063
Ga       1.77562789       0.69796780       2.49166495      -0.00019536       0.01710104       0.00721750
Ga       1.77513564       1.87517353       4.82461557       0.00018114      -0.01778180      -0.00660324
Sn       1.77643236       0.09476872       7.19557016       0.00020356      -0.02413292      -0.02769057
Sn       1.77339923       5.69702934       1.73274892      -0.00007818       0.03959332      -0.02650844
Sn       1.77438754       2.47703299       0.12068363      -0.00012161       0.02498579       0.02791541
Sn       1.77398343       4.88621978       5.05633199       0.00024820      -0.04068104       0.02640534
Sn       1.77487195       5.35599972       8.17196252      -0.00037003       0.00004056      -0.00000660
18
Lattice="5.768010758288252 0.0029359004304322462 -1.0450188658298152 -0.5361792579822412 7.1621514258050665 -3.4215570780728006 0.07531108823878684 -0.04514518035527433 7.703634866258498" Properties=species:S:1:pos:R:3:forces:R:3 structure_index=5 total_energy=-49.8104248046875 stress="0.010441677644848824 0.002824934432283044 -0.0036621547769755125 0.0028248969465494156 0.005322048906236887 0.00021427097090054303 -0.00366213615052402 0.00021431603818200529 0.010235638357698917" pbc="T T T"
Li       0.98654019       0.35643421       6.25333061      -0.00143418      -0.00490922       0.00620389
Li       4.77475078       0.31447127       2.97587525      -0.01660685       0.01297886       0.01566725
Li       3.64111485       5.13405359       3.98057032       0.00287381       0.00827116      -0.03767526
Li       2.57882131       5.12772719      -0.96699430       0.01010233      -0.02096037      -0.00630833
Li       5.19692483       2.78561091       4.63076860      -0.00529300       0.02575813       0.00513568
Li       2.73787510       0.42910770       0.71679728      -0.00886422      -0.00889378       0.01284566
Li       2.27118641       2.68503149       5.14482063      -0.01416185      -0.01561062      -0.01299089
Li       4.64377450       5.10242740       1.25396754       0.00163177       0.01438889      -0.01187917
Li       0.39404671       2.72036727       2.86865971       0.02176750       0.00610714      -0.00321547
Li       1.67092475       5.14077028       1.76963166       0.02454368       0.02524679       0.01936073
Li       5.72111170       0.40506561       0.20948588      -0.00638318      -0.01022296       0.01843113
Ga       4.17326878       2.81572128      -0.44572336       0.01349896       0.00640920      -0.00253704
Ga       1.19716196       2.82554703       0.12732200       0.00760365      -0.00336982       0.01505300
Ga       1.79518711       0.30314334       3.49951426      -0.00352763      -0.00973220       0.00397025
Ga      -0.29352004       5.18683982      -0.37875812       0.01033837      -0.01606498      -0.00677031
Sn       3.27192504       2.74200354       2.30721264      -0.00240884      -0.02740394      -0.00877224
Sn       3.87192832       0.33677922       5.67707131      -0.00958415       0.02247414      -0.02595517
Sn       0.76684348       5.11624930       4.56400733      -0.02409614      -0.00446636       0.01943626
4
Lattice="4.279927997404039 0.0004058743682505714 -0.000786456101542783 -0.001226980373880284 4.280021616176358 0.00013128718597744013 0.00047165424121517366 -7.86053027502338e-05 4.357690251915508" Properties=species:S:1:pos:R:3:forces:R:3 structure_index=6 total_energy=-12.158658027648926 stress="0.041046492755413055 -0.002437993884086609 -0.0016054677544161677 -0.0024380881804972887 0.041735149919986725 0.000267094059381634 -0.0016055909218266606 0.0002670465619303286 0.049704063683748245" pbc="T T T"
Li       3.35497691       1.17291884       3.22426018       0.00017724       0.00028451      -0.00019856
Ga       1.21521673       1.17330232       1.04526908      -0.00053332      -0.00074859       0.00009477
Ga       3.35418769       3.31294510       1.04527959       0.00005343       0.00043296      -0.00077879
Sn       1.21431417       3.31303425       3.22399885       0.00030264       0.00003112       0.00088259
5
Lattice="5.412342585622362 -0.23281581049480762 1.2656424414078076 1.7784866932528625 5.111794271542969 1.2744420962285299 0.7701757971387087 0.5145815224674374 4.294536881567679" Properties=species:S:1:pos:R:3:forces:R:3 structure_index=7 total_energy=-15.723912239074707 stress="-0.0668564960360527 -0.012941421940922737 0.005209874827414751 -0.012941553257405758 -0.05008133873343468 0.0023916768841445446 0.005209852941334248 0.0023917665239423513 -0.04742199182510376" pbc="T T T"
Li       0.86482998       0.36283536       2.03075566      -0.00002747      -0.00001306       0.00004162
Ga       5.59174604       1.92524004       5.44854786      -0.00750421      -0.01638669       0.00869619
Ga       4.09872914       4.19387984       5.44768042       0.00749039       0.01642184      -0.00868022
Sn       3.11259179       1.92158355       3.63993950      -0.02059943       0.00273620       0.02622255
Sn       5.80771756       3.68300341       2.96176885       0.02064072      -0.00275826      -0.02628015
12
Lattice="4.16504333318408 -0.007626924378364568 1.178816456536458 1.4184014530098956 7.06896364923629 2.9812960095692573 0.06438689186000982 0.033376006221624066 7.720040192929983" Properties=species:S:1:pos:R:3:forces:R:3 structure_index=8 total_energy=-35.55000305175781 stress="-0.019827352836728096 0.00024323405523318797 -0.00036332523450255394 0.00024318529176525772 -0.022671129554510117 -0.0014245747588574886 -0.0003633990418165922 -0.0014245971105992794 -0.019428059458732605" pbc="T T T"
Li       1.54433349       0.28183270       7.53394390      -0.00048182      -0.02342923       0.00111588
Li       2.34731679       0.86293620       4.69982649      -0.00426287       0.01043844       0.01550976
Li       3.13420862       1.43526522       1.92366893      -0.00321414      -0.04647385       0.01108108
Li       3.08995128       4.41154525      10.04650538       0.01138079      -0.00363286      -0.03997993
Li       1.34379134       6.20729128       8.27989166       0.00470576      -0.00830527      -0.01616026
Li       2.23806019       3.87011871       5.10485959      -0.00962553       0.02118045       0.03566340
Li       3.86918719       5.03910392       7.29708310       0.00073630       0.02460720      -0.00230919
Ga       2.09903724       6.69776118       5.61489894       0.00342678       0.04732470      -0.01126675
Sn       1.46372199       3.29873425       7.83783782      -0.00739023      -0.03389242       0.02539137
Sn       0.60797902       2.56779705       2.90904222      -0.00113068       0.01931408       0.00390725
Sn       4.64118197       5.63013079       4.57417489       0.00348738      -0.02055587      -0.01441651
Sn       3.97960125       2.01140438       6.88772747       0.00236824       0.01342462      -0.00853609
18
Lattice="5.616177052750155 -0.0013415652881179935 -0.35034125295863733 -0.9572651863754348 7.533068553677744 -1.2542644142040298 0.07871950300647802 0.004331384090794197 7.811697543376916" Properties=species:S:1:pos:R:3:forces:R:3 structure_index=9 total_energy=-51.42497634887695 stress="-0.014407437294721603 0.00021784989803563803 -0.0009680244838818908 0.0002177668793592602 -0.014871207997202873 -0.00025536466273479164 -0.0009678818751126528 -0.00025530331186018884 -0.01571294106543064" pbc="T T T"
Li       4.24980450       2.23158074       2.00484854      -0.00554913      -0.00709541      -0.00521823
Li       4.26157292       0.48936072       5.90490378       0.00283725       0.01559048       0.00663498
Li       3.30952444       4.86744139       0.77601393       0.00826052       0.00611080      -0.00341550
Li       2.39063752       0.55829909       3.36290309       0.02648050      -0.00200712       0.00151163
Li       0.50228298       7.23289870       4.83537676      -0.00253992      -0.00845076      -0.00077651
Li       0.45118705       2.33260295       4.77451979      -0.01304863      -0.01445675      -0.00217379
Li       1.44936383       4.86363469       6.06283400      -0.01068519      -0.00629850      -0.01139731
Li       2.39576981       2.31916093      -0.39754582       0.02661739      -0.00091181       0.00292556
Li      -0.45796823       4.84838349       3.60127272      -0.00191304      -0.01173581       0.00163554
Li       0.47136826       0.51427622       1.00906501      -0.02667232       0.00072950      -0.00251078
Ga       4.32439821       5.60266567       5.85690176      -0.02362931       0.00212808      -0.00794359
Ga       0.53503413       5.56962004       1.00371335       0.00786892       0.01811878       0.02010682
Ga       1.43950182       3.13338815       2.19010270       0.00033829      -0.00876862       0.00235910
Ga       2.25514731       5.61728614       3.41337771       0.00686022       0.00412732      -0.00666018
Sn       4.29854231       7.30100201       2.11931988       0.02701109      -0.00307201       0.02574281
Sn       3.21247197       3.08259242       4.60784790      -0.01778313       0.00158309      -0.00926213
Sn       2.26582057       7.28891728      -0.60578248      -0.02852852      -0.00304943      -0.02497624
Sn       5.25332877       3.06056246      -0.59840995       0.02407499       0.01745809       0.01341777
12
Lattice="3.3336726675975763 1.8468231021935665e-05 -0.0007634300427685311 2.917014828128959e-05 9.599526861085284 0.002755657240971571 0.0015554213669563685 -0.1732669094440139 7.818541989110414" Properties=species:S:1:pos:R:3:forces:R:3 structure_index=10 total_energy=-36.47114562988281 stress="-0.021820861846208572 6.155000301077962e-05 -9.67618916547508e-07 6.1601705965586e-05 -0.02016415260732174 0.002062359359115362 -9.016977173814666e-07 0.002062359359115362 -0.01786031387746334" pbc="T T T"
Li       2.39336274       0.45458096       2.51512475       0.00004382       0.00798525      -0.01345244
Li       0.72710145       2.80981175       3.95057965       0.00002756       0.02071238      -0.01884132
Li       0.72653295       7.06723751       3.59553103       0.00026592      -0.01082611       0.00779700
Li       0.72843926       5.18501373       7.50591504      -0.00045740      -0.01795819       0.02571671
Li       2.39425702       2.25151091       6.50071019       0.00018343       0.02284614      -0.01014752
Ga       2.39394322       7.54385149       6.07291641       0.00003053       0.04374972       0.01164888
Ga       0.72597735       0.04674111       0.00056880      -0.00003363      -0.03942977      -0.02286399
Ga       2.39408705       4.79982684       2.22884503      -0.00025969      -0.03005665       0.02485888
Sn       0.72675388       0.13406373       5.00298893       0.00024475       0.03058027      -0.01648436
Sn       2.39318870       7.48406771       1.11183460       0.00004814      -0.03362080       0.00714333
Sn       0.72685335       2.67791985       1.11402847      -0.00018812      -0.02783518      -0.01893289
Sn       2.39423240       4.87252506       5.06962385       0.00009468       0.03385296       0.02355772
12
Lattice="5.514314079812276 -0.0030917298240222047 -2.0563574250957606 -0.7506257004644837 5.366645770524614 -2.0219438997528 0.05698220327130672 0.11808185365476881 8.579606003405909" Properties=species:S:1:pos:R:3:forces:R:3 structure_index=11 total_energy=-35.693443298339844 stress="0.02110167220234871 -6.775528891012073e-05 -0.0013278109254315495 -6.770866457372904e-05 0.02105436846613884 -0.0019034965662285686 -0.0013276418903842568 -0.001903498894535005 0.01867046020925045" pbc="T T T"
Li       4.66206100       5.44951177       1.69046911       0.01487580       0.01915270       0.03450447
Li       2.65013437       3.11832707       0.50053597      -0.00119531      -0.00196348      -0.00052639
Li       3.44759484       0.89652509       6.85930446      -0.01329245      -0.01880809      -0.03042853
Li       0.30148990       3.66665883       6.84714955      -0.01290268      -0.00843070      -0.03327893
Li      -0.11125298       3.11986071       1.52925978       0.00112659      -0.00188151      -0.00047182
Li       2.29029900       2.69079115       3.75537842       0.01606183       0.00835025       0.03708377
Ga       0.26396055       0.43408141       2.53765792       0.00191610       0.00110674      -0.00063979
Ga       3.02363026       0.43328726       1.50914945      -0.00169722       0.00023685       0.00018493
Sn       4.86230223       2.57161309       2.22616857       0.00486871      -0.00303002       0.01840509
Sn       1.74095916       5.16164233       2.27554132       0.00226477       0.02194424       0.01377513
Sn       0.79748463       1.07881762      -0.24905952      -0.00464776      -0.02085276      -0.01766823
Sn       3.19032740       3.65577755      -2.25355879      -0.00737841       0.00417577      -0.02093971
9
Lattice="4.421606967604137 0.006104908741647999 0.012100343187797569 -2.2172517061591925 4.193299503785888 0.2579811227576135 -0.021290354258262555 0.5189201098463989 8.637004956670173" Properties=species:S:1:pos:R:3:forces:R:3 structure_index=12 total_energy=-25.945844650268555 stress="0.00518721854314208 0.000576159218326211 0.0001980223460122943 0.0005763746448792517 0.0014303491916507483 0.02041882462799549 0.0001979531953111291 0.020418966189026833 0.023315304890275" pbc="T T T"
Li      -0.20946176       1.11412394       3.22887149       0.00007995      -0.00001515      -0.00020382
Li      -0.21819367       1.27454390       6.13484159       0.00101018      -0.02303674       0.03074628
Li      -0.20053741       0.95299837       0.32224450      -0.00111118       0.02328544      -0.03005035
Li       2.00568962       2.39089770       1.42596666      -0.00182915       0.00578560      -0.00553535
Li      -0.22020153       4.03666427       5.30220502       0.00193686      -0.00614706       0.00503473
Ga       1.98927633       2.75322628       7.33052163       0.00011917       0.00379700       0.01206317
Ga      -0.22487364       4.19253216       8.03457795      -0.00016185      -0.00365977      -0.01278182
Sn      -0.21018881       3.84763050       2.26826389       0.00048305       0.03769074      -0.03472803
Sn       1.99569291       2.58000720       4.45957265      -0.00052700      -0.03770005       0.03545517
9
Lattice="3.2897932320965557 0.0005372017667085026 0.00021488873665364216 0.0005508997655748706 7.114855891098335 -4.108291374645376 0.00016075765666033473 0.006651409755714459 8.214962304083475" Properties=species:S:1:pos:R:3:forces:R:3 structure_index=13 total_energy=-27.496755599975586 stress="-0.003888125531375408 0.0003172823053319007 3.341550473123789e-05 0.0003173513396177441 -0.004191993270069361 0.0005441110697574914 3.335694418638013e-05 0.0005438628722913563 -0.0044726119376719" pbc="T T T"
Li       0.59658758       3.80848646      -2.15282824      -0.00036303      -0.00424878      -0.00370189
Li       0.59755665       6.43570498       2.39506525      -0.00059058      -0.00014831       0.00234216
Li       0.59730254       1.95139233       1.94698278      -0.00063068       0.00236326      -0.00107609
Ga       2.24190556       4.30911383       0.58567428       0.00043488      -0.03694752       0.02196189
Ga       2.24020544       1.44855706       4.69527338       0.00104709       0.03690495       0.01941253
Ga       2.24176835       6.43275957      -3.09680327       0.00051965      -0.00139900      -0.04170149
Sn       2.24170944       4.06463437       3.46793215       0.00037136       0.00140014      -0.00211641
Sn       0.59757299       6.43753746      -0.64123905      -0.00149404      -0.00007108       0.00153419
Sn       2.24107505       1.68882521      -0.64152006       0.00070536       0.00214633       0.00334513
4
Lattice="4.354264018517202 0.00044964740812453066 -0.0008999564507916955 -0.00031509651907301597 4.275870677901037 -0.0006654774986426672 0.0012467100847883023 0.000754762995397174 4.276474403141694" Properties=species:S:1:pos:R:3:forces:R:3 structure_index=14 total_energy=-12.158652305603027 stress="-0.06404520571231842 0.0006341100670397282 0.0018268737476319075 0.0006341206026263535 -0.05353015661239624 0.000269401294644922 0.0018267950508743525 0.0002694197464734316 -0.0491374172270298" pbc="T T T"
Li       1.40514286       4.20699611       2.30768969      -0.00029073       0.00026876      -0.00021972
Ga       3.58189149       2.06955820       2.30720204       0.00040776      -0.00013578       0.00052367
Ga       3.58142326       4.20715522       0.16867370      -0.00041264      -0.00033154       0.00016123
Sn       1.40414260       2.06878892       0.16974132       0.00029561       0.00019856      -0.00046518
9
Lattice="4.236177657204832 0.007769682540359874 1.2062230169463364 2.040201163355531 4.927884677254249 0.8508566928898263 0.027164072055095845 -0.22071792333959048 7.933991069653553" Properties=species:S:1:pos:R:3:forces:R:3 structure_index=15 total_energy=-26.070362091064453 stress="-0.03545253351330757 0.007882196456193924 0.0019267982570454478 0.007882296107709408 -0.03840544447302818 -0.02106291800737381 0.0019267702009528875 -0.021062936633825302 -0.040457479655742645" pbc="T T T"
Li       4.24166364       0.47080124       3.10180441       0.00121634       0.01499634      -0.00527344
Li       3.56737198       2.16056873       5.45561627       0.00023186       0.00649793       0.00222490
Li       2.71724510       3.34711568       8.43232585       0.00629600      -0.03459046      -0.02071549
Ga       1.59570083       0.23823948       4.35038735       0.00301581      -0.03216516       0.00010653
Ga       2.66495572       0.49642359       8.62667441      -0.00284705       0.00714978      -0.00223780
Ga       0.88832047       1.30567990       6.81660225      -0.00356815       0.02468506       0.02838167
Ga       4.24218640       3.57295089       3.08248029      -0.00564840       0.01189812       0.02458562
Ga       2.02505427       2.28839949       2.83525194       0.00346474       0.01655769      -0.01574193
Sn       5.40250498       4.00598002       7.04841342      -0.00216114      -0.01502932      -0.01133006
12
Lattice="4.51838951316285 -0.001624675647900525 0.0007021405019287377 0.0019996960635955655 6.250816243602487 -0.0050685450135615736 -0.0017869695583672292 -0.14911788883502475 9.219293989621065" Properties=species:S:1:pos:R:3:forces:R:3 structure_index=16 total_energy=-37.245452880859375 stress="-0.019741958007216454 -2.022262015088927e-05 4.003349749837071e-05 -2.0223193132551387e-05 0.012790207751095295 -0.00943232886493206 4.005899609182961e-05 -0.009432313032448292 -0.0012455744436010718" pbc="T T T"
Li       1.52077121       5.05259511       1.62774811       0.00032014       0.03006182      -0.01676126
Li       3.78022249       3.30381559      -0.07763199      -0.00032470       0.03172809      -0.02106090
Ga       3.77860355       3.16612821       6.07936182       0.00012875      -0.02154643      -0.01195792
Ga       1.51899932       1.56569057       7.83408143      -0.00035059       0.00042026       0.01828803
Ga       1.51944880       1.92479908       1.59799714       0.00118871       0.02578106       0.02576881
Ga       3.77726338       0.07862686       6.29416325       0.00100531      -0.00219003       0.02728913
Ga       3.77772500       0.25954629       3.16937518       0.00076523       0.01718380      -0.00529312
Ga       1.52023189       4.75581812       4.63340101       0.00001019      -0.03704209      -0.02422959
Sn       3.77948409       3.47511465       2.99953987      -0.00079619       0.00502411      -0.04768601
Sn       1.51961193       4.61887584       7.61797626      -0.00021323       0.00299938       0.02777187
Sn       3.77909720       0.31487074       0.17619861      -0.00056587      -0.02189644       0.00358611
Sn       1.51919653       1.53819640       4.71145853      -0.00116769      -0.03052354       0.02428484
5
Lattice="3.7344966463337763 0.0012249938572810803 1.6090385862934549 1.644641628927385 4.563991460152004 1.3146701685027107 -0.09048429987860117 -0.5074689578669618 5.338834527806845" Properties=species:S:1:pos:R:3:forces:R:3 structure_index=17 total_energy=-14.607917785644531 stress="0.03272720053792 -0.019097313284873962 0.0032115280628204346 -0.019097475335001945 -0.061259862035512924 0.042397961020469666 0.0032114346977323294 0.042398449033498764 0.02201864682137966" pbc="T T T"
Li       1.99789224       3.31829264       3.26266513      -0.00364502       0.00862277       0.02055540
Li       0.87948033       2.16247916       5.86596832       0.00363956      -0.00848404      -0.02047057
Ga       3.54293625       1.45982463       4.82923646      -0.00619336      -0.01125998      -0.01074624
Ga       3.06899393       4.02240885       5.90857462       0.00610131       0.01106524       0.01043377
Sn       2.52882955       0.71273926       2.04204265       0.00009750       0.00005605       0.00022764
4
Lattice="4.031928069343129 7.117384550540128e-05 2.3251502081685467 1.3455675281141115 3.8008026121506813 2.3280395083064978 0.0002797012829391758 0.00012394443447820186 4.65406350100334" Properties=species:S:1:pos:R:3:forces:R:3 structure_index=18 total_energy=-11.74661636352539 stress="0.039354950189590454 0.0005018171505071223 -0.0020679195877164602 0.0005016959039494395 0.040669579058885574 -1.84928321687039e-05 -0.0020680539309978485 -1.8585282305139117e-05 0.037421729415655136" pbc="T T T"
Li       2.80036184       2.31216276       5.00734757       0.00044771       0.00004421       0.00029137
Li       4.14349037       0.41159948       2.67897380       0.00028310       0.00044129       0.00017282
Ga       1.45597370       1.36185962       2.68088901       0.00009976       0.00005084      -0.00061606
Sn       4.14512955       3.26252568       7.33420654      -0.00083058      -0.00053634       0.00015187
18
Lattice="6.028782418782931 -0.05559436337147809 -1.0104740206473877 -2.383908477892014 6.788166138334802 -3.773387227946374 -0.007520373428890102 -0.154601347925976 8.820943296595365" Properties=species:S:1:pos:R:3:forces:R:3 structure_index=19 total_energy=-53.95638656616211 stress="0.0018032204825431108 0.00032481670496053994 -2.0407334886840545e-05 0.0003248137654736638 0.0029628202319145203 0.0003820521815214306 -2.0395593310240656e-05 0.00038190963095985353 0.0026714422274380922" pbc="T T T"
Li       3.45099247       1.55334701      -0.80196536      -0.00011751       0.00377975       0.00742348
Li       1.06863729       1.24452897       2.59537346       0.00453220      -0.02289208      -0.00462300
Li       2.89658775       6.02589100      -3.56567620      -0.00738671      -0.00528735      -0.00268939
Li      -0.13396438       6.00122086      -3.13210067       0.00065955      -0.00765817      -0.00909556
Li       4.10724000       3.89193976       3.28293044      -0.02977720       0.00625068       0.01829480
Li       2.89648745       1.60459258       4.89013011       0.00305640       0.01226008       0.00283032
Li       1.69494318       3.64085826      -1.95974086       0.01812274       0.01354814      -0.01130613
Li       2.26159784       6.22417182       2.28362146      -0.00250723       0.00527115      -0.00453623
Li       3.46587505       5.70351633      -0.45916966       0.00272756       0.00364822       0.00292890
Ga      -0.14482753       1.74633360       5.34876763       0.00620580       0.00815976      -0.01198852