# Thermal properties / unit cell (natom)

unit:
  temperature:   K
  free_energy:   kJ/mol
  entropy:       J/K/mol
  heat_capacity: J/K/mol

natom: 15   
cutoff_frequency: 0.00000
num_modes: 152100
num_integrated_modes: 152053

zero_point_energy:      55.7831180

thermal_properties:
- temperature:         0.0000000
  free_energy:        55.7831180
  entropy:             0.0000000
  heat_capacity:       0.0000000
  energy:             55.7831180

- temperature:        10.0000000
  free_energy:        55.7768051
  entropy:             2.0414654
  heat_capacity:       5.2298158
  energy:             55.7972198

- temperature:        20.0000000
  free_energy:        55.7135542
  entropy:            12.2203964
  heat_capacity:      29.3492721
  energy:             55.9579621

- temperature:        30.0000000
  free_energy:        55.5084738
  entropy:            29.5178946
  heat_capacity:      57.2039934
  energy:             56.3940106

- temperature:        40.0000000
  free_energy:        55.1154601
  entropy:            49.2488757
  heat_capacity:      80.3677938
  energy:             57.0854152

- temperature:        50.0000000
  free_energy:        54.5222682
  entropy:            69.3961353
  heat_capacity:     100.7187994
  energy:             57.9920749

- temperature:        60.0000000
  free_energy:        53.7277227
  entropy:            89.4993683
  heat_capacity:     120.3837319
  energy:             59.0976848

- temperature:        70.0000000
  free_energy:        52.7325137
  entropy:           109.5328341
  heat_capacity:     140.0389208
  energy:             60.3998121

- temperature:        80.0000000
  free_energy:        51.5372587
  entropy:           129.5066290
  heat_capacity:     159.4845378
  energy:             61.8977891

- temperature:        90.0000000
  free_energy:        50.1426984
  entropy:           149.3840152
  heat_capacity:     178.2598530
  energy:             63.5872598

- temperature:       100.0000000
  free_energy:        48.5501409
  entropy:           169.0923379
  heat_capacity:     195.9571012
  energy:             65.4593747

- temperature:       110.0000000
  free_energy:        46.7616959
  entropy:           188.5476094
  heat_capacity:     212.3186520
  energy:             67.5019330

- temperature:       120.0000000
  free_energy:        44.7802940
  entropy:           207.6717935
  heat_capacity:     227.2322421
  energy:             69.7009092

- temperature:       130.0000000
  free_energy:        42.6095780
  entropy:           226.4011631
  heat_capacity:     240.6935009
  energy:             72.0417292

- temperature:       140.0000000
  free_energy:        40.2537456
  entropy:           244.6885902
  heat_capacity:     252.7666871
  energy:             74.5101482

- temperature:       150.0000000
  free_energy:        37.7173858
  entropy:           262.5025905
  heat_capacity:     263.5538093
  energy:             77.0927743

- temperature:       160.0000000
  free_energy:        35.0053336
  entropy:           279.8249915
  heat_capacity:     273.1733699
  energy:             79.7773323

- temperature:       170.0000000
  free_energy:        32.1225506
  entropy:           296.6482660
  heat_capacity:     281.7469843
  energy:             82.5527558

- temperature:       180.0000000
  free_energy:        29.0740307
  entropy:           312.9730316
  heat_capacity:     289.3916222
  energy:             85.4091764

- temperature:       190.0000000
  free_energy:        25.8647300
  entropy:           328.8059145
  heat_capacity:     296.2155658
  energy:             88.3378538

- temperature:       200.0000000
  free_energy:        22.4995160
  entropy:           344.1578175
  heat_capacity:     302.3166861
  energy:             91.3310795

- temperature:       210.0000000
  free_energy:        18.9831311
  entropy:           359.0425645
  heat_capacity:     307.7820949
  energy:             94.3820696

- temperature:       220.0000000
  free_energy:        15.3201696
  entropy:           373.4758621
  heat_capacity:     312.6885618
  energy:             97.4848593

- temperature:       230.0000000
  free_energy:        11.5150627
  entropy:           387.4745221
  heat_capacity:     317.1033164
  energy:            100.6342028

- temperature:       240.0000000
  free_energy:         7.5720702
  entropy:           401.0558864
  heat_capacity:     321.0850097
  energy:            103.8254829

- temperature:       250.0000000
  free_energy:         3.4952777
  entropy:           414.2374105
  heat_capacity:     324.6847032
  energy:            107.0546304

- temperature:       260.0000000
  free_energy:        -0.7114028
  entropy:           427.0363662
  heat_capacity:     327.9468149
  energy:            110.3180524

- temperature:       270.0000000
  free_energy:        -5.0442307
  entropy:           439.4696350
  heat_capacity:     330.9099866
  energy:            113.6125708

- temperature:       280.0000000
  free_energy:        -9.4996312
  entropy:           451.5535693
  heat_capacity:     333.6078603
  energy:            116.9353682

- temperature:       290.0000000
  free_energy:       -14.0741901
  entropy:           463.3039033
  heat_capacity:     336.0697606
  energy:            120.2839418

- temperature:       300.0000000
  free_energy:       -18.7646475
  entropy:           474.7357003
  heat_capacity:     338.3212881
  energy:            123.6560626

- temperature:       310.0000000
  free_energy:       -23.5678903
  entropy:           485.8633277
  heat_capacity:     340.3848327
  energy:            127.0497413

- temperature:       320.0000000
  free_energy:       -28.4809458
  entropy:           496.7004503
  heat_capacity:     342.2800151
  energy:            130.4631983

- temperature:       330.0000000
  free_energy:       -33.5009743
  entropy:           507.2600373
  heat_capacity:     344.0240645
  energy:            133.8948380

- temperature:       340.0000000
  free_energy:       -38.6252625
  entropy:           517.5543794
  heat_capacity:     345.6321432
  energy:            137.3432265

- temperature:       350.0000000
  free_energy:       -43.8512166
  entropy:           527.5951114
  heat_capacity:     347.1176236
  energy:            140.8070724

- temperature:       360.0000000
  free_energy:       -49.1763561
  entropy:           537.3932388
  heat_capacity:     348.4923260
  energy:            144.2852099

- temperature:       370.0000000
  free_energy:       -54.5983074
  entropy:           546.9591679
  heat_capacity:     349.7667213
  energy:            147.7765847

- temperature:       380.0000000
  free_energy:       -60.1147983
  entropy:           556.3027352
  heat_capacity:     350.9501058
  energy:            151.2802411

- temperature:       390.0000000
  free_energy:       -65.7236520
  entropy:           565.4332387
  heat_capacity:     352.0507511
  energy:            154.7953111

- temperature:       400.0000000
  free_energy:       -71.4227822
  entropy:           574.3594679
  heat_capacity:     353.0760321
  energy:            158.3210050

- temperature:       410.0000000
  free_energy:       -77.2101882
  entropy:           583.0897335
  heat_capacity:     354.0325389
  energy:            161.8566026

- temperature:       420.0000000
  free_energy:       -83.0839499
  entropy:           591.6318956
  heat_capacity:     354.9261717
  energy:            165.4014462

- temperature:       430.0000000
  free_energy:       -89.0422239
  entropy:           599.9933908
  heat_capacity:     355.7622241
  energy:            168.9549341

- temperature:       440.0000000
  free_energy:       -95.0832390
  entropy:           608.1812584
  heat_capacity:     356.5454545
  energy:            172.5165147

- temperature:       450.0000000
  free_energy:      -101.2052926
  entropy:           616.2021646
  heat_capacity:     357.2801487
  energy:            176.0856815

- temperature:       460.0000000
  free_energy:      -107.4067469
  entropy:           624.0624253
  heat_capacity:     357.9701738
  energy:            179.6619688

- temperature:       470.0000000
  free_energy:      -113.6860256
  entropy:           631.7680284
  heat_capacity:     358.6190254
  energy:            183.2449477

- temperature:       480.0000000
  free_energy:      -120.0416109
  entropy:           639.3246532
  heat_capacity:     359.2298693
  energy:            186.8342227

- temperature:       490.0000000
  free_energy:      -126.4720401
  entropy:           646.7376900
  heat_capacity:     359.8055768
  energy:            190.4294280

- temperature:       500.0000000
  free_energy:      -132.9759031
  entropy:           654.0122578
  heat_capacity:     360.3487573
  energy:            194.0302258

- temperature:       510.0000000
  free_energy:      -139.5518399
  entropy:           661.1532208
  heat_capacity:     360.8617853
  energy:            197.6363027

- temperature:       520.0000000
  free_energy:      -146.1985376
  entropy:           668.1652036
  heat_capacity:     361.3468256
  energy:            201.2473682

- temperature:       530.0000000
  free_energy:      -152.9147287
  entropy:           675.0526061
  heat_capacity:     361.8058542
  energy:            204.8631525

- temperature:       540.0000000
  free_energy:      -159.6991885
  entropy:           681.8196169
  heat_capacity:     362.2406779
  energy:            208.4834046

- temperature:       550.0000000
  free_energy:      -166.5507331
  entropy:           688.4702255
  heat_capacity:     362.6529513
  energy:            212.1078909

- temperature:       560.0000000
  free_energy:      -173.4682177
  entropy:           695.0082344
  heat_capacity:     363.0441912
  energy:            215.7363936

- temperature:       570.0000000
  free_energy:      -180.4505345
  entropy:           701.4372699
  heat_capacity:     363.4157904
  energy:            219.3687093

- temperature:       580.0000000
  free_energy:      -187.4966114
  entropy:           707.7607923
  heat_capacity:     363.7690295
  energy:            223.0046482

- temperature:       590.0000000
  free_energy:      -194.6054097
  entropy:           713.9821056
  heat_capacity:     364.1050875
  energy:            226.6440326

- temperature:       600.0000000
  free_energy:      -201.7759233
  entropy:           720.1043660
  heat_capacity:     364.4250509
  energy:            230.2866963

- temperature:       610.0000000
  free_energy:      -209.0071769
  entropy:           726.1305906
  heat_capacity:     364.7299226
  energy:            233.9324833

- temperature:       620.0000000
  free_energy:      -216.2982246
  entropy:           732.0636648
  heat_capacity:     365.0206292
  energy:            237.5812475

- temperature:       630.0000000
  free_energy:      -223.6481489
  entropy:           737.9063500
  heat_capacity:     365.2980279
  energy:            241.2328516

- temperature:       640.0000000
  free_energy:      -231.0560592
  entropy:           743.6612900
  heat_capacity:     365.5629124
  energy:            244.8871664

- temperature:       650.0000000
  free_energy:      -238.5210907
  entropy:           749.3310173
  heat_capacity:     365.8160188
  energy:            248.5440706

- temperature:       660.0000000
  free_energy:      -246.0424036
  entropy:           754.9179597
  heat_capacity:     366.0580300
  energy:            252.2034498

- temperature:       670.0000000
  free_energy:      -253.6191817
  entropy:           760.4244448
  heat_capacity:     366.2895806
  energy:            255.8651963

- temperature:       680.0000000
  free_energy:      -261.2506317
  entropy:           765.8527063
  heat_capacity:     366.5112610
  energy:            259.5292085

- temperature:       690.0000000
  free_energy:      -268.9359822
  entropy:           771.2048880
  heat_capacity:     366.7236204
  energy:            263.1953905

- temperature:       700.0000000
  free_energy:      -276.6744828
  entropy:           776.4830490
  heat_capacity:     366.9271709
  energy:            266.8636516

- temperature:       710.0000000
  free_energy:      -284.4654031
  entropy:           781.6891679
  heat_capacity:     367.1223901
  energy:            270.5339061

- temperature:       720.0000000
  free_energy:      -292.3080323
  entropy:           786.8251464
  heat_capacity:     367.3097236
  energy:            274.2060731

- temperature:       730.0000000
  free_energy:      -300.2016783
  entropy:           791.8928137
  heat_capacity:     367.4895881
  energy:            277.8800757

- temperature:       740.0000000
  free_energy:      -308.1456668
  entropy:           796.8939298
  heat_capacity:     367.6623731
  energy:            281.5558412

- temperature:       750.0000000
  free_energy:      -316.1393407
  entropy:           801.8301887
  heat_capacity:     367.8284434
  energy:            285.2333008

- temperature:       760.0000000
  free_energy:      -324.1820598
  entropy:           806.7032219
  heat_capacity:     367.9881405
  energy:            288.9123889

- temperature:       770.0000000
  free_energy:      -332.2731997
  entropy:           811.5146014
  heat_capacity:     368.1417846
  energy:            292.5930434

- temperature:       780.0000000
  free_energy:      -340.4121514
  entropy:           816.2658420
  heat_capacity:     368.2896763
  energy:            296.2752054

- temperature:       790.0000000
  free_energy:      -348.5983209
  entropy:           820.9584046
  heat_capacity:     368.4320978
  energy:            299.9588187

- temperature:       800.0000000
  free_energy:      -356.8311286
  entropy:           825.5936982
  heat_capacity:     368.5693143
  energy:            303.6438300

- temperature:       810.0000000
  free_energy:      -365.1100085
  entropy:           830.1730827
  heat_capacity:     368.7015751
  energy:            307.3301885

- temperature:       820.0000000
  free_energy:      -373.4344083
  entropy:           834.6978708
  heat_capacity:     368.8291149
  energy:            311.0178458

- temperature:       830.0000000
  free_energy:      -381.8037882
  entropy:           839.1693301
  heat_capacity:     368.9521547
  energy:            314.7067558

- temperature:       840.0000000
  free_energy:      -390.2176212
  entropy:           843.5886854
  heat_capacity:     369.0709029
  energy:            318.3968746

- temperature:       850.0000000
  free_energy:      -398.6753922
  entropy:           847.9571204
  heat_capacity:     369.1855559
  energy:            322.0881602

- temperature:       860.0000000
  free_energy:      -407.1765977
  entropy:           852.2757794
  heat_capacity:     369.2962990
  energy:            325.7805726

- temperature:       870.0000000
  free_energy:      -415.7207455
  entropy:           856.5457692
  heat_capacity:     369.4033073
  energy:            329.4740737

- temperature:       880.0000000
  free_energy:      -424.3073544
  entropy:           860.7681606
  heat_capacity:     369.5067463
  energy:            333.1686269

- temperature:       890.0000000
  free_energy:      -432.9359535
  entropy:           864.9439897
  heat_capacity:     369.6067722
  energy:            336.8641973

- temperature:       900.0000000
  free_energy:      -441.6060823
  entropy:           869.0742598
  heat_capacity:     369.7035330
  energy:            340.5607514

- temperature:       910.0000000
  free_energy:      -450.3172901
  entropy:           873.1599424
  heat_capacity:     369.7971688
  energy:            344.2582575

- temperature:       920.0000000
  free_energy:      -459.0691357
  entropy:           877.2019789
  heat_capacity:     369.8878123
  energy:            347.9566849

- temperature:       930.0000000
  free_energy:      -467.8611872
  entropy:           881.2012811
  heat_capacity:     369.9755890
  energy:            351.6560042

- temperature:       940.0000000
  free_energy:      -476.6930218
  entropy:           885.1587333
  heat_capacity:     370.0606183
  energy:            355.3561875

- temperature:       950.0000000
  free_energy:      -485.5642253
  entropy:           889.0751927
  heat_capacity:     370.1430131
  energy:            359.0572078

- temperature:       960.0000000
  free_energy:      -494.4743918
  entropy:           892.9514908
  heat_capacity:     370.2228809
  energy:            362.7590393

- temperature:       970.0000000
  free_energy:      -503.4231239
  entropy:           896.7884342
  heat_capacity:     370.3003236
  energy:            366.4616573

- temperature:       980.0000000
  free_energy:      -512.4100319
  entropy:           900.5868061
  heat_capacity:     370.3754381
  energy:            370.1650380

- temperature:       990.0000000
  free_energy:      -521.4347340
  entropy:           904.3473663
  heat_capacity:     370.4483165
  energy:            373.8691586

- temperature:      1000.0000000
  free_energy:      -530.4968557
  entropy:           908.0708529
  heat_capacity:     370.5190464
  energy:            377.5739972
