phonopy:
  version: "2.37.1"
  frequency_unit_conversion_factor: 15.633302
  symmetry_tolerance: 1.00000e-05

space_group:
  type: "C2/m"
  number: 12
  Hall_symbol: "-C 2y"

primitive_matrix:
- [ -1.000000000000000,  0.000000000000000,  0.000000000000000 ]
- [  0.000000000000000, -1.000000000000000, -0.000000000000000 ]
- [  0.000000000000000,  0.000000000000000,  1.000000000000000 ]

supercell_matrix:
- [   2,   0,   0 ]
- [   0,   2,   0 ]
- [   0,   0,   2 ]

primitive_cell:
  lattice:
  - [    -6.416527757211040,     0.000000000000000,     0.000000000000000 ] # a
  - [    -5.540885610528439,    -3.235801956785024,     0.000000000000000 ] # b
  - [     2.018719149765633,     0.546287346062683,     6.917567039525745 ] # c
  points:
  - symbol: Li # 1
    coordinates: [  0.333480838586400,  0.333480858854901,  0.659881397383715 ]
    mass: 6.940000
  - symbol: Li # 2
    coordinates: [  0.610963581273401,  0.610963602256578,  0.729007479950246 ]
    mass: 6.940000
  - symbol: Sn # 3
    coordinates: [  0.994632886598700,  0.994632912862652,  0.975368864904051 ]
    mass: 118.710000
  - symbol: Sn # 4
    coordinates: [  0.669582637952275,  0.669582622618985,  0.347844954905779 ]
    mass: 118.710000
  - symbol: Sn # 5
    coordinates: [  0.949811563315059,  0.949811498657941,  0.413519992958442 ]
    mass: 118.710000
  - symbol: Sn # 6
    coordinates: [  0.274861826807233,  0.274861837513907,  0.041043977881481 ]
    mass: 118.710000
  reciprocal_lattice: # without 2pi
  - [    -0.155847529666832,     0.266868413487620,     0.024405337059309 ] # a*
  - [    -0.000000000000000,    -0.309042399181180,     0.024405394426232 ] # b*
  - [    -0.000000000000000,    -0.000000000000000,     0.144559495308998 ] # c*

unit_cell:
  lattice:
  - [     6.416527757211040,     0.000000000000000,     0.000000000000000 ] # a
  - [     5.540885610528439,     3.235801956785024,     0.000000000000000 ] # b
  - [     2.018719149765633,     0.546287346062683,     6.917567039525745 ] # c
  points:
  - symbol: Li # 1
    coordinates: [  0.666519161413600,  0.666519141145099,  0.659881397383715 ]
    mass: 6.940000
    reduced_to: 1
  - symbol: Li # 2
    coordinates: [  0.389036418726599,  0.389036397743422,  0.729007479950246 ]
    mass: 6.940000
    reduced_to: 2
  - symbol: Sn # 3
    coordinates: [  0.005367113401300,  0.005367087137348,  0.975368864904051 ]
    mass: 118.710000
    reduced_to: 3
  - symbol: Sn # 4
    coordinates: [  0.330417362047725,  0.330417377381015,  0.347844954905779 ]
    mass: 118.710000
    reduced_to: 4
  - symbol: Sn # 5
    coordinates: [  0.050188436684941,  0.050188501342059,  0.413519992958442 ]
    mass: 118.710000
    reduced_to: 5
  - symbol: Sn # 6
    coordinates: [  0.725138173192767,  0.725138162486093,  0.041043977881481 ]
    mass: 118.710000
    reduced_to: 6

supercell:
  lattice:
  - [    12.833055514422080,     0.000000000000000,     0.000000000000000 ] # a
  - [    11.081771221056878,     6.471603913570048,     0.000000000000000 ] # b
  - [     4.037438299531266,     1.092574692125367,    13.835134079051491 ] # c
  points:
  - symbol: Li # 1
    coordinates: [  0.333259580706800,  0.333259570572549,  0.329940698691858 ]
    mass: 6.940000
    reduced_to: 1
  - symbol: Li # 2
    coordinates: [  0.833259580706800,  0.333259570572549,  0.329940698691858 ]
    mass: 6.940000
    reduced_to: 1
  - symbol: Li # 3
    coordinates: [  0.333259580706800,  0.833259570572549,  0.329940698691858 ]
    mass: 6.940000
    reduced_to: 1
  - symbol: Li # 4
    coordinates: [  0.833259580706800,  0.833259570572549,  0.329940698691858 ]
    mass: 6.940000
    reduced_to: 1
  - symbol: Li # 5
    coordinates: [  0.333259580706800,  0.333259570572549,  0.829940698691858 ]
    mass: 6.940000
    reduced_to: 1
  - symbol: Li # 6
    coordinates: [  0.833259580706800,  0.333259570572549,  0.829940698691858 ]
    mass: 6.940000
    reduced_to: 1
  - symbol: Li # 7
    coordinates: [  0.333259580706800,  0.833259570572549,  0.829940698691858 ]
    mass: 6.940000
    reduced_to: 1
  - symbol: Li # 8
    coordinates: [  0.833259580706800,  0.833259570572549,  0.829940698691858 ]
    mass: 6.940000
    reduced_to: 1
  - symbol: Li # 9
    coordinates: [  0.194518209363299,  0.194518198871711,  0.364503739975123 ]
    mass: 6.940000
    reduced_to: 9
  - symbol: Li # 10
    coordinates: [  0.694518209363299,  0.194518198871711,  0.364503739975123 ]
    mass: 6.940000
    reduced_to: 9
  - symbol: Li # 11
    coordinates: [  0.194518209363299,  0.694518198871711,  0.364503739975123 ]
    mass: 6.940000
    reduced_to: 9
  - symbol: Li # 12
    coordinates: [  0.694518209363299,  0.694518198871711,  0.364503739975123 ]
    mass: 6.940000
    reduced_to: 9
  - symbol: Li # 13
    coordinates: [  0.194518209363299,  0.194518198871711,  0.864503739975123 ]
    mass: 6.940000
    reduced_to: 9
  - symbol: Li # 14
    coordinates: [  0.694518209363299,  0.194518198871711,  0.864503739975123 ]
    mass: 6.940000
    reduced_to: 9
  - symbol: Li # 15
    coordinates: [  0.194518209363299,  0.694518198871711,  0.864503739975123 ]
    mass: 6.940000
    reduced_to: 9
  - symbol: Li # 16
    coordinates: [  0.694518209363299,  0.694518198871711,  0.864503739975123 ]
    mass: 6.940000
    reduced_to: 9
  - symbol: Sn # 17
    coordinates: [  0.002683556700650,  0.002683543568674,  0.487684432452025 ]
    mass: 118.710000
    reduced_to: 17
  - symbol: Sn # 18
    coordinates: [  0.502683556700650,  0.002683543568674,  0.487684432452025 ]
    mass: 118.710000
    reduced_to: 17
  - symbol: Sn # 19
    coordinates: [  0.002683556700650,  0.502683543568674,  0.487684432452025 ]
    mass: 118.710000
    reduced_to: 17
  - symbol: Sn # 20
    coordinates: [  0.502683556700650,  0.502683543568674,  0.487684432452025 ]
    mass: 118.710000
    reduced_to: 17
  - symbol: Sn # 21
    coordinates: [  0.002683556700650,  0.002683543568674,  0.987684432452026 ]
    mass: 118.710000
    reduced_to: 17
  - symbol: Sn # 22
    coordinates: [  0.502683556700650,  0.002683543568674,  0.987684432452026 ]
    mass: 118.710000
    reduced_to: 17
  - symbol: Sn # 23
    coordinates: [  0.002683556700650,  0.502683543568674,  0.987684432452026 ]
    mass: 118.710000
    reduced_to: 17
  - symbol: Sn # 24
    coordinates: [  0.502683556700650,  0.502683543568674,  0.987684432452026 ]
    mass: 118.710000
    reduced_to: 17
  - symbol: Sn # 25
    coordinates: [  0.165208681023863,  0.165208688690507,  0.173922477452890 ]
    mass: 118.710000
    reduced_to: 25
  - symbol: Sn # 26
    coordinates: [  0.665208681023863,  0.165208688690507,  0.173922477452890 ]
    mass: 118.710000
    reduced_to: 25
  - symbol: Sn # 27
    coordinates: [  0.165208681023863,  0.665208688690507,  0.173922477452890 ]
    mass: 118.710000
    reduced_to: 25
  - symbol: Sn # 28
    coordinates: [  0.665208681023863,  0.665208688690507,  0.173922477452890 ]
    mass: 118.710000
    reduced_to: 25
  - symbol: Sn # 29
    coordinates: [  0.165208681023863,  0.165208688690507,  0.673922477452890 ]
    mass: 118.710000
    reduced_to: 25
  - symbol: Sn # 30
    coordinates: [  0.665208681023863,  0.165208688690507,  0.673922477452890 ]
    mass: 118.710000
    reduced_to: 25
  - symbol: Sn # 31
    coordinates: [  0.165208681023863,  0.665208688690507,  0.673922477452890 ]
    mass: 118.710000
    reduced_to: 25
  - symbol: Sn # 32
    coordinates: [  0.665208681023863,  0.665208688690507,  0.673922477452890 ]
    mass: 118.710000
    reduced_to: 25
  - symbol: Sn # 33
    coordinates: [  0.025094218342470,  0.025094250671030,  0.206759996479221 ]
    mass: 118.710000
    reduced_to: 33
  - symbol: Sn # 34
    coordinates: [  0.525094218342470,  0.025094250671030,  0.206759996479221 ]
    mass: 118.710000
    reduced_to: 33
  - symbol: Sn # 35
    coordinates: [  0.025094218342470,  0.525094250671030,  0.206759996479221 ]
    mass: 118.710000
    reduced_to: 33
  - symbol: Sn # 36
    coordinates: [  0.525094218342470,  0.525094250671030,  0.206759996479221 ]
    mass: 118.710000
    reduced_to: 33
  - symbol: Sn # 37
    coordinates: [  0.025094218342470,  0.025094250671030,  0.706759996479221 ]
    mass: 118.710000
    reduced_to: 33
  - symbol: Sn # 38
    coordinates: [  0.525094218342470,  0.025094250671030,  0.706759996479221 ]
    mass: 118.710000
    reduced_to: 33
  - symbol: Sn # 39
    coordinates: [  0.025094218342470,  0.525094250671030,  0.706759996479221 ]
    mass: 118.710000
    reduced_to: 33
  - symbol: Sn # 40
    coordinates: [  0.525094218342470,  0.525094250671030,  0.706759996479221 ]
    mass: 118.710000
    reduced_to: 33
  - symbol: Sn # 41
    coordinates: [  0.362569086596383,  0.362569081243047,  0.020521988940741 ]
    mass: 118.710000
    reduced_to: 41
  - symbol: Sn # 42
    coordinates: [  0.862569086596384,  0.362569081243047,  0.020521988940741 ]
    mass: 118.710000
    reduced_to: 41
  - symbol: Sn # 43
    coordinates: [  0.362569086596383,  0.862569081243047,  0.020521988940741 ]
    mass: 118.710000
    reduced_to: 41
  - symbol: Sn # 44
    coordinates: [  0.862569086596384,  0.862569081243047,  0.020521988940741 ]
    mass: 118.710000
    reduced_to: 41
  - symbol: Sn # 45
    coordinates: [  0.362569086596383,  0.362569081243047,  0.520521988940741 ]
    mass: 118.710000
    reduced_to: 41
  - symbol: Sn # 46
    coordinates: [  0.862569086596384,  0.362569081243047,  0.520521988940741 ]
    mass: 118.710000
    reduced_to: 41
  - symbol: Sn # 47
    coordinates: [  0.362569086596383,  0.862569081243047,  0.520521988940741 ]
    mass: 118.710000
    reduced_to: 41
  - symbol: Sn # 48
    coordinates: [  0.862569086596384,  0.862569081243047,  0.520521988940741 ]
    mass: 118.710000
    reduced_to: 41

displacements:
- atom:    1
  displacement:
    [   0.0100000000000000,  0.0000000000000000,  0.0000000000000000 ]
  forces:
  - [  -0.0185042861849070, -0.0007580099627376,  0.0170853044837713 ]
  - [  -0.0031578242778778, -0.0008034845814109,  0.0156295578926802 ]
  - [  -0.0031039193272591, -0.0008936394006014,  0.0156263094395399 ]
  - [  -0.0033493787050247, -0.0018526231870055,  0.0158989839255810 ]
  - [  -0.0031013004481792, -0.0008433256298304,  0.0156169412657619 ]
  - [  -0.0031488612294197, -0.0008117249235511,  0.0156383253633976 ]
  - [  -0.0031069405376911, -0.0008801398798823,  0.0156075917184353 ]
  - [  -0.0031193159520626, -0.0008396375924349,  0.0155648905783892 ]
  - [   0.0045718960464001,  0.0013388972729445, -0.0160202234983444 ]
  - [   0.0046015083789825,  0.0005673784762621, -0.0154488543048501 ]
  - [   0.0040586367249489,  0.0014890432357788, -0.0156254190951586 ]
  - [   0.0035792365670204,  0.0007888628169894, -0.0155989043414593 ]
  - [   0.0031390041112900,  0.0008480800315738, -0.0156165305525064 ]
  - [   0.0031162612140179,  0.0008710939437151, -0.0156285874545574 ]
  - [   0.0031445063650608,  0.0008232630789280, -0.0156071027740836 ]
  - [   0.0030890330672264,  0.0008382890373468, -0.0155857792124152 ]
  - [  -0.0351119562983513, -0.0094806887209415,  0.0158109888434410 ]
  - [  -0.0346597395837307, -0.0080951526761055,  0.0146262943744659 ]
  - [  -0.0328841656446457, -0.0113499183207750,  0.0132152587175369 ]
  - [  -0.0347660854458809, -0.0094024706631899,  0.0160245001316071 ]
  - [  -0.0350557565689087, -0.0094790179282427,  0.0160731822252274 ]
  - [  -0.0350438579916954, -0.0095385275781155,  0.0158368423581123 ]
  - [  -0.0351248830556870, -0.0094371121376753,  0.0157917663455009 ]
  - [  -0.0350184813141823, -0.0095211500301957,  0.0160039439797401 ]
  - [  -0.0081865526735783, -0.0022343108430505,  0.0027777776122093 ]
  - [  -0.0059293583035469, -0.0038676280528307, -0.0002140477299690 ]
  - [  -0.0078321173787117, -0.0008784970268607,  0.0011317282915115 ]
  - [  -0.0081242918968201, -0.0022243512794375,  0.0026172846555710 ]
  - [  -0.0082165487110615, -0.0022460743784904,  0.0027185380458832 ]
  - [  -0.0083251036703587, -0.0021790591999888,  0.0026095137000084 ]
  - [  -0.0082578770816326, -0.0022861938923597,  0.0026244521141052 ]
  - [  -0.0081169940531254, -0.0022180238738656,  0.0025074258446693 ]
  - [   0.0349732935428619,  0.0094612482935190, -0.0160260349512100 ]
  - [   0.0361275188624859,  0.0118623860180378, -0.0143168270587921 ]
  - [   0.0384732820093632,  0.0074451714754105, -0.0134052708745003 ]
  - [   0.0350573211908340,  0.0095055270940065, -0.0158008337020874 ]
  - [   0.0349643789231777,  0.0094679398462176, -0.0159280672669411 ]
  - [   0.0350412838160992,  0.0095202038064599, -0.0159502699971199 ]
  - [   0.0350556410849094,  0.0094265677034855, -0.0160171836614609 ]
  - [   0.0349940061569214,  0.0094638513401151, -0.0159884691238403 ]
  - [   0.0080205537378788,  0.0022520897909999, -0.0024041905999184 ]
  - [   0.0082215033471584,  0.0022750608623028, -0.0026438087224960 ]
  - [   0.0082568302750587,  0.0021821744740009, -0.0026456415653229 ]
  - [   0.0084032118320465,  0.0022902432829142, -0.0028704777359962 ]
  - [   0.0097004808485508,  0.0027163717895746,  0.0004903525114059 ]
  - [   0.0081617496907711,  0.0022497978061438, -0.0026873499155045 ]
  - [   0.0081853494048119,  0.0021775718778372, -0.0027075782418251 ]
  - [   0.0083090811967850,  0.0022596288472414, -0.0027903467416763 ]
- atom:    1
  displacement:
    [  -0.0100000000000000,  0.0000000000000000,  0.0000000000000000 ]
  forces:
  - [   0.0123790018260479, -0.0009514540433884,  0.0142139000818133 ]
  - [  -0.0030695088207722, -0.0008843280375004,  0.0156250223517418 ]
  - [  -0.0031240694224834, -0.0007889298722148,  0.0156285148113966 ]
  - [  -0.0028816163539886,  0.0001604128628969,  0.0153499748557806 ]
  - [  -0.0031295381486416, -0.0008422369137406,  0.0156378149986267 ]
  - [  -0.0030840188264847, -0.0008734315633774,  0.0156150003895164 ]
  - [  -0.0031222216784954, -0.0008049020543694,  0.0156452134251595 ]
  - [  -0.0031133033335209, -0.0008467426523566,  0.0156907178461552 ]
  - [   0.0016442686319351,  0.0003408780321479, -0.0152306053787470 ]
  - [   0.0016594603657722,  0.0011083288118243, -0.0157989412546158 ]
  - [   0.0021800175309181,  0.0002095233649015, -0.0156231094151735 ]
  - [   0.0026190504431725,  0.0009061023592949, -0.0156432073563337 ]
  - [   0.0030900873243809,  0.0008387947455049, -0.0156386364251375 ]
  - [   0.0031132809817791,  0.0008138809353113, -0.0156242549419403 ]
  - [   0.0030847042798996,  0.0008634198457003, -0.0156460981816053 ]
  - [   0.0031423121690750,  0.0008488232269883, -0.0156694501638412 ]
  - [  -0.0348578244447708, -0.0094518754631281,  0.0161340907216072 ]
  - [  -0.0353033766150475, -0.0108347106724977,  0.0173163935542107 ]
  - [  -0.0371113270521164, -0.0075566470623016,  0.0187892168760300 ]
  - [  -0.0351934581995010, -0.0095286816358566,  0.0159283503890038 ]
  - [  -0.0349182076752186, -0.0094529939815402,  0.0158891677856445 ]
  - [  -0.0349220223724842, -0.0093952640891075,  0.0161161124706268 ]
  - [  -0.0348401665687561, -0.0094959056004882,  0.0161627233028412 ]
  - [  -0.0349418520927429, -0.0094135021790862,  0.0159360244870186 ]
  - [  -0.0082917921245098, -0.0022267857566476,  0.0025771483778954 ]
  - [  -0.0105115324258804, -0.0006324835121632,  0.0055181235074997 ]
  - [  -0.0086554065346718, -0.0035755559802055,  0.0042304843664169 ]
  - [  -0.0083261020481586, -0.0022272951900959,  0.0027519017457962 ]
  - [  -0.0082535147666931, -0.0022105826064944,  0.0026474148035049 ]
  - [  -0.0081447996199131, -0.0022731237113476,  0.0027472823858261 ]
  - [  -0.0082101114094257, -0.0021750498563051,  0.0027310699224472 ]
  - [  -0.0083474032580853, -0.0022401129826903,  0.0028477683663368 ]
  - [   0.0350018665194511,  0.0094752414152026, -0.0159305334091187 ]
  - [   0.0338332653045654,  0.0070466245524585, -0.0176488459110260 ]
  - [   0.0314069241285324,  0.0115392953157425, -0.0186270996928215 ]
  - [   0.0349086299538612,  0.0094289518892765, -0.0161434262990952 ]
  - [   0.0350062251091003,  0.0094669982790947, -0.0160209313035011 ]
  - [   0.0349281579256058,  0.0094143319875002, -0.0159961432218552 ]
  - [   0.0349117144942284,  0.0095070619136095, -0.0159261226654053 ]
  - [   0.0349718220531940,  0.0094700055196881, -0.0159538164734840 ]
  - [   0.0084437951445580,  0.0022040763869882, -0.0029586777091026 ]
  - [   0.0082418695092201,  0.0021774843335152, -0.0027154833078384 ]
  - [   0.0082123465836048,  0.0022732010111213, -0.0027203038334846 ]
  - [   0.0080664753913879,  0.0021658791229129, -0.0024977102875710 ]
  - [   0.0067685171961784,  0.0017462959513068, -0.0058169513940811 ]
  - [   0.0082976706326008,  0.0022084247320890, -0.0026724934577942 ]
  - [   0.0082798562943935,  0.0022730659693480, -0.0026559978723526 ]
  - [   0.0081618502736092,  0.0021954802796245, -0.0025706216692924 ]
- atom:    1
  displacement:
    [   0.0027933856416207,  0.0007559205196363,  0.0095721251989921 ]
  forces:
  - [  -0.0060447417199612, -0.0016356455162168, -0.0051060449331999 ]
  - [  -0.0031219944357872, -0.0008357092738152,  0.0156270060688257 ]
  - [  -0.0031176880002022, -0.0008530346676707,  0.0156271569430828 ]
  - [  -0.0029959678649902, -0.0008111037313938,  0.0154149979352951 ]
  - [  -0.0031226612627506, -0.0008446639403701,  0.0156067498028278 ]
  - [  -0.0031119510531425, -0.0008873147889972,  0.0156116439029574 ]
  - [  -0.0031333267688751, -0.0008015558123589,  0.0156114343553782 ]
  - [  -0.0031772218644619, -0.0008597299456596,  0.0155789535492659 ]
  - [   0.0031939297914505,  0.0008636396378279, -0.0158026330173016 ]
  - [   0.0036728233098984,  0.0005021467804909, -0.0157040245831013 ]
  - [   0.0034242495894432,  0.0014185821637511, -0.0157029405236244 ]
  - [   0.0032699480652809,  0.0008853971958160, -0.0151327205821872 ]
  - [   0.0031326115131378,  0.0008483314886689, -0.0157395154237747 ]
  - [   0.0031158328056335,  0.0008913315832615, -0.0156562961637974 ]
  - [   0.0031402744352818,  0.0008016340434551, -0.0156568922102451 ]
  - [   0.0031481608748436,  0.0008523249998689, -0.0156476423144341 ]
  - [  -0.0350035391747952, -0.0094716539606452,  0.0159435272216797 ]
  - [  -0.0363611914217472, -0.0128469765186310,  0.0186166465282440 ]
  - [  -0.0378782674670219, -0.0072433077730238,  0.0186180695891380 ]
  - [  -0.0349020175635815, -0.0094450619071722,  0.0159245803952217 ]
  - [  -0.0348099321126938, -0.0094193909317255,  0.0159965977072716 ]
  - [  -0.0351291187107563, -0.0095547605305910,  0.0157145410776138 ]
  - [  -0.0351534113287926, -0.0094648282974958,  0.0157138407230377 ]
  - [  -0.0348736345767975, -0.0094390120357275,  0.0157719627022743 ]
  - [  -0.0083531588315964, -0.0022608032450080,  0.0026540160179138 ]
  - [  -0.0108181908726692, -0.0007359795272350,  0.0057824924588203 ]
  - [  -0.0097167938947678, -0.0048203072510660,  0.0057833567261696 ]
  - [  -0.0079419910907745, -0.0021479474380612,  0.0026693791151047 ]
  - [  -0.0080862976610661, -0.0021876227110624,  0.0024682581424713 ]
  - [  -0.0084169320762157, -0.0022384002804756,  0.0025534555315971 ]
  - [  -0.0083975754678249, -0.0023116134107113,  0.0025530830025673 ]
  - [  -0.0081295333802700, -0.0022005606442690,  0.0027266144752502 ]
  - [   0.0350438728928566,  0.0094847427681088, -0.0160870701074600 ]
  - [   0.0371218696236610,  0.0132101941853762, -0.0134817808866501 ]
  - [   0.0387201160192490,  0.0073132831603289, -0.0134828686714172 ]
  - [   0.0350259058177471,  0.0094777718186378, -0.0159744471311569 ]
  - [   0.0350420549511909,  0.0094830635935068, -0.0159985050559044 ]
  - [   0.0350722894072533,  0.0096305003389716, -0.0161663666367531 ]
  - [   0.0351411029696465,  0.0093698538839817, -0.0161650478839874 ]
  - [   0.0349823907017708,  0.0094666294753551, -0.0159641876816750 ]
  - [   0.0080417431890965,  0.0021769404411316, -0.0025028213858604 ]
  - [   0.0082318112254143,  0.0022104196250439, -0.0026710778474808 ]
  - [   0.0082264989614487,  0.0022416319698095, -0.0026740804314613 ]
  - [   0.0083088353276253,  0.0022479984909296, -0.0029734894633293 ]
  - [   0.0120179243385792,  0.0032523330301046,  0.0040408000349998 ]
  - [   0.0083413384854794,  0.0021893661469221, -0.0027172937989235 ]
  - [   0.0083079524338245,  0.0023151934146881, -0.0027190670371056 ]
  - [   0.0080736204981804,  0.0021836832165718, -0.0028824359178543 ]
- atom:    1
  displacement:
    [  -0.0027933856416207, -0.0007559205196363, -0.0095721251989921 ]
  forces:
  - [  -0.0001806467771530, -0.0000483784824610,  0.0361691974103451 ]
  - [  -0.0031078979372978, -0.0008513657376170,  0.0156260468065739 ]
  - [  -0.0031135156750679, -0.0008323099464178,  0.0156261473894119 ]
  - [  -0.0032389424741268, -0.0008770059794188,  0.0158352795988321 ]
  - [  -0.0031104087829590, -0.0008413447067142,  0.0156455524265766 ]
  - [  -0.0031208023428917, -0.0007979646325111,  0.0156416799873114 ]
  - [  -0.0030957907438278, -0.0008833315223455,  0.0156415328383446 ]
  - [  -0.0030559971928596, -0.0008268402889371,  0.0156767256557941 ]
  - [   0.0030564963817596,  0.0008265553042293, -0.0154570993036032 ]
  - [   0.0025572404265404,  0.0011852597817779, -0.0155483577400446 ]
  - [   0.0028053261339664,  0.0002660872414708, -0.0155475223436952 ]
  - [   0.0029678791761398,  0.0008035907521844, -0.0161145403981209 ]
  - [   0.0030970983207226,  0.0008387379348278, -0.0155160874128342 ]
  - [   0.0031149685382843,  0.0007920889183879, -0.0155949816107750 ]
  - [   0.0030893906950951,  0.0008870279416442, -0.0155955143272877 ]
  - [   0.0030836425721645,  0.0008348375558853, -0.0156087921932340 ]
  - [  -0.0349644348025322, -0.0094611328095198,  0.0160035416483879 ]
  - [  -0.0336467325687408, -0.0061486558988690,  0.0133658200502396 ]
  - [  -0.0321562960743904, -0.0116585306823254,  0.0133664458990097 ]
  - [  -0.0350628122687340, -0.0094883916899562,  0.0160208046436310 ]
  - [  -0.0351684466004372, -0.0095163676887751,  0.0159632489085197 ]
  - [  -0.0348349399864674, -0.0093814041465521,  0.0162392854690552 ]
  - [  -0.0348121076822281, -0.0094659915193915,  0.0162385553121567 ]
  - [  -0.0350823216140270, -0.0094955107197165,  0.0161695703864098 ]
  - [  -0.0081187896430492, -0.0021974872797728,  0.0027068853378296 ]
  - [  -0.0055891498923302, -0.0037508718669415, -0.0004420578479767 ]
  - [  -0.0067216567695141,  0.0004199678078294, -0.0004411935806274 ]
  - [  -0.0085221566259861, -0.0023050131276250,  0.0026922374963760 ]
  - [  -0.0083815641701221, -0.0022675665095448,  0.0028996169567108 ]
  - [  -0.0080612041056156, -0.0022109830752015,  0.0028008967638016 ]
  - [  -0.0080765448510647, -0.0021562380716205,  0.0028005614876747 ]
  - [  -0.0083275921642780, -0.0022541955113411,  0.0026284083724022 ]
  - [   0.0349239856004715,  0.0094521958380938, -0.0158626064658165 ]
  - [   0.0327826626598835,  0.0056260293349624, -0.0185126289725304 ]
  - [   0.0311491657048464,  0.0116743892431259, -0.0185129866003990 ]
  - [   0.0349416583776474,  0.0094549618661404, -0.0159788727760315 ]
  - [   0.0349296852946281,  0.0094526633620262, -0.0159502774477005 ]
  - [   0.0348976440727711,  0.0093013830482960, -0.0157679393887520 ]
  - [   0.0348242819309235,  0.0095660360530019, -0.0157666504383087 ]
  - [   0.0349845997989178,  0.0094672758132219, -0.0159771218895912 ]
  - [   0.0084248669445515,  0.0022806115448475, -0.0028422772884369 ]
  - [   0.0082307234406471,  0.0022445153445005, -0.0026884227991104 ]
  - [   0.0082428641617298,  0.0022117318585515, -0.0026918351650238 ]
  - [   0.0081555210053921,  0.0022065034136176, -0.0024064257740974 ]
  - [   0.0046053603291512,  0.0012464663013816, -0.0091668963432312 ]
  - [   0.0081242695450783,  0.0022639157250524, -0.0026420652866364 ]
  - [   0.0081583820283413,  0.0021414505317807, -0.0026438757777214 ]
  - [   0.0084030143916607,  0.0022726003080606, -0.0024809911847115 ]
- atom:   17
  displacement:
    [   0.0100000000000000,  0.0000000000000000,  0.0000000000000000 ]
  forces:
  - [  -0.0032400563359261, -0.0008565597236156,  0.0156446080654860 ]
  - [  -0.0028079785406590,  0.0003252951428294,  0.0140222962945700 ]
  - [  -0.0009989738464355, -0.0025597047060728,  0.0121222212910652 ]
  - [  -0.0028983727097511, -0.0007795533165336,  0.0156424436718225 ]
  - [  -0.0031811892986298, -0.0008579371497035,  0.0158300418406725 ]
  - [  -0.0031782202422619, -0.0009530372917652,  0.0154987415298820 ]
  - [  -0.0032575130462646, -0.0007748110219836,  0.0154836941510439 ]
  - [  -0.0031544528901577, -0.0008959732949734,  0.0157523527741432 ]
  - [   0.0031921602785587,  0.0008812109008431, -0.0156119130551815 ]
  - [   0.0065949149429798, -0.0007993876934052, -0.0126270260661840 ]
  - [   0.0042577125132084,  0.0028571197763085, -0.0138746500015259 ]
  - [   0.0030990689992905,  0.0008370922878385, -0.0155557682737708 ]
  - [   0.0031252019107342,  0.0008402448147535, -0.0156295448541641 ]
  - [   0.0031855031847954,  0.0008689854294062, -0.0154853779822588 ]
  - [   0.0031712651252747,  0.0008293697610497, -0.0155518073588610 ]
  - [   0.0030961185693741,  0.0008443081751466, -0.0155619941651821 ]
  - [  -0.0554727166891098, -0.0093992836773396,  0.0158433690667152 ]
  - [  -0.0342162996530533, -0.0095722768455744,  0.0160752460360527 ]
  - [  -0.0345458500087261, -0.0090140588581562,  0.0160932540893555 ]
  - [  -0.0350974425673485, -0.0123733915388584,  0.0168825536966324 ]
  - [  -0.0349343717098236, -0.0094587635248899,  0.0161476433277130 ]
  - [  -0.0349846184253693, -0.0094584589824080,  0.0160159841179848 ]
  - [  -0.0349753461778164, -0.0094735119491816,  0.0159900635480881 ]
  - [  -0.0349957197904587, -0.0094661274924874,  0.0158987119793892 ]
  - [  -0.0082891508936882, -0.0022625988349319,  0.0026275068521500 ]
  - [  -0.0082567259669304, -0.0023359898477793,  0.0024903863668442 ]
  - [  -0.0082382708787918, -0.0021487185731530,  0.0026169046759605 ]
  - [  -0.0085167177021503, -0.0021856082603335,  0.0030125677585602 ]
  - [  -0.0080244764685631, -0.0021476615220308,  0.0027534738183022 ]
  - [  -0.0078677944839001, -0.0031164260581136, -0.0001915767788887 ]
  - [  -0.0088238492608070, -0.0013455264270306,  0.0012280493974686 ]
  - [  -0.0082247257232666, -0.0022583315148950,  0.0030096247792244 ]
  - [   0.0350778326392174,  0.0094857942312956, -0.0162686854600906 ]
  - [   0.0349768176674843,  0.0094434414058924, -0.0160447657108307 ]
  - [   0.0349572785198689,  0.0094810510054231, -0.0160511806607246 ]
  - [   0.0351725369691849,  0.0094903782010078, -0.0159006565809250 ]
  - [   0.0346570424735546,  0.0095573309808969, -0.0135911032557487 ]
  - [   0.0349974408745766,  0.0093521811068058, -0.0159610882401466 ]
  - [   0.0348762273788452,  0.0095574138686061, -0.0160018876194954 ]
  - [   0.0348038300871849,  0.0090184649452567, -0.0154822096228600 ]
  - [   0.0082193538546562,  0.0022248020395637, -0.0026673451066017 ]
  - [   0.0082247853279114,  0.0021742600947618, -0.0026754289865494 ]
  - [   0.0081937722861767,  0.0022667236626148, -0.0027038007974625 ]
  - [   0.0082424059510231,  0.0022300006821752, -0.0026168674230576 ]
  - [   0.0093104951083660,  0.0022575613111258, -0.0030337646603584 ]
  - [   0.0106060430407524,  0.0057904445566237, -0.0029349923133850 ]
  - [   0.0137251541018486,  0.0003977753221989, -0.0031090602278709 ]
  - [   0.0124178640544415,  0.0034824591130018, -0.0015492886304855 ]
- atom:   17
  displacement:
    [  -0.0100000000000000,  0.0000000000000000,  0.0000000000000000 ]
  forces:
  - [  -0.0029858872294426, -0.0008277986198664,  0.0156085519120097 ]
  - [  -0.0034518577158451, -0.0020174048841000,  0.0172305051237345 ]
  - [  -0.0052257999777794,  0.0008361283689737,  0.0190653372555971 ]
  - [  -0.0033261403441429, -0.0009057875722647,  0.0156095903366804 ]
  - [  -0.0030435025691986, -0.0008318545296788,  0.0154131958261132 ]
  - [  -0.0030562989413738, -0.0007331017404795,  0.0157534740865231 ]
  - [  -0.0029726736247540, -0.0009101582691073,  0.0157685354351997 ]
  - [  -0.0030780471861362, -0.0007881633937359,  0.0155035471543670 ]
  - [   0.0030432939529419,  0.0008046291768551, -0.0156501512974501 ]
  - [  -0.0004708245396614,  0.0025559905916452, -0.0187402851879597 ]
  - [   0.0019638985395432, -0.0012197298929095, -0.0174155812710524 ]
  - [   0.0031283088028431,  0.0008510239422321, -0.0156902857124805 ]
  - [   0.0031030885875225,  0.0008464641869068, -0.0156212681904435 ]
  - [   0.0030414797365665,  0.0008158357813954, -0.0157707016915083 ]
  - [   0.0030580759048462,  0.0008569387719035, -0.0157034378498793 ]
  - [   0.0031377114355564,  0.0008433675393462, -0.0156915877014399 ]
  - [  -0.0144232297316194, -0.0094847669824958,  0.0161367952823639 ]
  - [  -0.0357545465230942, -0.0093586491420865,  0.0158751755952835 ]
  - [  -0.0354262366890907, -0.0099263042211533,  0.0158590376377106 ]
  - [  -0.0348776429891586, -0.0065740616992116,  0.0150806903839111 ]
  - [  -0.0350340306758881, -0.0094743585214019,  0.0158039703965187 ]
  - [  -0.0349810943007469, -0.0094761941581964,  0.0159357339143753 ]
  - [  -0.0349912084639072, -0.0094590811058879,  0.0159605890512466 ]
  - [  -0.0349659882485867, -0.0094696236774325,  0.0160510167479515 ]
  - [  -0.0081783086061478, -0.0021961247548461,  0.0027360245585442 ]
  - [  -0.0082015395164490, -0.0021189628168941,  0.0028806105256081 ]
  - [  -0.0082303769886494, -0.0023046089336276,  0.0027472376823425 ]
  - [  -0.0079544968903065, -0.0022667814046144,  0.0023471191525459 ]
  - [  -0.0084524564445019, -0.0023116804659367,  0.0026046559214592 ]
  - [  -0.0086241513490677, -0.0013037417083979,  0.0056133270263672 ]
  - [  -0.0076355896890163, -0.0031296489760280,  0.0041383430361748 ]
  - [  -0.0082557387650013, -0.0022000111639500,  0.0023443475365639 ]
  - [   0.0348846204578876,  0.0094504887238145, -0.0156878009438515 ]
  - [   0.0349889695644379,  0.0094914212822914, -0.0159065872430801 ]
  - [   0.0350147411227226,  0.0094517450779676, -0.0159013643860817 ]