phonopy:
  version: "2.37.1"
  frequency_unit_conversion_factor: 15.633302
  symmetry_tolerance: 1.00000e-05

space_group:
  type: "P1"
  number: 1
  Hall_symbol: "P 1"

primitive_matrix:
- [ -1.000000000000000,  0.000000000000000, -1.000000000000000 ]
- [  0.000000000000000,  1.000000000000000,  0.000000000000000 ]
- [  0.000000000000000,  0.000000000000000, -1.000000000000000 ]

supercell_matrix:
- [   2,   0,   0 ]
- [   0,   2,   0 ]
- [   0,   0,   2 ]

primitive_cell:
  lattice:
  - [    -5.373409018476146,     0.000000000000000,     0.000000000000000 ] # a
  - [    -2.182551179628670,     6.612515525736042,     0.000000000000000 ] # b
  - [    -0.135469170842564,     3.470773589113533,    -7.374025924728671 ] # c
  points:
  - symbol: Li # 1
    coordinates: [  0.821522068565037,  0.203199682541755,  0.481221725706462 ]
    mass: 6.940000
  - symbol: Li # 2
    coordinates: [  0.980094668624867,  0.552914840355745,  0.202148311578901 ]
    mass: 6.940000
  - symbol: Li # 3
    coordinates: [  0.098578310976810,  0.397821071988511,  0.929199196539431 ]
    mass: 6.940000
  - symbol: Li # 4
    coordinates: [  0.400916210755331,  0.106395169504414,  0.365275595505647 ]
    mass: 6.940000
  - symbol: Li # 5
    coordinates: [  0.829551100665268,  0.694261409077259,  0.495524510991566 ]
    mass: 6.940000
  - symbol: Li # 6
    coordinates: [  0.242368804999260,  0.756698513870375,  0.644337520113215 ]
    mass: 6.940000
  - symbol: Li # 7
    coordinates: [  0.532724893200043,  0.983441017960759,  0.064651663720508 ]
    mass: 6.940000
  - symbol: Li # 8
    coordinates: [  0.123888995351033,  0.911765209449376,  0.917278431840222 ]
    mass: 6.940000
  - symbol: Li # 9
    coordinates: [  0.392926258808382,  0.615346817564721,  0.350942181238557 ]
    mass: 6.940000
  - symbol: Li # 10
    coordinates: [  0.689742582744013,  0.326106335715234,  0.781831859766407 ]
    mass: 6.940000
  - symbol: Sn # 11
    coordinates: [  0.685803627402588,  0.841839948047053,  0.773040900972076 ]
    mass: 118.710000
  - symbol: Sn # 12
    coordinates: [  0.239130755742934,  0.283685779827499,  0.630147842099971 ]
    mass: 118.710000
  - symbol: Sn # 13
    coordinates: [  0.983320868555398,  0.025907139701344,  0.216317193569399 ]
    mass: 118.710000
  - symbol: Sn # 14
    coordinates: [  0.536669828562711,  0.467744876417165,  0.073444534757211 ]
    mass: 118.710000
  reciprocal_lattice: # without 2pi
  - [    -0.186101597060927,    -0.061425377167775,    -0.025492526016017 ] # a*
  - [    -0.000000000000000,     0.151228378384592,     0.071179497736987 ] # b*
  - [    -0.000000000000000,     0.000000000000000,    -0.135611131586413 ] # c*

unit_cell:
  lattice:
  - [     5.373409018476146,     0.000000000000000,     0.000000000000000 ] # a
  - [    -2.182551179628670,     6.612515525736041,     0.000000000000000 ] # b
  - [    -5.237939847633582,    -3.470773589113533,     7.374025924728671 ] # c
  points:
  - symbol: Li # 1
    coordinates: [  0.697256205728501,  0.203199682541755,  0.518778274293538 ]
    mass: 6.940000
    reduced_to: 1
  - symbol: Li # 2
    coordinates: [  0.817757019796232,  0.552914840355745,  0.797851688421099 ]
    mass: 6.940000
    reduced_to: 2
  - symbol: Li # 3
    coordinates: [  0.972222492483759,  0.397821071988511,  0.070800803460569 ]
    mass: 6.940000
    reduced_to: 3
  - symbol: Li # 4
    coordinates: [  0.233808193739023,  0.106395169504414,  0.634724404494353 ]
    mass: 6.940000
    reduced_to: 4
  - symbol: Li # 5
    coordinates: [  0.674924388343166,  0.694261409077259,  0.504475489008434 ]
    mass: 6.940000
    reduced_to: 5
  - symbol: Li # 6
    coordinates: [  0.113293674887525,  0.756698513870376,  0.355662479886785 ]
    mass: 6.940000
    reduced_to: 6
  - symbol: Li # 7
    coordinates: [  0.402623443079448,  0.983441017960759,  0.935348336279492 ]
    mass: 6.940000
    reduced_to: 7
  - symbol: Li # 8
    coordinates: [  0.958832572808745,  0.911765209449376,  0.082721568159778 ]
    mass: 6.940000
    reduced_to: 8
  - symbol: Li # 9
    coordinates: [  0.256131559953061,  0.615346817564721,  0.649057818761443 ]
    mass: 6.940000
    reduced_to: 9
  - symbol: Li # 10
    coordinates: [  0.528425557489580,  0.326106335715234,  0.218168140233593 ]
    mass: 6.940000
    reduced_to: 10
  - symbol: Sn # 11
    coordinates: [  0.541155471625336,  0.841839948047053,  0.226959099027924 ]
    mass: 118.710000
    reduced_to: 11
  - symbol: Sn # 12
    coordinates: [  0.130721402157096,  0.283685779827499,  0.369852157900029 ]
    mass: 118.710000
    reduced_to: 12
  - symbol: Sn # 13
    coordinates: [  0.800361937875202,  0.025907139701343,  0.783682806430601 ]
    mass: 118.710000
    reduced_to: 13
  - symbol: Sn # 14
    coordinates: [  0.389885636680079,  0.467744876417165,  0.926555465242789 ]
    mass: 118.710000
    reduced_to: 14

supercell:
  lattice:
  - [    10.746818036952291,     0.000000000000000,     0.000000000000000 ] # a
  - [    -4.365102359257341,    13.225031051472081,     0.000000000000000 ] # b
  - [   -10.475879695267164,    -6.941547178227065,    14.748051849457342 ] # c
  points:
  - symbol: Li # 1
    coordinates: [  0.348628102864250,  0.101599841270878,  0.259389137146769 ]
    mass: 6.940000
    reduced_to: 1
  - symbol: Li # 2
    coordinates: [  0.848628102864250,  0.101599841270878,  0.259389137146769 ]
    mass: 6.940000
    reduced_to: 1
  - symbol: Li # 3
    coordinates: [  0.348628102864250,  0.601599841270878,  0.259389137146769 ]
    mass: 6.940000
    reduced_to: 1
  - symbol: Li # 4
    coordinates: [  0.848628102864250,  0.601599841270878,  0.259389137146769 ]
    mass: 6.940000
    reduced_to: 1
  - symbol: Li # 5
    coordinates: [  0.348628102864250,  0.101599841270878,  0.759389137146769 ]
    mass: 6.940000
    reduced_to: 1
  - symbol: Li # 6
    coordinates: [  0.848628102864250,  0.101599841270878,  0.759389137146769 ]
    mass: 6.940000
    reduced_to: 1
  - symbol: Li # 7
    coordinates: [  0.348628102864250,  0.601599841270878,  0.759389137146769 ]
    mass: 6.940000
    reduced_to: 1
  - symbol: Li # 8
    coordinates: [  0.848628102864250,  0.601599841270878,  0.759389137146769 ]
    mass: 6.940000
    reduced_to: 1
  - symbol: Li # 9
    coordinates: [  0.408878509898116,  0.276457420177872,  0.398925844210550 ]
    mass: 6.940000
    reduced_to: 9
  - symbol: Li # 10
    coordinates: [  0.908878509898116,  0.276457420177872,  0.398925844210550 ]
    mass: 6.940000
    reduced_to: 9
  - symbol: Li # 11
    coordinates: [  0.408878509898116,  0.776457420177872,  0.398925844210550 ]
    mass: 6.940000
    reduced_to: 9
  - symbol: Li # 12
    coordinates: [  0.908878509898116,  0.776457420177872,  0.398925844210550 ]
    mass: 6.940000
    reduced_to: 9
  - symbol: Li # 13
    coordinates: [  0.408878509898116,  0.276457420177872,  0.898925844210550 ]
    mass: 6.940000
    reduced_to: 9
  - symbol: Li # 14
    coordinates: [  0.908878509898116,  0.276457420177872,  0.898925844210550 ]
    mass: 6.940000
    reduced_to: 9
  - symbol: Li # 15
    coordinates: [  0.408878509898116,  0.776457420177872,  0.898925844210550 ]
    mass: 6.940000
    reduced_to: 9
  - symbol: Li # 16
    coordinates: [  0.908878509898116,  0.776457420177872,  0.898925844210550 ]
    mass: 6.940000
    reduced_to: 9
  - symbol: Li # 17
    coordinates: [  0.486111246241879,  0.198910535994256,  0.035400401730285 ]
    mass: 6.940000
    reduced_to: 17
  - symbol: Li # 18
    coordinates: [  0.986111246241879,  0.198910535994256,  0.035400401730285 ]
    mass: 6.940000
    reduced_to: 17
  - symbol: Li # 19
    coordinates: [  0.486111246241879,  0.698910535994256,  0.035400401730285 ]
    mass: 6.940000
    reduced_to: 17
  - symbol: Li # 20
    coordinates: [  0.986111246241879,  0.698910535994256,  0.035400401730285 ]
    mass: 6.940000
    reduced_to: 17
  - symbol: Li # 21
    coordinates: [  0.486111246241879,  0.198910535994256,  0.535400401730285 ]
    mass: 6.940000
    reduced_to: 17
  - symbol: Li # 22
    coordinates: [  0.986111246241879,  0.198910535994256,  0.535400401730285 ]
    mass: 6.940000
    reduced_to: 17
  - symbol: Li # 23
    coordinates: [  0.486111246241879,  0.698910535994256,  0.535400401730285 ]
    mass: 6.940000
    reduced_to: 17
  - symbol: Li # 24
    coordinates: [  0.986111246241879,  0.698910535994256,  0.535400401730285 ]
    mass: 6.940000
    reduced_to: 17
  - symbol: Li # 25
    coordinates: [  0.116904096869511,  0.053197584752207,  0.317362202247177 ]
    mass: 6.940000
    reduced_to: 25
  - symbol: Li # 26
    coordinates: [  0.616904096869511,  0.053197584752207,  0.317362202247177 ]
    mass: 6.940000
    reduced_to: 25
  - symbol: Li # 27
    coordinates: [  0.116904096869511,  0.553197584752207,  0.317362202247177 ]
    mass: 6.940000
    reduced_to: 25
  - symbol: Li # 28
    coordinates: [  0.616904096869511,  0.553197584752207,  0.317362202247177 ]
    mass: 6.940000
    reduced_to: 25
  - symbol: Li # 29
    coordinates: [  0.116904096869511,  0.053197584752207,  0.817362202247177 ]
    mass: 6.940000
    reduced_to: 25
  - symbol: Li # 30
    coordinates: [  0.616904096869511,  0.053197584752207,  0.817362202247177 ]
    mass: 6.940000
    reduced_to: 25
  - symbol: Li # 31
    coordinates: [  0.116904096869511,  0.553197584752207,  0.817362202247177 ]
    mass: 6.940000
    reduced_to: 25
  - symbol: Li # 32
    coordinates: [  0.616904096869511,  0.553197584752207,  0.817362202247177 ]
    mass: 6.940000
    reduced_to: 25
  - symbol: Li # 33
    coordinates: [  0.337462194171583,  0.347130704538629,  0.252237744504217 ]
    mass: 6.940000
    reduced_to: 33
  - symbol: Li # 34
    coordinates: [  0.837462194171583,  0.347130704538629,  0.252237744504217 ]
    mass: 6.940000
    reduced_to: 33
  - symbol: Li # 35
    coordinates: [  0.337462194171583,  0.847130704538629,  0.252237744504217 ]
    mass: 6.940000
    reduced_to: 33
  - symbol: Li # 36
    coordinates: [  0.837462194171583,  0.847130704538629,  0.252237744504217 ]
    mass: 6.940000
    reduced_to: 33
  - symbol: Li # 37
    coordinates: [  0.337462194171583,  0.347130704538629,  0.752237744504217 ]
    mass: 6.940000
    reduced_to: 33
  - symbol: Li # 38
    coordinates: [  0.837462194171583,  0.347130704538629,  0.752237744504217 ]
    mass: 6.940000
    reduced_to: 33
  - symbol: Li # 39
    coordinates: [  0.337462194171583,  0.847130704538629,  0.752237744504217 ]
    mass: 6.940000
    reduced_to: 33
  - symbol: Li # 40
    coordinates: [  0.837462194171583,  0.847130704538629,  0.752237744504217 ]
    mass: 6.940000
    reduced_to: 33
  - symbol: Li # 41
    coordinates: [  0.056646837443763,  0.378349256935188,  0.177831239943393 ]
    mass: 6.940000
    reduced_to: 41
  - symbol: Li # 42
    coordinates: [  0.556646837443763,  0.378349256935188,  0.177831239943393 ]
    mass: 6.940000
    reduced_to: 41
  - symbol: Li # 43
    coordinates: [  0.056646837443763,  0.878349256935188,  0.177831239943393 ]
    mass: 6.940000
    reduced_to: 41
  - symbol: Li # 44
    coordinates: [  0.556646837443763,  0.878349256935188,  0.177831239943393 ]
    mass: 6.940000
    reduced_to: 41
  - symbol: Li # 45
    coordinates: [  0.056646837443763,  0.378349256935188,  0.677831239943393 ]
    mass: 6.940000
    reduced_to: 41
  - symbol: Li # 46
    coordinates: [  0.556646837443763,  0.378349256935188,  0.677831239943393 ]
    mass: 6.940000
    reduced_to: 41
  - symbol: Li # 47
    coordinates: [  0.056646837443763,  0.878349256935188,  0.677831239943393 ]
    mass: 6.940000
    reduced_to: 41
  - symbol: Li # 48
    coordinates: [  0.556646837443763,  0.878349256935188,  0.677831239943393 ]
    mass: 6.940000
    reduced_to: 41
  - symbol: Li # 49
    coordinates: [  0.201311721539724,  0.491720508980380,  0.467674168139746 ]
    mass: 6.940000
    reduced_to: 49
  - symbol: Li # 50
    coordinates: [  0.701311721539724,  0.491720508980380,  0.467674168139746 ]
    mass: 6.940000
    reduced_to: 49
  - symbol: Li # 51
    coordinates: [  0.201311721539724,  0.991720508980380,  0.467674168139746 ]
    mass: 6.940000
    reduced_to: 49
  - symbol: Li # 52
    coordinates: [  0.701311721539724,  0.991720508980380,  0.467674168139746 ]
    mass: 6.940000
    reduced_to: 49
  - symbol: Li # 53
    coordinates: [  0.201311721539724,  0.491720508980380,  0.967674168139746 ]
    mass: 6.940000
    reduced_to: 49
  - symbol: Li # 54
    coordinates: [  0.701311721539724,  0.491720508980380,  0.967674168139746 ]
    mass: 6.940000
    reduced_to: 49
  - symbol: Li # 55
    coordinates: [  0.201311721539724,  0.991720508980380,  0.967674168139746 ]
    mass: 6.940000
    reduced_to: 49
  - symbol: Li # 56
    coordinates: [  0.701311721539724,  0.991720508980380,  0.967674168139746 ]
    mass: 6.940000
    reduced_to: 49
  - symbol: Li # 57
    coordinates: [  0.479416286404372,  0.455882604724688,  0.041360784079889 ]
    mass: 6.940000
    reduced_to: 57
  - symbol: Li # 58
    coordinates: [  0.979416286404372,  0.455882604724688,  0.041360784079889 ]
    mass: 6.940000
    reduced_to: 57
  - symbol: Li # 59
    coordinates: [  0.479416286404372,  0.955882604724688,  0.041360784079889 ]
    mass: 6.940000
    reduced_to: 57
  - symbol: Li # 60
    coordinates: [  0.979416286404372,  0.955882604724688,  0.041360784079889 ]
    mass: 6.940000
    reduced_to: 57
  - symbol: Li # 61
    coordinates: [  0.479416286404372,  0.455882604724688,  0.541360784079889 ]
    mass: 6.940000
    reduced_to: 57
  - symbol: Li # 62
    coordinates: [  0.979416286404372,  0.455882604724688,  0.541360784079889 ]
    mass: 6.940000
    reduced_to: 57
  - symbol: Li # 63
    coordinates: [  0.479416286404372,  0.955882604724688,  0.541360784079889 ]
    mass: 6.940000
    reduced_to: 57
  - symbol: Li # 64
    coordinates: [  0.979416286404372,  0.955882604724688,  0.541360784079889 ]
    mass: 6.940000
    reduced_to: 57
  - symbol: Li # 65
    coordinates: [  0.128065779976530,  0.307673408782361,  0.324528909380721 ]
    mass: 6.940000
    reduced_to: 65
  - symbol: Li # 66
    coordinates: [  0.628065779976530,  0.307673408782361,  0.324528909380721 ]
    mass: 6.940000
    reduced_to: 65
  - symbol: Li # 67
    coordinates: [  0.128065779976530,  0.807673408782361,  0.324528909380721 ]
    mass: 6.940000
    reduced_to: 65
  - symbol: Li # 68
    coordinates: [  0.628065779976530,  0.807673408782361,  0.324528909380721 ]
    mass: 6.940000
    reduced_to: 65
  - symbol: Li # 69
    coordinates: [  0.128065779976530,  0.307673408782361,  0.824528909380721 ]
    mass: 6.940000
    reduced_to: 65
  - symbol: Li # 70
    coordinates: [  0.628065779976530,  0.307673408782361,  0.824528909380721 ]
    mass: 6.940000
    reduced_to: 65
  - symbol: Li # 71
    coordinates: [  0.128065779976530,  0.807673408782361,  0.824528909380721 ]
    mass: 6.940000
    reduced_to: 65
  - symbol: Li # 72
    coordinates: [  0.628065779976530,  0.807673408782361,  0.824528909380721 ]
    mass: 6.940000
    reduced_to: 65
  - symbol: Li # 73
    coordinates: [  0.264212778744790,  0.163053167857617,  0.109084070116796 ]
    mass: 6.940000
    reduced_to: 73
  - symbol: Li # 74
    coordinates: [  0.764212778744790,  0.163053167857617,  0.109084070116796 ]
    mass: 6.940000
    reduced_to: 73
  - symbol: Li # 75
    coordinates: [  0.264212778744790,  0.663053167857617,  0.109084070116796 ]
    mass: 6.940000
    reduced_to: 73
  - symbol: Li # 76
    coordinates: [  0.764212778744790,  0.663053167857617,  0.109084070116796 ]
    mass: 6.940000
    reduced_to: 73
  - symbol: Li # 77
    coordinates: [  0.264212778744790,  0.163053167857617,  0.609084070116796 ]
    mass: 6.940000
    reduced_to: 73
  - symbol: Li # 78
    coordinates: [  0.764212778744790,  0.163053167857617,  0.609084070116796 ]
    mass: 6.940000
    reduced_to: 73
  - symbol: Li # 79
    coordinates: [  0.264212778744790,  0.663053167857617,  0.609084070116796 ]
    mass: 6.940000
    reduced_to: 73
  - symbol: Li # 80
    coordinates: [  0.764212778744790,  0.663053167857617,  0.609084070116796 ]
    mass: 6.940000
    reduced_to: 73
  - symbol: Sn # 81
    coordinates: [  0.270577735812668,  0.420919974023526,  0.113479549513962 ]
    mass: 118.710000
    reduced_to: 81
  - symbol: Sn # 82
    coordinates: [  0.770577735812668,  0.420919974023526,  0.113479549513962 ]
    mass: 118.710000
    reduced_to: 81
  - symbol: Sn # 83
    coordinates: [  0.270577735812668,  0.920919974023527,  0.113479549513962 ]
    mass: 118.710000
    reduced_to: 81
  - symbol: Sn # 84
    coordinates: [  0.770577735812668,  0.920919974023527,  0.113479549513962 ]
    mass: 118.710000
    reduced_to: 81
  - symbol: Sn # 85
    coordinates: [  0.270577735812668,  0.420919974023526,  0.613479549513962 ]
    mass: 118.710000
    reduced_to: 81
  - symbol: Sn # 86
    coordinates: [  0.770577735812668,  0.420919974023526,  0.613479549513962 ]
    mass: 118.710000
    reduced_to: 81
  - symbol: Sn # 87
    coordinates: [  0.270577735812668,  0.920919974023527,  0.613479549513962 ]
    mass: 118.710000
    reduced_to: 81
  - symbol: Sn # 88
    coordinates: [  0.770577735812668,  0.920919974023527,  0.613479549513962 ]
    mass: 118.710000
    reduced_to: 81
  - symbol: Sn # 89
    coordinates: [  0.065360701078548,  0.141842889913750,  0.184926078950015 ]
    mass: 118.710000
    reduced_to: 89
  - symbol: Sn # 90
    coordinates: [  0.565360701078548,  0.141842889913750,  0.184926078950015 ]
    mass: 118.710000
    reduced_to: 89
  - symbol: Sn # 91
    coordinates: [  0.065360701078548,  0.641842889913750,  0.184926078950015 ]
    mass: 118.710000
    reduced_to: 89
  - symbol: Sn # 92
    coordinates: [  0.565360701078548,  0.641842889913750,  0.184926078950015 ]
    mass: 118.710000
    reduced_to: 89
  - symbol: Sn # 93
    coordinates: [  0.065360701078548,  0.141842889913750,  0.684926078950014 ]
    mass: 118.710000
    reduced_to: 89
  - symbol: Sn # 94
    coordinates: [  0.565360701078548,  0.141842889913750,  0.684926078950014 ]
    mass: 118.710000
    reduced_to: 89
  - symbol: Sn # 95
    coordinates: [  0.065360701078548,  0.641842889913750,  0.684926078950014 ]
    mass: 118.710000
    reduced_to: 89
  - symbol: Sn # 96
    coordinates: [  0.565360701078548,  0.641842889913750,  0.684926078950014 ]
    mass: 118.710000
    reduced_to: 89
  - symbol: Sn # 97
    coordinates: [  0.400180968937601,  0.012953569850672,  0.391841403215300 ]
    mass: 118.710000
    reduced_to: 97
  - symbol: Sn # 98
    coordinates: [  0.900180968937601,  0.012953569850672,  0.391841403215300 ]
    mass: 118.710000
    reduced_to: 97
  - symbol: Sn # 99
    coordinates: [  0.400180968937601,  0.512953569850672,  0.391841403215300 ]
    mass: 118.710000
    reduced_to: 97
  - symbol: Sn # 100
    coordinates: [  0.900180968937601,  0.512953569850672,  0.391841403215300 ]
    mass: 118.710000
    reduced_to: 97
  - symbol: Sn # 101
    coordinates: [  0.400180968937601,  0.012953569850672,  0.891841403215300 ]
    mass: 118.710000
    reduced_to: 97
  - symbol: Sn # 102
    coordinates: [  0.900180968937601,  0.012953569850672,  0.891841403215300 ]
    mass: 118.710000
    reduced_to: 97
  - symbol: Sn # 103
    coordinates: [  0.400180968937601,  0.512953569850672,  0.891841403215300 ]
    mass: 118.710000
    reduced_to: 97
  - symbol: Sn # 104
    coordinates: [  0.900180968937601,  0.512953569850672,  0.891841403215300 ]
    mass: 118.710000
    reduced_to: 97
  - symbol: Sn # 105
    coordinates: [  0.194942818340039,  0.233872438208583,  0.463277732621395 ]
    mass: 118.710000
    reduced_to: 105
  - symbol: Sn # 106
    coordinates: [  0.694942818340039,  0.233872438208583,  0.463277732621395 ]
    mass: 118.710000
    reduced_to: 105
  - symbol: Sn # 107
    coordinates: [  0.194942818340039,  0.733872438208583,  0.463277732621395 ]
    mass: 118.710000
    reduced_to: 105
  - symbol: Sn # 108
    coordinates: [  0.694942818340039,  0.733872438208583,  0.463277732621395 ]
    mass: 118.710000
    reduced_to: 105
  - symbol: Sn # 109
    coordinates: [  0.194942818340039,  0.233872438208583,  0.963277732621395 ]
    mass: 118.710000
    reduced_to: 105
  - symbol: Sn # 110
    coordinates: [  0.694942818340039,  0.233872438208583,  0.963277732621395 ]
    mass: 118.710000
    reduced_to: 105
  - symbol: Sn # 111
    coordinates: [  0.194942818340039,  0.733872438208583,  0.963277732621395 ]
    mass: 118.710000
    reduced_to: 105
  - symbol: Sn # 112
    coordinates: [  0.694942818340039,  0.733872438208583,  0.963277732621395 ]
    mass: 118.710000
    reduced_to: 105

displacements:
- atom:    1
  displacement:
    [   0.0100000000000000,  0.0000000000000000,  0.0000000000000000 ]
  forces:
  - [  -0.0234197005629539,  0.0075555294752121,  0.0040202680975199 ]
  - [  -0.0023626536130905,  0.0038192309439182,  0.0047358907759190 ]
  - [  -0.0024056807160378,  0.0036974027752876,  0.0047298353165388 ]
  - [  -0.0023942664265633,  0.0037137418985367,  0.0047332164831460 ]
  - [  -0.0024041533470154,  0.0036906469613314,  0.0047373608686030 ]
  - [  -0.0024012997746468,  0.0036906115710735,  0.0047338427975774 ]
  - [  -0.0024060308933258,  0.0036848187446594,  0.0047273077070713 ]
  - [  -0.0024276524782181,  0.0037125572562218,  0.0047557144425809 ]
  - [  -0.0005493555217981, -0.0025962577201426,  0.0103418696671724 ]
  - [  -0.0020544324070215, -0.0012991251423955,  0.0127054052427411 ]
  - [  -0.0019142106175423, -0.0012860698625445,  0.0127897355705500 ]
  - [  -0.0019271913915873, -0.0011429302394390,  0.0127824023365974 ]
  - [  -0.0019313907250762, -0.0011815894395113,  0.0127844037488103 ]
  - [  -0.0019340431317687, -0.0011691488325596,  0.0127750132232904 ]
  - [  -0.0019068885594606, -0.0011687157675624,  0.0127628520131111 ]
  - [  -0.0018529631197453, -0.0011993134394288,  0.0128269214183092 ]
  - [  -0.0078491494059563,  0.0094069615006447, -0.0102281160652637 ]
  - [  -0.0077457055449486,  0.0097391884773970, -0.0106357429176569 ]
  - [  -0.0079061388969421,  0.0095572136342525, -0.0103614591062069 ]
  - [  -0.0079661309719086,  0.0092450436204672, -0.0106294155120850 ]
  - [  -0.0079527199268341,  0.0093950312584639, -0.0102998986840248 ]
  - [  -0.0079406201839447,  0.0095418673008680, -0.0103157497942448 ]
  - [  -0.0079329609870911,  0.0095498003065586, -0.0103935450315475 ]
  - [  -0.0079365894198418,  0.0095632057636976, -0.0103801991790533 ]
  - [   0.0037160217761993, -0.0036568716168404, -0.0046926885843277 ]
  - [   0.0064564347267151, -0.0058481395244598, -0.0026699537411332 ]
  - [   0.0023156031966209, -0.0039705671370029, -0.0042324326932430 ]
  - [   0.0022661387920380, -0.0039789285510778, -0.0042565683834255 ]
  - [   0.0023223832249641, -0.0039611514657736, -0.0042403005063534 ]
  - [   0.0023220553994179, -0.0039609204977751, -0.0042346548289061 ]
  - [   0.0024123713374138, -0.0040416382253170, -0.0043522105552256 ]
  - [   0.0023236647248268, -0.0039575379341841, -0.0042330417782068 ]
  - [  -0.0012286044657230,  0.0008235163986683,  0.0012132092379034 ]
  - [  -0.0009685084223747,  0.0013344343751669,  0.0013157676439732 ]
  - [  -0.0012840675190091,  0.0011609289795160,  0.0013509856071323 ]
  - [  -0.0012562070041895,  0.0010707061737776,  0.0013519895728678 ]
  - [  -0.0013292292132974,  0.0010985499247909,  0.0013393812114373 ]
  - [  -0.0013249330222607,  0.0010926108807325,  0.0013498751213774 ]
  - [  -0.0013252953067422,  0.0010946961119771,  0.0013432168634608 ]
  - [  -0.0013267234899104,  0.0010945294052362,  0.0013458658941090 ]
  - [   0.0020257811993361,  0.0009799185208976, -0.0127070210874081 ]
  - [   0.0018905149772763,  0.0010217530652881, -0.0127893947064877 ]
  - [   0.0029272418469191,  0.0026463349349797, -0.0115422876551747 ]
  - [   0.0021629035472870,  0.0006811306811869, -0.0127542885020375 ]
  - [   0.0018637450411916,  0.0008451663888991, -0.0129653271287680 ]
  - [   0.0019509783014655,  0.0008690133690834, -0.0127546805888414 ]
  - [   0.0019633015617728,  0.0008762651123106, -0.0127493143081665 ]
  - [   0.0019645793363452,  0.0008705635555089, -0.0127436341717839 ]
  - [   0.0235059335827827,  0.0114069655537605,  0.0209482051432133 ]
  - [   0.0234732292592525,  0.0115311909466982,  0.0210031531751156 ]
  - [   0.0235884375870228,  0.0114940702915192,  0.0208239778876305 ]
  - [   0.0235909353941679,  0.0114866197109222,  0.0209154523909092 ]
  - [   0.0234542209655046,  0.0114216748625040,  0.0209571644663811 ]
  - [   0.0234564989805222,  0.0114117227494717,  0.0209501590579748 ]
  - [   0.0234369747340679,  0.0113291554152966,  0.0209708735346794 ]
  - [   0.0235205739736557,  0.0114064104855061,  0.0208850763738155 ]
  - [   0.0078270286321640, -0.0096087455749512,  0.0104300174862146 ]
  - [   0.0078356042504311, -0.0096213333308697,  0.0104392245411873 ]
  - [   0.0078758895397186, -0.0093463156372309,  0.0105312578380108 ]
  - [   0.0079938322305679, -0.0095160230994225,  0.0105563681572676 ]
  - [   0.0077341943979263, -0.0095349848270416,  0.0105148889124393 ]
  - [   0.0078758671879768, -0.0095062851905823,  0.0106144417077303 ]
  - [   0.0077341198921204, -0.0097192842513323,  0.0105652250349522 ]
  - [   0.0078491419553757, -0.0096037648618221,  0.0104157496243715 ]
  - [   0.0014031995087862, -0.0009603993967175, -0.0014961506240070 ]
  - [   0.0025107832625508,  0.0009384676814079, -0.0007784990593791 ]
  - [   0.0015166951343417, -0.0009737592190504, -0.0016403980553150 ]
  - [   0.0015324968844652, -0.0011106953024864, -0.0017043719999492 ]
  - [   0.0015430077910423, -0.0011042756959796, -0.0017090984620154 ]
  - [   0.0015374701470137, -0.0011107958853245, -0.0017104307189584 ]
  - [   0.0015327916480601, -0.0010903459042311, -0.0017418740317225 ]
  - [   0.0015438380651176, -0.0011044237762690, -0.0017496948130429 ]
  - [  -0.0237813480198383, -0.0106777241453528, -0.0214030425995588 ]
  - [  -0.0247653014957905, -0.0109419766813517, -0.0212361514568329 ]
  - [  -0.0234613567590714, -0.0110740298405290, -0.0210958980023861 ]
  - [  -0.0235751979053020, -0.0110240615904331, -0.0210814308375120 ]
  - [  -0.0234804898500443, -0.0109723201021552, -0.0210975762456656 ]
  - [  -0.0234386101365089, -0.0107878465205431, -0.0211573392152786 ]
  - [  -0.0234853513538837, -0.0109705151990056, -0.0210711061954498 ]
  - [  -0.0234831161797047, -0.0109691126272082, -0.0210686624050140 ]
  - [   0.0198273565620184,  0.0097854249179363,  0.0155012980103493 ]
  - [   0.0197753198444843,  0.0097321821376681,  0.0155074335634708 ]
  - [   0.0220680125057697,  0.0070523121394217,  0.0117169283330441 ]
  - [   0.0202203821390867,  0.0101252375170588,  0.0158330015838146 ]
  - [   0.0197828076779842,  0.0097452132031322,  0.0156210064888000 ]
  - [   0.0198381375521421,  0.0096078487113118,  0.0153604038059711 ]
  - [   0.0197696425020695,  0.0096729621291161,  0.0155534893274307 ]
  - [   0.0197621081024408,  0.0096827503293753,  0.0155512318015099 ]
  - [  -0.0009352199267596,  0.0066727064549923,  0.0049677155911922 ]
  - [  -0.0093280114233494,  0.0104781612753868,  0.0011258758604527 ]
  - [  -0.0098129119724035,  0.0106097385287285,  0.0012695416808128 ]
  - [  -0.0098465671762824,  0.0104868039488792,  0.0012715831398964 ]
  - [  -0.0098058776929975,  0.0105332359671593,  0.0013174936175346 ]
  - [  -0.0098288543522358,  0.0105548612773418,  0.0012772083282471 ]
  - [  -0.0098060173913836,  0.0105865485966206,  0.0012636780738831 ]
  - [  -0.0098395384848118,  0.0105434246361256,  0.0012685842812061 ]
  - [   0.0102131245657802, -0.0096255764365196, -0.0024770312011242 ]
  - [   0.0093187810853124, -0.0104285776615143, -0.0015915259718895 ]
  - [   0.0096723753958941, -0.0103615559637547, -0.0014929398894310 ]
  - [   0.0096052661538124, -0.0103758648037910, -0.0015900172293186 ]
  - [   0.0096500823274255, -0.0103307142853737, -0.0016327910125256 ]
  - [   0.0097550302743912, -0.0103829838335514, -0.0016545653343201 ]
  - [   0.0096790557727218, -0.0104119591414928, -0.0015963129699230 ]
  - [   0.0096269100904465, -0.0104642100632191, -0.0016164742410183 ]
  - [  -0.0196630395948887, -0.0096051394939423, -0.0151659511029720 ]
  - [  -0.0190310087054968, -0.0101149864494801, -0.0145441368222237 ]
  - [  -0.0196253824979067, -0.0096387788653374, -0.0152954235672951 ]
  - [  -0.0196334514766932, -0.0096732797101140, -0.0152974314987659 ]
  - [  -0.0196675471961498, -0.0096764434129000, -0.0152874328196049 ]
  - [  -0.0196879636496305, -0.0096396580338478, -0.0153429768979549 ]
  - [  -0.0201835744082928, -0.0091725904494524, -0.0145892165601254 ]
  - [  -0.0195896551012993, -0.0097685810178518, -0.0154020972549915 ]
- atom:    1
  displacement:
    [  -0.0100000000000000,  0.0000000000000000,  0.0000000000000000 ]
  forces:
  - [   0.0187457054853439, -0.0003052484244108,  0.0056266942992806 ]
  - [  -0.0024398863315582,  0.0035641435533762,  0.0047315349802375 ]
  - [  -0.0023955702781677,  0.0036809705197811,  0.0047410745173693 ]
  - [  -0.0024074390530586,  0.0036662351340055,  0.0047362176701427 ]
  - [  -0.0023984983563423,  0.0036907251924276,  0.0047325408086181 ]
  - [  -0.0024010613560677,  0.0036900620907545,  0.0047363368794322 ]
  - [  -0.0023952275514603,  0.0036947596818209,  0.0047444463707507 ]
  - [  -0.0023757517337799,  0.0036674588918686,  0.0047150095924735 ]
  - [  -0.0033100666478276,  0.0002547395415604,  0.0152460271492600 ]
  - [  -0.0018203444778919, -0.0010614139027894,  0.0128510175272822 ]
  - [  -0.0019514262676239, -0.0010687932372093,  0.0127741117030382 ]
  - [  -0.0019399709999561, -0.0012122616171837,  0.0127815185114741 ]
  - [  -0.0019363425672054, -0.0011707413941622,  0.0127757973968983 ]
  - [  -0.0019359327852726, -0.0011830711737275,  0.0127856200560927 ]
  - [  -0.0019613690674305, -0.0011852048337460,  0.0127989454194903 ]
  - [  -0.0020159482955933, -0.0011545503512025,  0.0127353556454182 ]