# Thermal properties / unit cell (natom)

unit:
  temperature:   K
  free_energy:   kJ/mol
  entropy:       J/K/mol
  heat_capacity: J/K/mol

natom: 4    
cutoff_frequency: 0.00000
num_modes: 243360
num_integrated_modes: 243346

zero_point_energy:      16.8529958

thermal_properties:
- temperature:         0.0000000
  free_energy:        16.8529958
  entropy:             0.0000000
  heat_capacity:       0.0000000
  energy:             16.8529958

- temperature:        10.0000000
  free_energy:        16.8521962
  entropy:             0.2870550
  heat_capacity:       0.8184134
  energy:             16.8550668

- temperature:        20.0000000
  free_energy:        16.8418876
  entropy:             2.1167893
  heat_capacity:       5.6162706
  energy:             16.8842234

- temperature:        30.0000000
  free_energy:        16.8044992
  entropy:             5.5291412
  heat_capacity:      11.4925292
  energy:             16.9703734

- temperature:        40.0000000
  free_energy:        16.7293847
  entropy:             9.5432795
  heat_capacity:      16.5465704
  energy:             17.1111159

- temperature:        50.0000000
  free_energy:        16.6130475
  entropy:            13.7428879
  heat_capacity:      21.2557056
  energy:             17.3001919

- temperature:        60.0000000
  free_energy:        16.4542181
  entropy:            18.0371897
  heat_capacity:      26.0202589
  energy:             17.5364495

- temperature:        70.0000000
  free_energy:        16.2520228
  entropy:            22.4157356
  heat_capacity:      30.9376919
  energy:             17.8211243

- temperature:        80.0000000
  free_energy:        16.0056391
  entropy:            26.8731890
  heat_capacity:      35.9405531
  energy:             18.1554942

- temperature:        90.0000000
  free_energy:        15.7143473
  entropy:            31.3938680
  heat_capacity:      40.9016497
  energy:             18.5397954

- temperature:       100.0000000
  free_energy:        15.3776319
  entropy:            35.9533706
  heat_capacity:      45.6963925
  energy:             18.9729690

- temperature:       110.0000000
  free_energy:        14.9952438
  entropy:            40.5237055
  heat_capacity:      50.2308551
  energy:             19.4528514

- temperature:       120.0000000
  free_energy:        14.5672130
  entropy:            45.0775864
  heat_capacity:      54.4475724
  energy:             19.9765234

- temperature:       130.0000000
  free_energy:        14.0938276
  entropy:            49.5909759
  heat_capacity:      58.3205226
  energy:             20.5406544

- temperature:       140.0000000
  free_energy:        13.5755947
  entropy:            54.0441561
  heat_capacity:      61.8467860
  energy:             21.1417766

- temperature:       150.0000000
  free_energy:        13.0131965
  entropy:            58.4218517
  heat_capacity:      65.0385725
  energy:             21.7764743

- temperature:       160.0000000
  free_energy:        12.4074471
  entropy:            62.7128483
  heat_capacity:      67.9169283
  energy:             22.4415028

- temperature:       170.0000000
  free_energy:        11.7592547
  entropy:            66.9093996
  heat_capacity:      70.5072617
  energy:             23.1338526

- temperature:       180.0000000
  free_energy:        11.0695905
  entropy:            71.0065938
  heat_capacity:      72.8363916
  energy:             23.8507774

- temperature:       190.0000000
  free_energy:        10.3394631
  entropy:            75.0017626
  heat_capacity:      74.9307252
  energy:             24.5897980

- temperature:       200.0000000
  free_energy:         9.5698986
  entropy:            78.8939703
  heat_capacity:      76.8152182
  energy:             25.3486927

- temperature:       210.0000000
  free_energy:         8.7619258
  entropy:            82.6835903
  heat_capacity:      78.5128492
  energy:             26.1254797

- temperature:       220.0000000
  free_energy:         7.9165644
  entropy:            86.3719636
  heat_capacity:      80.0444187
  energy:             26.9183964

- temperature:       230.0000000
  free_energy:         7.0348172
  entropy:            89.9611287
  heat_capacity:      81.4285424
  energy:             27.7258768

- temperature:       240.0000000
  free_energy:         6.1176641
  entropy:            93.4536123
  heat_capacity:      82.6817557
  energy:             28.5465310

- temperature:       250.0000000
  free_energy:         5.1660578
  entropy:            96.8522669
  heat_capacity:      83.8186737
  energy:             29.3791245

- temperature:       260.0000000
  free_energy:         4.1809214
  entropy:           100.1601485
  heat_capacity:      84.8521750
  energy:             30.2225600

- temperature:       270.0000000
  free_energy:         3.1631468
  entropy:           103.3804236
  heat_capacity:      85.7935887
  energy:             31.0758612

- temperature:       280.0000000
  free_energy:         2.1135942
  entropy:           106.5162997
  heat_capacity:      86.6528736
  energy:             31.9381581

- temperature:       290.0000000
  free_energy:         1.0330915
  entropy:           109.5709748
  heat_capacity:      87.4387843
  energy:             32.8086742

- temperature:       300.0000000
  free_energy:        -0.0775651
  entropy:           112.5476004
  heat_capacity:      88.1590209
  energy:             33.6867150

- temperature:       310.0000000
  free_energy:        -1.2176106
  entropy:           115.4492548
  heat_capacity:      88.8203626
  energy:             34.5716584

- temperature:       320.0000000
  free_energy:        -2.3863103
  entropy:           118.2789257
  heat_capacity:      89.4287852
  energy:             35.4629459

- temperature:       330.0000000
  free_energy:        -3.5829588
  entropy:           121.0394974
  heat_capacity:      89.9895641
  energy:             36.3600753

- temperature:       340.0000000
  free_energy:        -4.8068792
  entropy:           123.7337446
  heat_capacity:      90.5073642
  energy:             37.2625940

- temperature:       350.0000000
  free_energy:        -6.0574215
  entropy:           126.3643277
  heat_capacity:      90.9863172
  energy:             38.1700932

- temperature:       360.0000000
  free_energy:        -7.3339620
  entropy:           128.9337920
  heat_capacity:      91.4300898
  energy:             39.0822031

- temperature:       370.0000000
  free_energy:        -8.6359017
  entropy:           131.4445685
  heat_capacity:      91.8419417
  energy:             39.9985886

- temperature:       380.0000000
  free_energy:        -9.9626655
  entropy:           133.8989757
  heat_capacity:      92.2247762
  energy:             40.9189453

- temperature:       390.0000000
  free_energy:       -11.3137007
  entropy:           136.2992226
  heat_capacity:      92.5811846
  energy:             41.8429961

- temperature:       400.0000000
  free_energy:       -12.6884764
  entropy:           138.6474126
  heat_capacity:      92.9134833
  energy:             42.7704886

- temperature:       410.0000000
  free_energy:       -14.0864821
  entropy:           140.9455475
  heat_capacity:      93.2237477
  energy:             43.7011923

- temperature:       420.0000000
  free_energy:       -15.5072269
  entropy:           143.1955315
  heat_capacity:      93.5138401
  energy:             44.6348964

- temperature:       430.0000000
  free_energy:       -16.9502383
  entropy:           145.3991763
  heat_capacity:      93.7854350
  energy:             45.5714075

- temperature:       440.0000000
  free_energy:       -18.4150617
  entropy:           147.5582049
  heat_capacity:      94.0400407
  energy:             46.5105484

- temperature:       450.0000000
  free_energy:       -19.9012592
  entropy:           149.6742564
  heat_capacity:      94.2790180
  energy:             47.4521562

- temperature:       460.0000000
  free_energy:       -21.4084088
  entropy:           151.7488904
  heat_capacity:      94.5035970
  energy:             48.3960808

- temperature:       470.0000000
  free_energy:       -22.9361039
  entropy:           153.7835910
  heat_capacity:      94.7148916
  energy:             49.3421839

- temperature:       480.0000000
  free_energy:       -24.4839522
  entropy:           155.7797707
  heat_capacity:      94.9139118
  energy:             50.2903377

- temperature:       490.0000000
  free_energy:       -26.0515754
  entropy:           157.7387748
  heat_capacity:      95.1015752
  energy:             51.2404243

- temperature:       500.0000000
  free_energy:       -27.6386081
  entropy:           159.6618845
  heat_capacity:      95.2787166
  energy:             52.1923342

- temperature:       510.0000000
  free_energy:       -29.2446975
  entropy:           161.5503207
  heat_capacity:      95.4460967
  energy:             53.1459661

- temperature:       520.0000000
  free_energy:       -30.8695028
  entropy:           163.4052475
  heat_capacity:      95.6044099
  energy:             54.1012259

- temperature:       530.0000000
  free_energy:       -32.5126944
  entropy:           165.2277748
  heat_capacity:      95.7542905
  energy:             55.0580262

- temperature:       540.0000000
  free_energy:       -34.1739538
  entropy:           167.0189618
  heat_capacity:      95.8963194
  energy:             56.0162855

- temperature:       550.0000000
  free_energy:       -35.8529726
  entropy:           168.7798196
  heat_capacity:      96.0310288
  energy:             56.9759282

- temperature:       560.0000000
  free_energy:       -37.5494523
  entropy:           170.5113137
  heat_capacity:      96.1589071
  energy:             57.9368834

- temperature:       570.0000000
  free_energy:       -39.2631041
  entropy:           172.2143669
  heat_capacity:      96.2804032
  energy:             58.8990850

- temperature:       580.0000000
  free_energy:       -40.9936478
  entropy:           173.8898609
  heat_capacity:      96.3959303
  energy:             59.8624715

- temperature:       590.0000000
  free_energy:       -42.7408122
  entropy:           175.5386394
  heat_capacity:      96.5058688
  energy:             60.8269850

- temperature:       600.0000000
  free_energy:       -44.5043342
  entropy:           177.1615095
  heat_capacity:      96.6105698
  energy:             61.7925714

- temperature:       610.0000000
  free_energy:       -46.2839586
  entropy:           178.7592438
  heat_capacity:      96.7103575
  energy:             62.7591800

- temperature:       620.0000000
  free_energy:       -48.0794378
  entropy:           180.3325823
  heat_capacity:      96.8055316
  energy:             63.7267632

- temperature:       630.0000000
  free_energy:       -49.8905313
  entropy:           181.8822342
  heat_capacity:      96.8963696
  energy:             64.6952762

- temperature:       640.0000000
  free_energy:       -51.7170058
  entropy:           183.4088794
  heat_capacity:      96.9831286
  energy:             65.6646770

- temperature:       650.0000000
  free_energy:       -53.5586344
  entropy:           184.9131699
  heat_capacity:      97.0660470
  energy:             66.6349260

- temperature:       660.0000000
  free_energy:       -55.4151968
  entropy:           186.3957313
  heat_capacity:      97.1453464
  energy:             67.6059859

- temperature:       670.0000000
  free_energy:       -57.2864786
  entropy:           187.8571644
  heat_capacity:      97.2212326
  energy:             68.5778216

- temperature:       680.0000000
  free_energy:       -59.1722716
  entropy:           189.2980461
  heat_capacity:      97.2938972
  energy:             69.5503998

- temperature:       690.0000000
  free_energy:       -61.0723729
  entropy:           190.7189308
  heat_capacity:      97.3635186
  energy:             70.5236894

- temperature:       700.0000000
  free_energy:       -62.9865853
  entropy:           192.1203513
  heat_capacity:      97.4302632
  energy:             71.4976606

- temperature:       710.0000000
  free_energy:       -64.9147167
  entropy:           193.5028201
  heat_capacity:      97.4942861
  energy:             72.4722855

- temperature:       720.0000000
  free_energy:       -66.8565802
  entropy:           194.8668304
  heat_capacity:      97.5557322
  energy:             73.4475377

- temperature:       730.0000000
  free_energy:       -68.8119934
  entropy:           196.2128568
  heat_capacity:      97.6147372
  energy:             74.4233921

- temperature:       740.0000000
  free_energy:       -70.7807789
  entropy:           197.5413563
  heat_capacity:      97.6714277
  energy:             75.3998248

- temperature:       750.0000000
  free_energy:       -72.7627636
  entropy:           198.8527691
  heat_capacity:      97.7259224
  energy:             76.3768133

- temperature:       760.0000000
  free_energy:       -74.7577787
  entropy:           200.1475197
  heat_capacity:      97.7783327
  energy:             77.3543363

- temperature:       770.0000000
  free_energy:       -76.7656598
  entropy:           201.4260171
  heat_capacity:      97.8287627
  energy:             78.3323733

- temperature:       780.0000000
  free_energy:       -78.7862462
  entropy:           202.6886557
  heat_capacity:      97.8773105
  energy:             79.3109052

- temperature:       790.0000000
  free_energy:       -80.8193813
  entropy:           203.9358163
  heat_capacity:      97.9240681
  energy:             80.2899136

- temperature:       800.0000000
  free_energy:       -82.8649122
  entropy:           205.1678664
  heat_capacity:      97.9691218
  energy:             81.2693809

- temperature:       810.0000000
  free_energy:       -84.9226895
  entropy:           206.3851606
  heat_capacity:      98.0125530
  energy:             82.2492906

- temperature:       820.0000000
  free_energy:       -86.9925673
  entropy:           207.5880417
  heat_capacity:      98.0544383
  energy:             83.2296268

- temperature:       830.0000000
  free_energy:       -89.0744033
  entropy:           208.7768407
  heat_capacity:      98.0948498
  energy:             84.2103745

- temperature:       840.0000000
  free_energy:       -91.1680583
  entropy:           209.9518779
  heat_capacity:      98.1338555
  energy:             85.1915191

- temperature:       850.0000000
  free_energy:       -93.2733961
  entropy:           211.1134626
  heat_capacity:      98.1715195
  energy:             86.1730471

- temperature:       860.0000000
  free_energy:       -95.3902837
  entropy:           212.2618941
  heat_capacity:      98.2079024
  energy:             87.1549453

- temperature:       870.0000000
  free_energy:       -97.5185911
  entropy:           213.3974622
  heat_capacity:      98.2430613
  energy:             88.1372011

- temperature:       880.0000000
  free_energy:       -99.6581910
  entropy:           214.5204472
  heat_capacity:      98.2770502
  energy:             89.1198026

- temperature:       890.0000000
  free_energy:      -101.8089590
  entropy:           215.6311206
  heat_capacity:      98.3099204
  energy:             90.1027384

- temperature:       900.0000000
  free_energy:      -103.9707732
  entropy:           216.7297452
  heat_capacity:      98.3417201
  energy:             91.0859974

- temperature:       910.0000000
  free_energy:      -106.1435146
  entropy:           217.8165757
  heat_capacity:      98.3724951
  energy:             92.0695693

- temperature:       920.0000000
  free_energy:      -108.3270663
  entropy:           218.8918590
  heat_capacity:      98.4022887
  energy:             93.0534441

- temperature:       930.0000000
  free_energy:      -110.5213141
  entropy:           219.9558344
  heat_capacity:      98.4311422
  energy:             94.0376120

- temperature:       940.0000000
  free_energy:      -112.7261460
  entropy:           221.0087340
  heat_capacity:      98.4590944
  energy:             95.0220639

- temperature:       950.0000000
  free_energy:      -114.9414526
  entropy:           222.0507827
  heat_capacity:      98.4861824
  energy:             96.0067910

- temperature:       960.0000000
  free_energy:      -117.1671262
  entropy:           223.0821990
  heat_capacity:      98.5124413
  energy:             96.9917848

- temperature:       970.0000000
  free_energy:      -119.4030618
  entropy:           224.1031948
  heat_capacity:      98.5379045
  energy:             97.9770372

- temperature:       980.0000000
  free_energy:      -121.6491561
  entropy:           225.1139759
  heat_capacity:      98.5626036
  energy:             98.9625403

- temperature:       990.0000000
  free_energy:      -123.9053079
  entropy:           226.1147422
  heat_capacity:      98.5865689
  energy:             99.9482868

- temperature:      1000.0000000
  free_energy:      -126.1714182
  entropy:           227.1056876
  heat_capacity:      98.6098290
  energy:            100.9342694
