# Thermal properties / unit cell (natom)

unit:
  temperature:   K
  free_energy:   kJ/mol
  entropy:       J/K/mol
  heat_capacity: J/K/mol

natom: 3    
cutoff_frequency: 0.00000
num_modes: 158184
num_integrated_modes: 150952

zero_point_energy:      11.2896584

thermal_properties:
- temperature:         0.0000000
  free_energy:        11.2896584
  entropy:             0.0000000
  heat_capacity:       0.0000000
  energy:             11.2896584

- temperature:        10.0000000
  free_energy:        11.2603632
  entropy:             7.7168510
  heat_capacity:      10.1122220
  energy:             11.3375317

- temperature:        20.0000000
  free_energy:        11.1373251
  entropy:            16.4710737
  heat_capacity:      15.1823164
  energy:             11.4667466

- temperature:        30.0000000
  free_energy:        10.9376702
  entropy:            23.1859848
  heat_capacity:      17.8304682
  energy:             11.6332497

- temperature:        40.0000000
  free_energy:        10.6781335
  entropy:            28.5374360
  heat_capacity:      19.3520077
  energy:             11.8196309

- temperature:        50.0000000
  free_energy:        10.3698706
  entropy:            33.0004169
  heat_capacity:      20.7389265
  energy:             12.0198915

- temperature:        60.0000000
  free_energy:        10.0198790
  entropy:            36.9333726
  heat_capacity:      22.5525148
  energy:             12.2358814

- temperature:        70.0000000
  free_energy:         9.6321412
  entropy:            40.5815515
  heat_capacity:      24.9300855
  energy:             12.4728498

- temperature:        80.0000000
  free_energy:         9.2087027
  entropy:            44.0909381
  heat_capacity:      27.7536423
  energy:             12.7359777

- temperature:        90.0000000
  free_energy:         8.7505333
  entropy:            47.5356080
  heat_capacity:      30.8225811
  energy:             13.0287380

- temperature:       100.0000000
  free_energy:         8.2581049
  entropy:            50.9451825
  heat_capacity:      33.9514384
  energy:             13.3526232

- temperature:       110.0000000
  free_energy:         7.7317268
  entropy:            54.3252742
  heat_capacity:      37.0040589
  energy:             13.7075069

- temperature:       120.0000000
  free_energy:         7.1717157
  entropy:            57.6703714
  heat_capacity:      39.8947880
  energy:             14.0921603

- temperature:       130.0000000
  free_energy:         6.5784673
  entropy:            60.9710784
  heat_capacity:      42.5778737
  energy:             14.5047075

- temperature:       140.0000000
  free_energy:         5.9524743
  entropy:            64.2177804
  heat_capacity:      45.0352830
  energy:             14.9429636

- temperature:       150.0000000
  free_energy:         5.2943193
  entropy:            67.4022606
  heat_capacity:      47.2666043
  energy:             15.4046584

- temperature:       160.0000000
  free_energy:         4.6046577
  entropy:            70.5182297
  heat_capacity:      49.2817349
  energy:             15.8875744

- temperature:       170.0000000
  free_energy:         3.8841978
  entropy:            73.5613260
  heat_capacity:      51.0959789
  energy:             16.3896233

- temperature:       180.0000000
  free_energy:         3.1336831
  entropy:            76.5288884
  heat_capacity:      52.7269356
  energy:             16.9088830

- temperature:       190.0000000
  free_energy:         2.3538762
  entropy:            79.4196578
  heat_capacity:      54.1926226
  energy:             17.4436112

- temperature:       200.0000000
  free_energy:         1.5455465
  entropy:            82.2334804
  heat_capacity:      55.5104065
  energy:             17.9922426

- temperature:       210.0000000
  free_energy:         0.7094608
  entropy:            84.9710451
  heat_capacity:      56.6964455
  energy:             18.5533803

- temperature:       220.0000000
  free_energy:        -0.1536245
  entropy:            87.6336639
  heat_capacity:      57.7654464
  energy:             19.1257816

- temperature:       230.0000000
  free_energy:        -1.0429685
  entropy:            90.2230944
  heat_capacity:      58.7306065
  energy:             19.7083433

- temperature:       240.0000000
  free_energy:        -1.9578493
  entropy:            92.7414004
  heat_capacity:      59.6036593
  energy:             20.3000868

- temperature:       250.0000000
  free_energy:        -2.8975669
  entropy:            95.1908441
  heat_capacity:      60.3949763
  energy:             20.9001441

- temperature:       260.0000000
  free_energy:        -3.8614445
  entropy:            97.5738039
  heat_capacity:      61.1136908
  energy:             21.5077445

- temperature:       270.0000000
  free_energy:        -4.8488295
  entropy:            99.8927122
  heat_capacity:      61.7678299
  energy:             22.1222028

- temperature:       280.0000000
  free_energy:        -5.8590934
  entropy:           102.1500101
  heat_capacity:      62.3644414
  energy:             22.7429094

- temperature:       290.0000000
  free_energy:        -6.8916324
  entropy:           104.3481136
  heat_capacity:      62.9097134
  energy:             23.3693206

- temperature:       300.0000000
  free_energy:        -7.9458663
  entropy:           106.4893900
  heat_capacity:      63.4090813
  energy:             24.0009507

- temperature:       310.0000000
  free_energy:        -9.0212384
  entropy:           108.5761407
  heat_capacity:      63.8673243
  energy:             24.6373652

- temperature:       320.0000000
  free_energy:       -10.1172148
  entropy:           110.6105905
  heat_capacity:      64.2886500
  energy:             25.2781742

- temperature:       330.0000000
  free_energy:       -11.2332831
  entropy:           112.5948806
  heat_capacity:      64.6767681
  energy:             25.9230275

- temperature:       340.0000000
  free_energy:       -12.3689520
  entropy:           114.5310643
  heat_capacity:      65.0349550
  energy:             26.5716098

- temperature:       350.0000000
  free_energy:       -13.5237505
  entropy:           116.4211060
  heat_capacity:      65.3661095
  energy:             27.2236366

- temperature:       360.0000000
  free_energy:       -14.6972266
  entropy:           118.2668809
  heat_capacity:      65.6728013
  energy:             27.8788505

- temperature:       370.0000000
  free_energy:       -15.8889466
  entropy:           120.0701764
  heat_capacity:      65.9573123
  energy:             28.5370187

- temperature:       380.0000000
  free_energy:       -17.0984942
  entropy:           121.8326943
  heat_capacity:      66.2216734
  energy:             29.1979296

- temperature:       390.0000000
  free_energy:       -18.3254699
  entropy:           123.5560538
  heat_capacity:      66.4676951
  energy:             29.8613910

- temperature:       400.0000000
  free_energy:       -19.5694899
  entropy:           125.2417943
  heat_capacity:      66.6969948
  energy:             30.5272278

- temperature:       410.0000000
  free_energy:       -20.8301853
  entropy:           126.8913789
  heat_capacity:      66.9110201
  energy:             31.1952800

- temperature:       420.0000000
  free_energy:       -22.1072016
  entropy:           128.5061982
  heat_capacity:      67.1110693
  energy:             31.8654016

- temperature:       430.0000000
  free_energy:       -23.4001978
  entropy:           130.0875734
  heat_capacity:      67.2983087
  energy:             32.5374587

- temperature:       440.0000000
  free_energy:       -24.7088458
  entropy:           131.6367600
  heat_capacity:      67.4737880
  energy:             33.2113286

- temperature:       450.0000000
  free_energy:       -26.0328297
  entropy:           133.1549515
  heat_capacity:      67.6384540
  energy:             33.8868985

- temperature:       460.0000000
  free_energy:       -27.3718453
  entropy:           134.6432822
  heat_capacity:      67.7931619
  energy:             34.5640645

- temperature:       470.0000000
  free_energy:       -28.7255994
  entropy:           136.1028309
  heat_capacity:      67.9386853
  energy:             35.2427311

- temperature:       480.0000000
  free_energy:       -30.0938094
  entropy:           137.5346236
  heat_capacity:      68.0757258
  energy:             35.9228099

- temperature:       490.0000000
  free_energy:       -31.4762026
  entropy:           138.9396369
  heat_capacity:      68.2049202
  energy:             36.6042195

- temperature:       500.0000000
  free_energy:       -32.8725160
  entropy:           140.3188002
  heat_capacity:      68.3268475
  energy:             37.2868841

- temperature:       510.0000000
  free_energy:       -34.2824954
  entropy:           141.6729988
  heat_capacity:      68.4420352
  energy:             37.9707340

- temperature:       520.0000000
  free_energy:       -35.7058955
  entropy:           143.0030760
  heat_capacity:      68.5509645
  energy:             38.6557040

- temperature:       530.0000000
  free_energy:       -37.1424792
  entropy:           144.3098360
  heat_capacity:      68.6540750
  energy:             39.3417339

- temperature:       540.0000000
  free_energy:       -38.5920171
  entropy:           145.5940454
  heat_capacity:      68.7517688
  energy:             40.0287674

- temperature:       550.0000000
  free_energy:       -40.0542874
  entropy:           146.8564360
  heat_capacity:      68.8444142
  energy:             40.7167524

- temperature:       560.0000000
  free_energy:       -41.5290754
  entropy:           148.0977061
  heat_capacity:      68.9323494
  energy:             41.4056400

- temperature:       570.0000000
  free_energy:       -43.0161733
  entropy:           149.3185229
  heat_capacity:      69.0158849
  energy:             42.0953847

- temperature:       580.0000000
  free_energy:       -44.5153798
  entropy:           150.5195239
  heat_capacity:      69.0953062
  energy:             42.7859440

- temperature:       590.0000000
  free_energy:       -46.0264998
  entropy:           151.7013184
  heat_capacity:      69.1708766
  energy:             43.4772780

- temperature:       600.0000000
  free_energy:       -47.5493441
  entropy:           152.8644894
  heat_capacity:      69.2428384
  energy:             44.1693495

- temperature:       610.0000000
  free_energy:       -49.0837294
  entropy:           154.0095949
  heat_capacity:      69.3114158
  energy:             44.8621235

- temperature:       620.0000000
  free_energy:       -50.6294776
  entropy:           155.1371691
  heat_capacity:      69.3768158
  energy:             45.5555672

- temperature:       630.0000000
  free_energy:       -52.1864160
  entropy:           156.2477237
  heat_capacity:      69.4392300
  energy:             46.2496499

- temperature:       640.0000000
  free_energy:       -53.7543770
  entropy:           157.3417491
  heat_capacity:      69.4988358
  energy:             46.9443425

- temperature:       650.0000000
  free_energy:       -55.3331975
  entropy:           158.4197158
  heat_capacity:      69.5557979
  energy:             47.6396178

- temperature:       660.0000000
  free_energy:       -56.9227193
  entropy:           159.4820748
  heat_capacity:      69.6102690
  energy:             48.3354501

- temperature:       670.0000000
  free_energy:       -58.5227884
  entropy:           160.5292593
  heat_capacity:      69.6623913
  energy:             49.0318153

- temperature:       680.0000000
  free_energy:       -60.1332553
  entropy:           161.5616850
  heat_capacity:      69.7122968
  energy:             49.7286906

- temperature:       690.0000000
  free_energy:       -61.7539742
  entropy:           162.5797515
  heat_capacity:      69.7601086
  energy:             50.4260543

- temperature:       700.0000000
  free_energy:       -63.3848037
  entropy:           163.5838426
  heat_capacity:      69.8059414
  energy:             51.1238861

- temperature:       710.0000000
  free_energy:       -65.0256057
  entropy:           164.5743276
  heat_capacity:      69.8499022
  energy:             51.8221669

- temperature:       720.0000000
  free_energy:       -66.6762461
  entropy:           165.5515616
  heat_capacity:      69.8920908
  energy:             52.5208783

- temperature:       730.0000000
  free_energy:       -68.3365939
  entropy:           166.5158864
  heat_capacity:      69.9326006
  energy:             53.2200031

- temperature:       740.0000000
  free_energy:       -70.0065219
  entropy:           167.4676309
  heat_capacity:      69.9715190
  energy:             53.9195250

- temperature:       750.0000000
  free_energy:       -71.6859057
  entropy:           168.4071122
  heat_capacity:      70.0089278
  energy:             54.6194285

- temperature:       760.0000000
  free_energy:       -73.3746243
  entropy:           169.3346356
  heat_capacity:      70.0449036
  energy:             55.3196988

- temperature:       770.0000000
  free_energy:       -75.0725595
  entropy:           170.2504955
  heat_capacity:      70.0795182
  energy:             56.0203220

- temperature:       780.0000000
  free_energy:       -76.7795962
  entropy:           171.1549757
  heat_capacity:      70.1128390
  energy:             56.7212848

- temperature:       790.0000000
  free_energy:       -78.4956220
  entropy:           172.0483502
  heat_capacity:      70.1449294
  energy:             57.4225747

- temperature:       800.0000000
  free_energy:       -80.2205271
  entropy:           172.9308833
  heat_capacity:      70.1758489
  energy:             58.1241795

- temperature:       810.0000000
  free_energy:       -81.9542044
  entropy:           173.8028300
  heat_capacity:      70.2056535
  energy:             58.8260879

- temperature:       820.0000000
  free_energy:       -83.6965492
  entropy:           174.6644369
  heat_capacity:      70.2343959
  energy:             59.5282890

- temperature:       830.0000000
  free_energy:       -85.4474595
  entropy:           175.5159421
  heat_capacity:      70.2621257
  energy:             60.2307725

- temperature:       840.0000000
  free_energy:       -87.2068352
  entropy:           176.3575756
  heat_capacity:      70.2888897
  energy:             60.9335283

- temperature:       850.0000000
  free_energy:       -88.9745788
  entropy:           177.1895600
  heat_capacity:      70.3147320
  energy:             61.6365472

- temperature:       860.0000000
  free_energy:       -90.7505949
  entropy:           178.0121104
  heat_capacity:      70.3396943
  energy:             62.3398200

- temperature:       870.0000000
  free_energy:       -92.5347903
  entropy:           178.8254351
  heat_capacity:      70.3638159
  energy:             63.0433383

- temperature:       880.0000000
  free_energy:       -94.3270736
  entropy:           179.6297355
  heat_capacity:      70.3871339
  energy:             63.7470937

- temperature:       890.0000000
  free_energy:       -96.1273555
  entropy:           180.4252067
  heat_capacity:      70.4096836
  energy:             64.4510784

- temperature:       900.0000000
  free_energy:       -97.9355489
  entropy:           181.2120375
  heat_capacity:      70.4314981
  energy:             65.1552849

- temperature:       910.0000000
  free_energy:       -99.7515681
  entropy:           181.9904111
  heat_capacity:      70.4526090
  energy:             65.8597060

- temperature:       920.0000000
  free_energy:      -101.5753295
  entropy:           182.7605047
  heat_capacity:      70.4730460
  energy:             66.5643348

- temperature:       930.0000000
  free_energy:      -103.4067512
  entropy:           183.5224903
  heat_capacity:      70.4928375
  energy:             67.2691648

- temperature:       940.0000000
  free_energy:      -105.2457528
  entropy:           184.2765344
  heat_capacity:      70.5120101
  energy:             67.9741895

- temperature:       950.0000000
  free_energy:      -107.0922559
  entropy:           185.0227989
  heat_capacity:      70.5305895
  energy:             68.6794030

- temperature:       960.0000000
  free_energy:      -108.9461834
  entropy:           185.7614404
  heat_capacity:      70.5485996
  energy:             69.3847994

- temperature:       970.0000000
  free_energy:      -110.8074598
  entropy:           186.4926114
  heat_capacity:      70.5660635
  energy:             70.0903732

- temperature:       980.0000000
  free_energy:      -112.6760112
  entropy:           187.2164594
  heat_capacity:      70.5830030
  energy:             70.7961189

- temperature:       990.0000000
  free_energy:      -114.5517651
  entropy:           187.9331279
  heat_capacity:      70.5994386
  energy:             71.5020316

- temperature:      1000.0000000
  free_energy:      -116.4346503
  entropy:           188.6427564
  heat_capacity:      70.6153903
  energy:             72.2081061
