phonopy:
  version: "2.37.1"
  frequency_unit_conversion_factor: 15.633302
  symmetry_tolerance: 1.00000e-05

space_group:
  type: "Cm"
  number: 8
  Hall_symbol: "C -2y"

primitive_matrix:
- [ -1.000000000000000,  0.000000000000000, -0.000000000000000 ]
- [  0.000000000000000, -1.000000000000000, -0.000000000000000 ]
- [  0.000000000000000,  0.000000000000000,  1.000000000000000 ]

supercell_matrix:
- [   3,   0,   0 ]
- [   0,   3,   0 ]
- [   0,   0,   2 ]

primitive_cell:
  lattice:
  - [    -4.982549748969168,     0.000000000000000,     0.000000000000000 ] # a
  - [    -2.982088767953052,    -3.991609429947844,     0.000000000000000 ] # b
  - [     1.035533007695249,     0.518975316338417,     5.770461115806731 ] # c
  points:
  - symbol: Li # 1
    coordinates: [  0.979949452945095,  0.979949519098253,  0.957534333407924 ]
    mass: 6.940000
  - symbol: Li # 2
    coordinates: [  0.297937258375717,  0.297937230624971,  0.597505707692940 ]
    mass: 6.940000
  - symbol: Li # 3
    coordinates: [  0.638852492986494,  0.638852472667566,  0.278328366488362 ]
    mass: 6.940000
  - symbol: Li # 4
    coordinates: [  0.638898031904749,  0.638898025888800,  0.778419064045563 ]
    mass: 6.940000
  - symbol: Sn # 5
    coordinates: [  0.967785272412797,  0.967785286614926,  0.459920031768645 ]
    mass: 118.710000
  - symbol: Sn # 6
    coordinates: [  0.309910824807416,  0.309910798559721,  0.094959163484699 ]
    mass: 118.710000
  reciprocal_lattice: # without 2pi
  - [    -0.200700454663175,     0.149941165857488,     0.022531333089478 ] # a*
  - [    -0.000000000000000,    -0.250525512966600,     0.022531398225098 ] # b*
  - [    -0.000000000000000,    -0.000000000000000,     0.173296376135479 ] # c*

unit_cell:
  lattice:
  - [     4.982549748969168,     0.000000000000000,     0.000000000000000 ] # a
  - [     2.982088767953052,     3.991609429947844,     0.000000000000000 ] # b
  - [     1.035533007695249,     0.518975316338417,     5.770461115806731 ] # c
  points:
  - symbol: Li # 1
    coordinates: [  0.020050547054905,  0.020050480901747,  0.957534333407924 ]
    mass: 6.940000
    reduced_to: 1
  - symbol: Li # 2
    coordinates: [  0.702062741624283,  0.702062769375029,  0.597505707692940 ]
    mass: 6.940000
    reduced_to: 2
  - symbol: Li # 3
    coordinates: [  0.361147507013506,  0.361147527332434,  0.278328366488362 ]
    mass: 6.940000
    reduced_to: 3
  - symbol: Li # 4
    coordinates: [  0.361101968095250,  0.361101974111200,  0.778419064045563 ]
    mass: 6.940000
    reduced_to: 4
  - symbol: Sn # 5
    coordinates: [  0.032214727587203,  0.032214713385074,  0.459920031768645 ]
    mass: 118.710000
    reduced_to: 5
  - symbol: Sn # 6
    coordinates: [  0.690089175192584,  0.690089201440279,  0.094959163484699 ]
    mass: 118.710000
    reduced_to: 6

supercell:
  lattice:
  - [    14.947649246907504,     0.000000000000000,     0.000000000000000 ] # a
  - [     8.946266303859158,    11.974828289843533,     0.000000000000000 ] # b
  - [     2.071066015390498,     1.037950632676834,    11.540922231613463 ] # c
  points:
  - symbol: Li # 1
    coordinates: [  0.006683515684968,  0.006683493633916,  0.478767166703962 ]
    mass: 6.940000
    reduced_to: 1
  - symbol: Li # 2
    coordinates: [  0.340016849018302,  0.006683493633916,  0.478767166703962 ]
    mass: 6.940000
    reduced_to: 1
  - symbol: Li # 3
    coordinates: [  0.673350182351635,  0.006683493633916,  0.478767166703962 ]
    mass: 6.940000
    reduced_to: 1
  - symbol: Li # 4
    coordinates: [  0.006683515684968,  0.340016826967249,  0.478767166703962 ]
    mass: 6.940000
    reduced_to: 1
  - symbol: Li # 5
    coordinates: [  0.340016849018302,  0.340016826967249,  0.478767166703962 ]
    mass: 6.940000
    reduced_to: 1
  - symbol: Li # 6
    coordinates: [  0.673350182351635,  0.340016826967249,  0.478767166703962 ]
    mass: 6.940000
    reduced_to: 1
  - symbol: Li # 7
    coordinates: [  0.006683515684968,  0.673350160300582,  0.478767166703962 ]
    mass: 6.940000
    reduced_to: 1
  - symbol: Li # 8
    coordinates: [  0.340016849018302,  0.673350160300582,  0.478767166703962 ]
    mass: 6.940000
    reduced_to: 1
  - symbol: Li # 9
    coordinates: [  0.673350182351635,  0.673350160300582,  0.478767166703962 ]
    mass: 6.940000
    reduced_to: 1
  - symbol: Li # 10
    coordinates: [  0.006683515684968,  0.006683493633916,  0.978767166703962 ]
    mass: 6.940000
    reduced_to: 1
  - symbol: Li # 11
    coordinates: [  0.340016849018302,  0.006683493633916,  0.978767166703962 ]
    mass: 6.940000
    reduced_to: 1
  - symbol: Li # 12
    coordinates: [  0.673350182351635,  0.006683493633916,  0.978767166703962 ]
    mass: 6.940000
    reduced_to: 1
  - symbol: Li # 13
    coordinates: [  0.006683515684968,  0.340016826967249,  0.978767166703962 ]
    mass: 6.940000
    reduced_to: 1
  - symbol: Li # 14
    coordinates: [  0.340016849018302,  0.340016826967249,  0.978767166703962 ]
    mass: 6.940000
    reduced_to: 1
  - symbol: Li # 15
    coordinates: [  0.673350182351635,  0.340016826967249,  0.978767166703962 ]
    mass: 6.940000
    reduced_to: 1
  - symbol: Li # 16
    coordinates: [  0.006683515684968,  0.673350160300582,  0.978767166703962 ]
    mass: 6.940000
    reduced_to: 1
  - symbol: Li # 17
    coordinates: [  0.340016849018302,  0.673350160300582,  0.978767166703962 ]
    mass: 6.940000
    reduced_to: 1
  - symbol: Li # 18
    coordinates: [  0.673350182351635,  0.673350160300582,  0.978767166703962 ]
    mass: 6.940000
    reduced_to: 1
  - symbol: Li # 19
    coordinates: [  0.234020913874761,  0.234020923125010,  0.298752853846470 ]
    mass: 6.940000
    reduced_to: 19
  - symbol: Li # 20
    coordinates: [  0.567354247208094,  0.234020923125010,  0.298752853846470 ]
    mass: 6.940000
    reduced_to: 19
  - symbol: Li # 21
    coordinates: [  0.900687580541428,  0.234020923125010,  0.298752853846470 ]
    mass: 6.940000
    reduced_to: 19
  - symbol: Li # 22
    coordinates: [  0.234020913874761,  0.567354256458343,  0.298752853846470 ]
    mass: 6.940000
    reduced_to: 19
  - symbol: Li # 23
    coordinates: [  0.567354247208094,  0.567354256458343,  0.298752853846470 ]
    mass: 6.940000
    reduced_to: 19
  - symbol: Li # 24
    coordinates: [  0.900687580541428,  0.567354256458343,  0.298752853846470 ]
    mass: 6.940000
    reduced_to: 19
  - symbol: Li # 25
    coordinates: [  0.234020913874761,  0.900687589791676,  0.298752853846470 ]
    mass: 6.940000
    reduced_to: 19
  - symbol: Li # 26
    coordinates: [  0.567354247208094,  0.900687589791676,  0.298752853846470 ]
    mass: 6.940000
    reduced_to: 19
  - symbol: Li # 27
    coordinates: [  0.900687580541428,  0.900687589791676,  0.298752853846470 ]
    mass: 6.940000
    reduced_to: 19
  - symbol: Li # 28
    coordinates: [  0.234020913874761,  0.234020923125010,  0.798752853846470 ]
    mass: 6.940000
    reduced_to: 19
  - symbol: Li # 29
    coordinates: [  0.567354247208094,  0.234020923125010,  0.798752853846470 ]
    mass: 6.940000
    reduced_to: 19
  - symbol: Li # 30
    coordinates: [  0.900687580541428,  0.234020923125010,  0.798752853846470 ]
    mass: 6.940000
    reduced_to: 19
  - symbol: Li # 31
    coordinates: [  0.234020913874761,  0.567354256458343,  0.798752853846470 ]
    mass: 6.940000
    reduced_to: 19
  - symbol: Li # 32
    coordinates: [  0.567354247208094,  0.567354256458343,  0.798752853846470 ]
    mass: 6.940000
    reduced_to: 19
  - symbol: Li # 33
    coordinates: [  0.900687580541428,  0.567354256458343,  0.798752853846470 ]
    mass: 6.940000
    reduced_to: 19
  - symbol: Li # 34
    coordinates: [  0.234020913874761,  0.900687589791676,  0.798752853846470 ]
    mass: 6.940000
    reduced_to: 19
  - symbol: Li # 35
    coordinates: [  0.567354247208094,  0.900687589791676,  0.798752853846470 ]
    mass: 6.940000
    reduced_to: 19
  - symbol: Li # 36
    coordinates: [  0.900687580541428,  0.900687589791676,  0.798752853846470 ]
    mass: 6.940000
    reduced_to: 19
  - symbol: Li # 37
    coordinates: [  0.120382502337835,  0.120382509110811,  0.139164183244181 ]
    mass: 6.940000
    reduced_to: 37
  - symbol: Li # 38
    coordinates: [  0.453715835671169,  0.120382509110811,  0.139164183244181 ]
    mass: 6.940000
    reduced_to: 37
  - symbol: Li # 39
    coordinates: [  0.787049169004502,  0.120382509110811,  0.139164183244181 ]
    mass: 6.940000
    reduced_to: 37
  - symbol: Li # 40
    coordinates: [  0.120382502337835,  0.453715842444145,  0.139164183244181 ]
    mass: 6.940000
    reduced_to: 37
  - symbol: Li # 41
    coordinates: [  0.453715835671169,  0.453715842444145,  0.139164183244181 ]
    mass: 6.940000
    reduced_to: 37
  - symbol: Li # 42
    coordinates: [  0.787049169004502,  0.453715842444145,  0.139164183244181 ]
    mass: 6.940000
    reduced_to: 37
  - symbol: Li # 43
    coordinates: [  0.120382502337835,  0.787049175777478,  0.139164183244181 ]
    mass: 6.940000
    reduced_to: 37
  - symbol: Li # 44
    coordinates: [  0.453715835671169,  0.787049175777478,  0.139164183244181 ]
    mass: 6.940000
    reduced_to: 37
  - symbol: Li # 45
    coordinates: [  0.787049169004502,  0.787049175777478,  0.139164183244181 ]
    mass: 6.940000
    reduced_to: 37
  - symbol: Li # 46
    coordinates: [  0.120382502337835,  0.120382509110811,  0.639164183244181 ]
    mass: 6.940000
    reduced_to: 37
  - symbol: Li # 47
    coordinates: [  0.453715835671169,  0.120382509110811,  0.639164183244181 ]
    mass: 6.940000
    reduced_to: 37
  - symbol: Li # 48
    coordinates: [  0.787049169004502,  0.120382509110811,  0.639164183244181 ]
    mass: 6.940000
    reduced_to: 37
  - symbol: Li # 49
    coordinates: [  0.120382502337835,  0.453715842444145,  0.639164183244181 ]
    mass: 6.940000
    reduced_to: 37
  - symbol: Li # 50
    coordinates: [  0.453715835671169,  0.453715842444145,  0.639164183244181 ]
    mass: 6.940000
    reduced_to: 37
  - symbol: Li # 51
    coordinates: [  0.787049169004502,  0.453715842444145,  0.639164183244181 ]
    mass: 6.940000
    reduced_to: 37
  - symbol: Li # 52
    coordinates: [  0.120382502337835,  0.787049175777478,  0.639164183244181 ]
    mass: 6.940000
    reduced_to: 37
  - symbol: Li # 53
    coordinates: [  0.453715835671169,  0.787049175777478,  0.639164183244181 ]
    mass: 6.940000
    reduced_to: 37
  - symbol: Li # 54
    coordinates: [  0.787049169004502,  0.787049175777478,  0.639164183244181 ]
    mass: 6.940000
    reduced_to: 37
  - symbol: Li # 55
    coordinates: [  0.120367322698417,  0.120367324703733,  0.389209532022781 ]
    mass: 6.940000
    reduced_to: 55
  - symbol: Li # 56
    coordinates: [  0.453700656031750,  0.120367324703733,  0.389209532022781 ]
    mass: 6.940000
    reduced_to: 55
  - symbol: Li # 57
    coordinates: [  0.787033989365083,  0.120367324703733,  0.389209532022781 ]
    mass: 6.940000
    reduced_to: 55
  - symbol: Li # 58
    coordinates: [  0.120367322698417,  0.453700658037067,  0.389209532022781 ]
    mass: 6.940000
    reduced_to: 55
  - symbol: Li # 59
    coordinates: [  0.453700656031750,  0.453700658037067,  0.389209532022781 ]
    mass: 6.940000
    reduced_to: 55
  - symbol: Li # 60
    coordinates: [  0.787033989365083,  0.453700658037067,  0.389209532022781 ]
    mass: 6.940000
    reduced_to: 55
  - symbol: Li # 61
    coordinates: [  0.120367322698417,  0.787033991370400,  0.389209532022781 ]
    mass: 6.940000
    reduced_to: 55
  - symbol: Li # 62
    coordinates: [  0.453700656031750,  0.787033991370400,  0.389209532022781 ]
    mass: 6.940000
    reduced_to: 55
  - symbol: Li # 63
    coordinates: [  0.787033989365083,  0.787033991370400,  0.389209532022781 ]
    mass: 6.940000
    reduced_to: 55
  - symbol: Li # 64
    coordinates: [  0.120367322698417,  0.120367324703733,  0.889209532022782 ]
    mass: 6.940000
    reduced_to: 55
  - symbol: Li # 65
    coordinates: [  0.453700656031750,  0.120367324703733,  0.889209532022782 ]
    mass: 6.940000
    reduced_to: 55
  - symbol: Li # 66
    coordinates: [  0.787033989365083,  0.120367324703733,  0.889209532022782 ]
    mass: 6.940000
    reduced_to: 55
  - symbol: Li # 67
    coordinates: [  0.120367322698417,  0.453700658037067,  0.889209532022782 ]
    mass: 6.940000
    reduced_to: 55
  - symbol: Li # 68
    coordinates: [  0.453700656031750,  0.453700658037067,  0.889209532022782 ]
    mass: 6.940000
    reduced_to: 55
  - symbol: Li # 69
    coordinates: [  0.787033989365083,  0.453700658037067,  0.889209532022782 ]
    mass: 6.940000
    reduced_to: 55
  - symbol: Li # 70
    coordinates: [  0.120367322698417,  0.787033991370400,  0.889209532022782 ]
    mass: 6.940000
    reduced_to: 55
  - symbol: Li # 71
    coordinates: [  0.453700656031750,  0.787033991370400,  0.889209532022782 ]
    mass: 6.940000
    reduced_to: 55
  - symbol: Li # 72
    coordinates: [  0.787033989365083,  0.787033991370400,  0.889209532022782 ]
    mass: 6.940000
    reduced_to: 55
  - symbol: Sn # 73
    coordinates: [  0.010738242529068,  0.010738237795025,  0.229960015884322 ]
    mass: 118.710000
    reduced_to: 73
  - symbol: Sn # 74
    coordinates: [  0.344071575862401,  0.010738237795025,  0.229960015884322 ]
    mass: 118.710000
    reduced_to: 73
  - symbol: Sn # 75
    coordinates: [  0.677404909195734,  0.010738237795025,  0.229960015884322 ]
    mass: 118.710000
    reduced_to: 73
  - symbol: Sn # 76
    coordinates: [  0.010738242529068,  0.344071571128358,  0.229960015884322 ]
    mass: 118.710000
    reduced_to: 73
  - symbol: Sn # 77
    coordinates: [  0.344071575862401,  0.344071571128358,  0.229960015884322 ]
    mass: 118.710000
    reduced_to: 73
  - symbol: Sn # 78
    coordinates: [  0.677404909195734,  0.344071571128358,  0.229960015884322 ]
    mass: 118.710000
    reduced_to: 73
  - symbol: Sn # 79
    coordinates: [  0.010738242529068,  0.677404904461691,  0.229960015884322 ]
    mass: 118.710000
    reduced_to: 73
  - symbol: Sn # 80
    coordinates: [  0.344071575862401,  0.677404904461691,  0.229960015884322 ]
    mass: 118.710000
    reduced_to: 73
  - symbol: Sn # 81
    coordinates: [  0.677404909195734,  0.677404904461691,  0.229960015884322 ]
    mass: 118.710000
    reduced_to: 73
  - symbol: Sn # 82
    coordinates: [  0.010738242529068,  0.010738237795025,  0.729960015884322 ]
    mass: 118.710000
    reduced_to: 73
  - symbol: Sn # 83
    coordinates: [  0.344071575862401,  0.010738237795025,  0.729960015884322 ]
    mass: 118.710000
    reduced_to: 73
  - symbol: Sn # 84
    coordinates: [  0.677404909195734,  0.010738237795025,  0.729960015884322 ]
    mass: 118.710000
    reduced_to: 73
  - symbol: Sn # 85
    coordinates: [  0.010738242529068,  0.344071571128358,  0.729960015884322 ]
    mass: 118.710000
    reduced_to: 73
  - symbol: Sn # 86
    coordinates: [  0.344071575862401,  0.344071571128358,  0.729960015884322 ]
    mass: 118.710000
    reduced_to: 73
  - symbol: Sn # 87
    coordinates: [  0.677404909195734,  0.344071571128358,  0.729960015884322 ]
    mass: 118.710000
    reduced_to: 73
  - symbol: Sn # 88
    coordinates: [  0.010738242529068,  0.677404904461691,  0.729960015884322 ]
    mass: 118.710000
    reduced_to: 73
  - symbol: Sn # 89
    coordinates: [  0.344071575862401,  0.677404904461691,  0.729960015884322 ]
    mass: 118.710000
    reduced_to: 73
  - symbol: Sn # 90
    coordinates: [  0.677404909195734,  0.677404904461691,  0.729960015884322 ]
    mass: 118.710000
    reduced_to: 73
  - symbol: Sn # 91
    coordinates: [  0.230029725064195,  0.230029733813426,  0.047479581742350 ]
    mass: 118.710000
    reduced_to: 91
  - symbol: Sn # 92
    coordinates: [  0.563363058397528,  0.230029733813426,  0.047479581742350 ]
    mass: 118.710000
    reduced_to: 91
  - symbol: Sn # 93
    coordinates: [  0.896696391730861,  0.230029733813426,  0.047479581742350 ]
    mass: 118.710000
    reduced_to: 91
  - symbol: Sn # 94
    coordinates: [  0.230029725064195,  0.563363067146760,  0.047479581742350 ]
    mass: 118.710000
    reduced_to: 91
  - symbol: Sn # 95
    coordinates: [  0.563363058397528,  0.563363067146760,  0.047479581742350 ]
    mass: 118.710000
    reduced_to: 91
  - symbol: Sn # 96
    coordinates: [  0.896696391730861,  0.563363067146760,  0.047479581742350 ]
    mass: 118.710000
    reduced_to: 91
  - symbol: Sn # 97
    coordinates: [  0.230029725064195,  0.896696400480093,  0.047479581742350 ]
    mass: 118.710000
    reduced_to: 91
  - symbol: Sn # 98
    coordinates: [  0.563363058397528,  0.896696400480093,  0.047479581742350 ]
    mass: 118.710000
    reduced_to: 91
  - symbol: Sn # 99
    coordinates: [  0.896696391730861,  0.896696400480093,  0.047479581742350 ]
    mass: 118.710000
    reduced_to: 91
  - symbol: Sn # 100
    coordinates: [  0.230029725064195,  0.230029733813426,  0.547479581742350 ]
    mass: 118.710000
    reduced_to: 91
  - symbol: Sn # 101
    coordinates: [  0.563363058397528,  0.230029733813426,  0.547479581742350 ]
    mass: 118.710000
    reduced_to: 91
  - symbol: Sn # 102
    coordinates: [  0.896696391730861,  0.230029733813426,  0.547479581742350 ]
    mass: 118.710000
    reduced_to: 91
  - symbol: Sn # 103
    coordinates: [  0.230029725064195,  0.563363067146760,  0.547479581742350 ]
    mass: 118.710000
    reduced_to: 91
  - symbol: Sn # 104
    coordinates: [  0.563363058397528,  0.563363067146760,  0.547479581742350 ]
    mass: 118.710000
    reduced_to: 91
  - symbol: Sn # 105
    coordinates: [  0.896696391730861,  0.563363067146760,  0.547479581742350 ]
    mass: 118.710000
    reduced_to: 91
  - symbol: Sn # 106
    coordinates: [  0.230029725064195,  0.896696400480093,  0.547479581742350 ]
    mass: 118.710000
    reduced_to: 91
  - symbol: Sn # 107
    coordinates: [  0.563363058397528,  0.896696400480093,  0.547479581742350 ]
    mass: 118.710000
    reduced_to: 91
  - symbol: Sn # 108
    coordinates: [  0.896696391730861,  0.896696400480093,  0.547479581742350 ]
    mass: 118.710000
    reduced_to: 91

displacements:
- atom:    1
  displacement:
    [   0.0100000000000000,  0.0000000000000000,  0.0000000000000000 ]
  forces:
  - [  -0.0220738165080547, -0.0000543799251318,  0.0085491668432951 ]
  - [   0.0011382699012756,  0.0004773475229740,  0.0110061988234520 ]
  - [   0.0011534877121449,  0.0007103420794010,  0.0107224415987730 ]
  - [   0.0012434236705303,  0.0006332583725452,  0.0108615141361952 ]
  - [   0.0011398643255234,  0.0005764141678810,  0.0108879245817661 ]
  - [   0.0011706240475178,  0.0009592864662409,  0.0109883183613420 ]
  - [   0.0012485235929489,  0.0004067495465279,  0.0106947030872107 ]
  - [   0.0011732093989849,  0.0002961140125990,  0.0110066682100296 ]
  - [   0.0011432841420174,  0.0005776640027761,  0.0109026711434126 ]
  - [   0.0010899193584919,  0.0005189124494791,  0.0105070844292641 ]
  - [   0.0011440254747868,  0.0005622860044241,  0.0108575560152531 ]
  - [   0.0011444054543972,  0.0006076171994209,  0.0109090618789196 ]
  - [   0.0011648647487164,  0.0005927458405495,  0.0108716655522585 ]
  - [   0.0011584945023060,  0.0005821455270052,  0.0108945202082396 ]
  - [   0.0011749751865864,  0.0005834456533194,  0.0109321316704154 ]
  - [   0.0011647157371044,  0.0005488973110914,  0.0108875380828977 ]
  - [   0.0011756941676140,  0.0006095767021179,  0.0109007060527802 ]
  - [   0.0011575520038605,  0.0005818046629429,  0.0108971111476421 ]
  - [   0.0018373839557171,  0.0009363647550344, -0.0084729474037886 ]
  - [   0.0018825344741344,  0.0009896233677864, -0.0085652684792876 ]
  - [   0.0024495720863342,  0.0010581426322460, -0.0083614625036716 ]
  - [   0.0019173026084900,  0.0009650923311710, -0.0085414517670870 ]
  - [   0.0019795782864094,  0.0009744577109814, -0.0085003953427076 ]
  - [   0.0019703917205334,  0.0009863153100014, -0.0085141975432634 ]
  - [   0.0025343857705593,  0.0010031517595053, -0.0091066164895892 ]
  - [   0.0019692182540894,  0.0009862259030342, -0.0085133621469140 ]
  - [   0.0013691373169422,  0.0005906894803047, -0.0088733583688736 ]
  - [   0.0019951649010181,  0.0009947866201401, -0.0084948744624853 ]
  - [   0.0017761066555977,  0.0011027809232473, -0.0083666946738958 ]
  - [   0.0019716992974281,  0.0009258296340704, -0.0084954425692558 ]
  - [   0.0019362904131413,  0.0009823050349951, -0.0085001625120640 ]
  - [   0.0020005181431770,  0.0010129269212484, -0.0085187181830406 ]
  - [   0.0019665360450745,  0.0009532012045383, -0.0084935743361712 ]
  - [   0.0021776445209980,  0.0007738508284092, -0.0086383949965239 ]
  - [   0.0019132308661938,  0.0009972434490919, -0.0084856934845448 ]
  - [   0.0020712465047836,  0.0009995624423027, -0.0085015613585711 ]
  - [  -0.0001191770497826, -0.0000635717151454, -0.0032988851889968 ]
  - [  -0.0000790201011114, -0.0000394089183828, -0.0035427566617727 ]
  - [   0.0000056909630075, -0.0001070309517672, -0.0034283613786101 ]
  - [  -0.0000843945890665, -0.0000426433980465, -0.0035398267209530 ]
  - [  -0.0000810716301203, -0.0000451039522886, -0.0035329405218363 ]
  - [  -0.0001051258295774, -0.0000406866893172, -0.0035265018232167 ]
  - [  -0.0000914651900530,  0.0000532083213329, -0.0034851660020649 ]
  - [  -0.0001808982342482,  0.0000232253223658, -0.0034667388536036 ]
  - [  -0.0000614542514086, -0.0000312784686685, -0.0035281041637063 ]
  - [  -0.0007333650719374, -0.0002986973559018, -0.0040844148024917 ]
  - [  -0.0001063077506842, -0.0000203793933906, -0.0035301977768540 ]
  - [   0.0012767821317539, -0.0010382200125605, -0.0045026526786387 ]
  - [  -0.0000886861234903, -0.0000803284347057, -0.0035206796601415 ]
  - [  -0.0000800974667072, -0.0000591399148107, -0.0035484479740262 ]
  - [  -0.0001605302095413, -0.0001652687788010, -0.0035833693109453 ]
  - [  -0.0001424197107553,  0.0001367852091789, -0.0035502295941114 ]
  - [  -0.0011994000524282,  0.0004527270793915, -0.0039345859549940 ]
  - [  -0.0011706352233887, -0.0005703885108232, -0.0030847182497382 ]
  - [   0.0018453275552019,  0.0008220577728935, -0.0052662072703242 ]
  - [  -0.0007400328759104, -0.0003519823076203, -0.0044209137558937 ]
  - [   0.0023759871255606, -0.0019657416269183, -0.0030103642493486 ]
  - [  -0.0007135411724448, -0.0003785986918956, -0.0044266311451793 ]
  - [  -0.0007100738584995, -0.0003634910099208, -0.0044257566332817 ]
  - [  -0.0007628346793354, -0.0002415161579847, -0.0044335555285215 ]
  - [  -0.0008700601756573,  0.0002282420173287, -0.0041731270030141 ]
  - [  -0.0003674700856209, -0.0005644317716360, -0.0043596960604191 ]
  - [  -0.0007005073130131, -0.0003495123237371, -0.0044294148683548 ]
  - [  -0.0007102421950549, -0.0003829370252788, -0.0044366461224854 ]
  - [  -0.0006543071358465, -0.0004151107568759, -0.0044733555987477 ]
  - [  -0.0007561361999251, -0.0003399696433917, -0.0043398942798376 ]
  - [  -0.0007137646898627, -0.0002606840571389, -0.0044796811416745 ]
  - [  -0.0007449536351487, -0.0004186542937532, -0.0043440144509077 ]
  - [  -0.0007131661986932, -0.0003804147709161, -0.0044037746265531 ]
  - [  -0.0007288500200957, -0.0003610706189647, -0.0043662572279572 ]
  - [  -0.0007458959007636, -0.0003237722557969, -0.0044111576862633 ]
  - [  -0.0007287962362170, -0.0003773417556658, -0.0043780673295259 ]
  - [   0.0421147421002388,  0.0207299310714006,  0.0007128585129976 ]
  - [   0.0418836101889610,  0.0209515951573849, -0.0010320562869310 ]
  - [   0.0417135059833527,  0.0209061801433563, -0.0009476765990257 ]
  - [   0.0418622605502605,  0.0209460146725178, -0.0008992385119200 ]
  - [   0.0418085120618343,  0.0209480877965689, -0.0009038373827934 ]
  - [   0.0418461076915264,  0.0209961272776127, -0.0009051337838173 ]
  - [   0.0418071374297142,  0.0209564380347729, -0.0008786302059889 ]
  - [   0.0418694317340851,  0.0209886804223061, -0.0010245908051729 ]
  - [   0.0417926460504532,  0.0209447517991066, -0.0009154938161373 ]
  - [   0.0413185693323612,  0.0210414491593838,  0.0018852297216654 ]
  - [   0.0419445000588894,  0.0210395380854607, -0.0008163973689079 ]
  - [   0.0420089811086655,  0.0207307767122984, -0.0010844487696886 ]
  - [   0.0418076068162918,  0.0209630541503429, -0.0008963532745838 ]
  - [   0.0417664647102356,  0.0209770873188972, -0.0008386131376028 ]
  - [   0.0418701991438866,  0.0207475814968348, -0.0009928401559591 ]
  - [   0.0417769439518452,  0.0210253931581974, -0.0010410360991955 ]
  - [   0.0415510311722755,  0.0211010333150625, -0.0009393207728863 ]
  - [   0.0418900288641453,  0.0209641344845295, -0.0008984673768282 ]
  - [  -0.0441282391548157, -0.0221307110041380,  0.0065098982304335 ]
  - [  -0.0441536270081997, -0.0221088510006666,  0.0064755845814943 ]
  - [  -0.0441107116639614, -0.0222350768744946,  0.0065200403332710 ]
  - [  -0.0441098697483540, -0.0221186764538288,  0.0064581241458654 ]
  - [  -0.0441427528858185, -0.0220800526440144,  0.0064413640648127 ]
  - [  -0.0441530793905258, -0.0221700575202703,  0.0065391883254051 ]
  - [  -0.0440746769309044, -0.0221898555755615,  0.0063889753073454 ]
  - [  -0.0441976115107536, -0.0220914669334888,  0.0065551623702049 ]
  - [  -0.0440900363028049, -0.0221025720238686,  0.0064921565353870 ]
  - [  -0.0441769063472748, -0.0221509505063295,  0.0064194817095995 ]
  - [  -0.0440854579210281, -0.0221170485019684,  0.0064013730734587 ]
  - [  -0.0436770245432854, -0.0198408737778664,  0.0064784102141857 ]
  - [  -0.0441605076193810, -0.0220822747796774,  0.0065075457096100 ]
  - [  -0.0441255196928978, -0.0221892595291138,  0.0063753519207239 ]
  - [  -0.0441410578787327, -0.0220699179917574,  0.0064601376652718 ]
  - [  -0.0353197529911995, -0.0259455405175686,  0.0083156302571297 ]
  - [  -0.0440654456615448, -0.0221244692802429,  0.0064581464976072 ]
  - [  -0.0348085165023804, -0.0178518313914537,  0.0045536961406469 ]
- atom:    1
  displacement:
    [  -0.0100000000000000,  0.0000000000000000,  0.0000000000000000 ]
  forces:
  - [   0.0244688764214516,  0.0015029348433018,  0.0130723472684622 ]
  - [   0.0011740773916245,  0.0006903465837240,  0.0107759861275554 ]
  - [   0.0011891163885593,  0.0004573017358780,  0.0110641475766897 ]
  - [   0.0010797567665577,  0.0005289260298014,  0.0109227495267987 ]
  - [   0.0011847205460072,  0.0005886834114790,  0.0108958594501019 ]
  - [   0.0011547021567822,  0.0002031810581684,  0.0107972882688046 ]
  - [   0.0010849535465240,  0.0007685888558626,  0.0110910236835480 ]
  - [   0.0011571086943150,  0.0008728317916393,  0.0107817752286792 ]
  - [   0.0011881813406944,  0.0005899053066969,  0.0108848195523024 ]
  - [   0.0012353435158730,  0.0006479937583208,  0.0112762320786715 ]
  - [   0.0011817589402199,  0.0006006099283695,  0.0109279612079263 ]
  - [   0.0011822022497654,  0.0005572829395533,  0.0108773093670607 ]
  - [   0.0011610463261604,  0.0005735736340284,  0.0109137780964375 ]
  - [   0.0011652074754238,  0.0005830936133862,  0.0108892265707254 ]
  - [   0.0011493712663651,  0.0005815140902996,  0.0108524383977056 ]
  - [   0.0011609718203545,  0.0006185118108988,  0.0108974725008011 ]
  - [   0.0011502429842949,  0.0005550123751163,  0.0108850179240108 ]
  - [   0.0011642538011074,  0.0005828719586134,  0.0108903106302023 ]
  - [   0.0021061897277832,  0.0010416787117720, -0.0085516571998596 ]
  - [   0.0020521245896816,  0.0009891763329506, -0.0084583396092057 ]
  - [   0.0014908984303474,  0.0009044539183378, -0.0086501976475120 ]
  - [   0.0020243078470230,  0.0010096635669470, -0.0084809586405754 ]
  - [   0.0019618496298790,  0.0010019596666098, -0.0085237817838788 ]
  - [   0.0019771084189415,  0.0009882543236017, -0.0085090622305870 ]
  - [   0.0014253035187721,  0.0009644329547882, -0.0079221297055483 ]
  - [   0.0019714534282684,  0.0009910948574543, -0.0085080275312066 ]
  - [   0.0025614313781261,  0.0013831891119480, -0.0081461863592267 ]
  - [   0.0019460916519165,  0.0009816680103540, -0.0085298474878073 ]
  - [   0.0021619312465191,  0.0008734706789255, -0.0086546391248703 ]
  - [   0.0019646435976028,  0.0010485947132111, -0.0085244607180357 ]
  - [   0.0020024925470352,  0.0009904485195875, -0.0085230451077223 ]
  - [   0.0019378699362278,  0.0009605586528778, -0.0085063669830561 ]
  - [   0.0019725039601326,  0.0010196454823017, -0.0085319411009550 ]
  - [   0.0017628781497478,  0.0012017376720905, -0.0083927344530821 ]
  - [   0.0020296089351177,  0.0009805224835873, -0.0085389968007803 ]
  - [   0.0018716268241405,  0.0009758062660694, -0.0085288137197495 ]
  - [  -0.0000480920862174, -0.0000222384951485, -0.0037693418562412 ]
  - [  -0.0000892713505891, -0.0000457070818811, -0.0035284901969135 ]
  - [  -0.0001736259873724,  0.0000222833768930, -0.0036427685990930 ]
  - [  -0.0000972636044025, -0.0000470345839858, -0.0035285688936710 ]
  - [  -0.0000849906355143, -0.0000371532514691, -0.0035370504483581 ]
  - [  -0.0000669732689857, -0.0000409670174122, -0.0035450458526611 ]
  - [  -0.0000754073262215, -0.0001412704586983, -0.0035840137861669 ]
  - [   0.0000130794942379, -0.0001076916232705, -0.0036033899523318 ]
  - [  -0.0001034494489431, -0.0000532846897840, -0.0035440465435386 ]
  - [   0.0005697687156498,  0.0002096366370097, -0.0029883626848459 ]
  - [  -0.0000630474532954, -0.0000647986307740, -0.0035397713072598 ]
  - [  -0.0014595121610910,  0.0009623506921344, -0.0025522122159600 ]
  - [  -0.0000920612365007, -0.0000106887891889, -0.0035464474931359 ]
  - [  -0.0000846162438393, -0.0000231377780437, -0.0035226373001933 ]
  - [  -0.0000047367066145,  0.0000874586403370, -0.0034852772951126 ]
  - [  -0.0000229161232710, -0.0002200426533818, -0.0035200370475650 ]
  - [   0.0010437685996294, -0.0005438616499305, -0.0031283837743104 ]
  - [   0.0009830258786678,  0.0004794513806701, -0.0039779604412615 ]
  - [  -0.0032419464550912, -0.0015184977091849, -0.0035866675898433 ]
  - [  -0.0006934882258065, -0.0003660944639705, -0.0044149691238999 ]