phonopy:
  version: "2.37.1"
  frequency_unit_conversion_factor: 15.633302
  symmetry_tolerance: 1.00000e-05

space_group:
  type: "P1"
  number: 1
  Hall_symbol: "P 1"

primitive_matrix:
- [ -1.000000000000000,  0.000000000000000, -0.000000000000000 ]
- [  0.000000000000000, -1.000000000000000,  0.000000000000000 ]
- [  0.000000000000000,  0.000000000000000,  1.000000000000000 ]

supercell_matrix:
- [   3,   0,   0 ]
- [   0,   2,   0 ]
- [   0,   0,   1 ]

primitive_cell:
  lattice:
  - [    -4.576396279834046,     0.000000000000000,     0.000000000000000 ] # a
  - [     2.282347231277316,    -4.900925576153153,     0.000000000000000 ] # b
  - [     0.003462539169114,     1.242938607441430,    11.720909923735446 ] # c
  points:
  - symbol: Li # 1
    coordinates: [  0.838363898963817,  0.638223726179137,  0.473313858985832 ]
    mass: 6.940000
  - symbol: Li # 2
    coordinates: [  0.048449192254168,  0.061848474872969,  0.666756562836751 ]
    mass: 6.940000
  - symbol: Li # 3
    coordinates: [  0.497416390933182,  0.953656518417302,  0.789879810438785 ]
    mass: 6.940000
  - symbol: Li # 4
    coordinates: [  0.648867467690967,  0.262186571755232,  0.269664563442389 ]
    mass: 6.940000
  - symbol: Li # 5
    coordinates: [  0.904667579396413,  0.766142314917631,  0.187138674419660 ]
    mass: 6.940000
  - symbol: Li # 6
    coordinates: [  0.245498951272229,  0.450650699042210,  0.870596192604826 ]
    mass: 6.940000
  - symbol: Li # 7
    coordinates: [  0.094300309301761,  0.142187716195435,  0.390793951324729 ]
    mass: 6.940000
  - symbol: Li # 8
    coordinates: [  0.442582306361827,  0.837911331631291,  0.076087269224945 ]
    mass: 6.940000
  - symbol: Li # 9
    coordinates: [  0.694519476263674,  0.342462704540324,  0.993711046237254 ]
    mass: 6.940000
  - symbol: Li # 10
    coordinates: [  0.300388550794563,  0.566417567586579,  0.584381500757091 ]
    mass: 6.940000
  - symbol: Ga # 11
    coordinates: [  0.172987093416827,  0.304627844289217,  0.133435216741751 ]
    mass: 69.723000
  - symbol: Ga # 12
    coordinates: [  0.570087243766385,  0.099715597111098,  0.527036196144679 ]
    mass: 69.723000
  - symbol: Sn # 13
    coordinates: [  0.371515331116440,  0.702176708965389,  0.330234020616599 ]
    mass: 118.710000
  - symbol: Sn # 14
    coordinates: [  0.766313889935557,  0.497092026483578,  0.722136124352031 ]
    mass: 118.710000
  - symbol: Sn # 15
    coordinates: [  0.976645567934266,  0.907226873885901,  0.938322704996036 ]
    mass: 118.710000
  reciprocal_lattice: # without 2pi
  - [    -0.218512545429362,    -0.101760676694773,     0.010855717078170 ] # a*
  - [    -0.000000000000000,    -0.204043090322731,     0.021637657502188 ] # b*
  - [    -0.000000000000000,    -0.000000000000000,     0.085317608147039 ] # c*

unit_cell:
  lattice:
  - [     4.576396279834045,     0.000000000000000,     0.000000000000000 ] # a
  - [    -2.282347231277315,     4.900925576153152,     0.000000000000000 ] # b
  - [     0.003462539169114,     1.242938607441430,    11.720909923735444 ] # c
  points:
  - symbol: Li # 1
    coordinates: [  0.161636101036183,  0.361776273820863,  0.473313858985832 ]
    mass: 6.940000
    reduced_to: 1
  - symbol: Li # 2
    coordinates: [  0.951550807745833,  0.938151525127031,  0.666756562836751 ]
    mass: 6.940000
    reduced_to: 2
  - symbol: Li # 3
    coordinates: [  0.502583609066819,  0.046343481582698,  0.789879810438785 ]
    mass: 6.940000
    reduced_to: 3
  - symbol: Li # 4
    coordinates: [  0.351132532309033,  0.737813428244768,  0.269664563442389 ]
    mass: 6.940000
    reduced_to: 4
  - symbol: Li # 5
    coordinates: [  0.095332420603587,  0.233857685082369,  0.187138674419660 ]
    mass: 6.940000
    reduced_to: 5
  - symbol: Li # 6
    coordinates: [  0.754501048727771,  0.549349300957791,  0.870596192604826 ]
    mass: 6.940000
    reduced_to: 6
  - symbol: Li # 7
    coordinates: [  0.905699690698239,  0.857812283804566,  0.390793951324729 ]
    mass: 6.940000
    reduced_to: 7
  - symbol: Li # 8
    coordinates: [  0.557417693638173,  0.162088668368709,  0.076087269224945 ]
    mass: 6.940000
    reduced_to: 8
  - symbol: Li # 9
    coordinates: [  0.305480523736326,  0.657537295459676,  0.993711046237254 ]
    mass: 6.940000
    reduced_to: 9
  - symbol: Li # 10
    coordinates: [  0.699611449205437,  0.433582432413421,  0.584381500757091 ]
    mass: 6.940000
    reduced_to: 10
  - symbol: Ga # 11
    coordinates: [  0.827012906583173,  0.695372155710783,  0.133435216741751 ]
    mass: 69.723000
    reduced_to: 11
  - symbol: Ga # 12
    coordinates: [  0.429912756233615,  0.900284402888902,  0.527036196144679 ]
    mass: 69.723000
    reduced_to: 12
  - symbol: Sn # 13
    coordinates: [  0.628484668883560,  0.297823291034611,  0.330234020616599 ]
    mass: 118.710000
    reduced_to: 13
  - symbol: Sn # 14
    coordinates: [  0.233686110064443,  0.502907973516422,  0.722136124352031 ]
    mass: 118.710000
    reduced_to: 14
  - symbol: Sn # 15
    coordinates: [  0.023354432065733,  0.092773126114100,  0.938322704996036 ]
    mass: 118.710000
    reduced_to: 15

supercell:
  lattice:
  - [    13.729188839502134,     0.000000000000000,     0.000000000000000 ] # a
  - [    -4.564694462554630,     9.801851152306304,     0.000000000000000 ] # b
  - [     0.003462539169114,     1.242938607441430,    11.720909923735444 ] # c
  points:
  - symbol: Li # 1
    coordinates: [  0.053878700345394,  0.180888136910432,  0.473313858985832 ]
    mass: 6.940000
    reduced_to: 1
  - symbol: Li # 2
    coordinates: [  0.387212033678728,  0.180888136910432,  0.473313858985832 ]
    mass: 6.940000
    reduced_to: 1
  - symbol: Li # 3
    coordinates: [  0.720545367012061,  0.180888136910432,  0.473313858985832 ]
    mass: 6.940000
    reduced_to: 1
  - symbol: Li # 4
    coordinates: [  0.053878700345394,  0.680888136910432,  0.473313858985832 ]
    mass: 6.940000
    reduced_to: 1
  - symbol: Li # 5
    coordinates: [  0.387212033678728,  0.680888136910432,  0.473313858985832 ]
    mass: 6.940000
    reduced_to: 1
  - symbol: Li # 6
    coordinates: [  0.720545367012061,  0.680888136910432,  0.473313858985832 ]
    mass: 6.940000
    reduced_to: 1
  - symbol: Li # 7
    coordinates: [  0.317183602581944,  0.469075762563515,  0.666756562836751 ]
    mass: 6.940000
    reduced_to: 7
  - symbol: Li # 8
    coordinates: [  0.650516935915277,  0.469075762563515,  0.666756562836751 ]
    mass: 6.940000
    reduced_to: 7
  - symbol: Li # 9
    coordinates: [  0.983850269248611,  0.469075762563515,  0.666756562836751 ]
    mass: 6.940000
    reduced_to: 7
  - symbol: Li # 10
    coordinates: [  0.317183602581944,  0.969075762563515,  0.666756562836751 ]
    mass: 6.940000
    reduced_to: 7
  - symbol: Li # 11
    coordinates: [  0.650516935915277,  0.969075762563515,  0.666756562836751 ]
    mass: 6.940000
    reduced_to: 7
  - symbol: Li # 12
    coordinates: [  0.983850269248611,  0.969075762563515,  0.666756562836751 ]
    mass: 6.940000
    reduced_to: 7
  - symbol: Li # 13
    coordinates: [  0.167527869688940,  0.023171740791349,  0.789879810438785 ]
    mass: 6.940000
    reduced_to: 13
  - symbol: Li # 14
    coordinates: [  0.500861203022273,  0.023171740791349,  0.789879810438785 ]
    mass: 6.940000
    reduced_to: 13
  - symbol: Li # 15
    coordinates: [  0.834194536355606,  0.023171740791349,  0.789879810438785 ]
    mass: 6.940000
    reduced_to: 13
  - symbol: Li # 16
    coordinates: [  0.167527869688940,  0.523171740791349,  0.789879810438785 ]
    mass: 6.940000
    reduced_to: 13
  - symbol: Li # 17
    coordinates: [  0.500861203022273,  0.523171740791349,  0.789879810438785 ]
    mass: 6.940000
    reduced_to: 13
  - symbol: Li # 18
    coordinates: [  0.834194536355606,  0.523171740791349,  0.789879810438785 ]
    mass: 6.940000
    reduced_to: 13
  - symbol: Li # 19
    coordinates: [  0.117044177436344,  0.368906714122384,  0.269664563442389 ]
    mass: 6.940000
    reduced_to: 19
  - symbol: Li # 20
    coordinates: [  0.450377510769678,  0.368906714122384,  0.269664563442389 ]
    mass: 6.940000
    reduced_to: 19
  - symbol: Li # 21
    coordinates: [  0.783710844103011,  0.368906714122384,  0.269664563442389 ]
    mass: 6.940000
    reduced_to: 19
  - symbol: Li # 22
    coordinates: [  0.117044177436344,  0.868906714122384,  0.269664563442389 ]
    mass: 6.940000
    reduced_to: 19
  - symbol: Li # 23
    coordinates: [  0.450377510769678,  0.868906714122384,  0.269664563442389 ]
    mass: 6.940000
    reduced_to: 19
  - symbol: Li # 24
    coordinates: [  0.783710844103011,  0.868906714122384,  0.269664563442389 ]
    mass: 6.940000
    reduced_to: 19
  - symbol: Li # 25
    coordinates: [  0.031777473534529,  0.116928842541185,  0.187138674419660 ]
    mass: 6.940000
    reduced_to: 25
  - symbol: Li # 26
    coordinates: [  0.365110806867862,  0.116928842541185,  0.187138674419660 ]
    mass: 6.940000
    reduced_to: 25
  - symbol: Li # 27
    coordinates: [  0.698444140201196,  0.116928842541185,  0.187138674419660 ]
    mass: 6.940000
    reduced_to: 25
  - symbol: Li # 28
    coordinates: [  0.031777473534529,  0.616928842541185,  0.187138674419660 ]
    mass: 6.940000
    reduced_to: 25
  - symbol: Li # 29
    coordinates: [  0.365110806867862,  0.616928842541185,  0.187138674419660 ]
    mass: 6.940000
    reduced_to: 25
  - symbol: Li # 30
    coordinates: [  0.698444140201196,  0.616928842541185,  0.187138674419660 ]
    mass: 6.940000
    reduced_to: 25
  - symbol: Li # 31
    coordinates: [  0.251500349575924,  0.274674650478895,  0.870596192604826 ]
    mass: 6.940000
    reduced_to: 31
  - symbol: Li # 32
    coordinates: [  0.584833682909257,  0.274674650478895,  0.870596192604826 ]
    mass: 6.940000
    reduced_to: 31
  - symbol: Li # 33
    coordinates: [  0.918167016242590,  0.274674650478895,  0.870596192604826 ]
    mass: 6.940000
    reduced_to: 31
  - symbol: Li # 34
    coordinates: [  0.251500349575924,  0.774674650478895,  0.870596192604826 ]
    mass: 6.940000
    reduced_to: 31
  - symbol: Li # 35
    coordinates: [  0.584833682909257,  0.774674650478895,  0.870596192604826 ]
    mass: 6.940000
    reduced_to: 31
  - symbol: Li # 36
    coordinates: [  0.918167016242590,  0.774674650478895,  0.870596192604826 ]
    mass: 6.940000
    reduced_to: 31
  - symbol: Li # 37
    coordinates: [  0.301899896899413,  0.428906141902283,  0.390793951324729 ]
    mass: 6.940000
    reduced_to: 37
  - symbol: Li # 38
    coordinates: [  0.635233230232746,  0.428906141902283,  0.390793951324729 ]
    mass: 6.940000
    reduced_to: 37
  - symbol: Li # 39
    coordinates: [  0.968566563566080,  0.428906141902283,  0.390793951324729 ]
    mass: 6.940000
    reduced_to: 37
  - symbol: Li # 40
    coordinates: [  0.301899896899413,  0.928906141902283,  0.390793951324729 ]
    mass: 6.940000
    reduced_to: 37
  - symbol: Li # 41
    coordinates: [  0.635233230232746,  0.928906141902283,  0.390793951324729 ]
    mass: 6.940000
    reduced_to: 37
  - symbol: Li # 42
    coordinates: [  0.968566563566080,  0.928906141902283,  0.390793951324729 ]
    mass: 6.940000
    reduced_to: 37
  - symbol: Li # 43
    coordinates: [  0.185805897879391,  0.081044334184355,  0.076087269224945 ]
    mass: 6.940000
    reduced_to: 43
  - symbol: Li # 44
    coordinates: [  0.519139231212724,  0.081044334184355,  0.076087269224945 ]
    mass: 6.940000
    reduced_to: 43
  - symbol: Li # 45
    coordinates: [  0.852472564546058,  0.081044334184355,  0.076087269224945 ]
    mass: 6.940000
    reduced_to: 43
  - symbol: Li # 46
    coordinates: [  0.185805897879391,  0.581044334184355,  0.076087269224945 ]
    mass: 6.940000
    reduced_to: 43
  - symbol: Li # 47
    coordinates: [  0.519139231212724,  0.581044334184355,  0.076087269224945 ]
    mass: 6.940000
    reduced_to: 43
  - symbol: Li # 48
    coordinates: [  0.852472564546058,  0.581044334184355,  0.076087269224945 ]
    mass: 6.940000
    reduced_to: 43
  - symbol: Li # 49
    coordinates: [  0.101826841245442,  0.328768647729838,  0.993711046237254 ]
    mass: 6.940000
    reduced_to: 49
  - symbol: Li # 50
    coordinates: [  0.435160174578775,  0.328768647729838,  0.993711046237254 ]
    mass: 6.940000
    reduced_to: 49
  - symbol: Li # 51
    coordinates: [  0.768493507912108,  0.328768647729838,  0.993711046237254 ]
    mass: 6.940000
    reduced_to: 49
  - symbol: Li # 52
    coordinates: [  0.101826841245442,  0.828768647729838,  0.993711046237254 ]
    mass: 6.940000
    reduced_to: 49
  - symbol: Li # 53
    coordinates: [  0.435160174578775,  0.828768647729838,  0.993711046237254 ]
    mass: 6.940000
    reduced_to: 49
  - symbol: Li # 54
    coordinates: [  0.768493507912108,  0.828768647729838,  0.993711046237254 ]
    mass: 6.940000
    reduced_to: 49
  - symbol: Li # 55
    coordinates: [  0.233203816401812,  0.216791216206710,  0.584381500757091 ]
    mass: 6.940000
    reduced_to: 55
  - symbol: Li # 56
    coordinates: [  0.566537149735146,  0.216791216206710,  0.584381500757091 ]
    mass: 6.940000
    reduced_to: 55
  - symbol: Li # 57
    coordinates: [  0.899870483068479,  0.216791216206710,  0.584381500757091 ]
    mass: 6.940000
    reduced_to: 55
  - symbol: Li # 58
    coordinates: [  0.233203816401812,  0.716791216206710,  0.584381500757091 ]
    mass: 6.940000
    reduced_to: 55
  - symbol: Li # 59
    coordinates: [  0.566537149735146,  0.716791216206710,  0.584381500757091 ]
    mass: 6.940000
    reduced_to: 55
  - symbol: Li # 60
    coordinates: [  0.899870483068479,  0.716791216206710,  0.584381500757091 ]
    mass: 6.940000
    reduced_to: 55
  - symbol: Ga # 61
    coordinates: [  0.275670968861058,  0.347686077855391,  0.133435216741751 ]
    mass: 69.723000
    reduced_to: 61
  - symbol: Ga # 62
    coordinates: [  0.609004302194391,  0.347686077855391,  0.133435216741751 ]
    mass: 69.723000
    reduced_to: 61
  - symbol: Ga # 63
    coordinates: [  0.942337635527724,  0.347686077855391,  0.133435216741751 ]
    mass: 69.723000
    reduced_to: 61
  - symbol: Ga # 64
    coordinates: [  0.275670968861058,  0.847686077855391,  0.133435216741751 ]
    mass: 69.723000
    reduced_to: 61
  - symbol: Ga # 65
    coordinates: [  0.609004302194391,  0.847686077855391,  0.133435216741751 ]
    mass: 69.723000
    reduced_to: 61
  - symbol: Ga # 66
    coordinates: [  0.942337635527724,  0.847686077855391,  0.133435216741751 ]
    mass: 69.723000
    reduced_to: 61
  - symbol: Ga # 67
    coordinates: [  0.143304252077872,  0.450142201444451,  0.527036196144679 ]
    mass: 69.723000
    reduced_to: 67
  - symbol: Ga # 68
    coordinates: [  0.476637585411205,  0.450142201444451,  0.527036196144679 ]
    mass: 69.723000
    reduced_to: 67
  - symbol: Ga # 69
    coordinates: [  0.809970918744538,  0.450142201444451,  0.527036196144679 ]
    mass: 69.723000
    reduced_to: 67
  - symbol: Ga # 70
    coordinates: [  0.143304252077872,  0.950142201444451,  0.527036196144679 ]
    mass: 69.723000
    reduced_to: 67
  - symbol: Ga # 71
    coordinates: [  0.476637585411205,  0.950142201444451,  0.527036196144679 ]
    mass: 69.723000
    reduced_to: 67
  - symbol: Ga # 72
    coordinates: [  0.809970918744538,  0.950142201444451,  0.527036196144679 ]
    mass: 69.723000
    reduced_to: 67
  - symbol: Sn # 73
    coordinates: [  0.209494889627853,  0.148911645517306,  0.330234020616599 ]
    mass: 118.710000
    reduced_to: 73
  - symbol: Sn # 74
    coordinates: [  0.542828222961187,  0.148911645517306,  0.330234020616599 ]
    mass: 118.710000
    reduced_to: 73
  - symbol: Sn # 75
    coordinates: [  0.876161556294520,  0.148911645517306,  0.330234020616599 ]
    mass: 118.710000
    reduced_to: 73
  - symbol: Sn # 76
    coordinates: [  0.209494889627853,  0.648911645517306,  0.330234020616599 ]
    mass: 118.710000
    reduced_to: 73
  - symbol: Sn # 77
    coordinates: [  0.542828222961187,  0.648911645517306,  0.330234020616599 ]
    mass: 118.710000
    reduced_to: 73
  - symbol: Sn # 78
    coordinates: [  0.876161556294520,  0.648911645517306,  0.330234020616599 ]
    mass: 118.710000
    reduced_to: 73
  - symbol: Sn # 79
    coordinates: [  0.077895370021481,  0.251453986758211,  0.722136124352031 ]
    mass: 118.710000
    reduced_to: 79
  - symbol: Sn # 80
    coordinates: [  0.411228703354814,  0.251453986758211,  0.722136124352031 ]
    mass: 118.710000
    reduced_to: 79
  - symbol: Sn # 81
    coordinates: [  0.744562036688148,  0.251453986758211,  0.722136124352031 ]
    mass: 118.710000
    reduced_to: 79
  - symbol: Sn # 82
    coordinates: [  0.077895370021481,  0.751453986758211,  0.722136124352031 ]
    mass: 118.710000
    reduced_to: 79
  - symbol: Sn # 83
    coordinates: [  0.411228703354814,  0.751453986758211,  0.722136124352031 ]
    mass: 118.710000
    reduced_to: 79
  - symbol: Sn # 84
    coordinates: [  0.744562036688148,  0.751453986758211,  0.722136124352031 ]
    mass: 118.710000
    reduced_to: 79
  - symbol: Sn # 85
    coordinates: [  0.007784810688578,  0.046386563057050,  0.938322704996036 ]
    mass: 118.710000
    reduced_to: 85
  - symbol: Sn # 86
    coordinates: [  0.341118144021911,  0.046386563057050,  0.938322704996036 ]
    mass: 118.710000
    reduced_to: 85
  - symbol: Sn # 87
    coordinates: [  0.674451477355244,  0.046386563057050,  0.938322704996036 ]
    mass: 118.710000
    reduced_to: 85
  - symbol: Sn # 88
    coordinates: [  0.007784810688578,  0.546386563057050,  0.938322704996036 ]
    mass: 118.710000
    reduced_to: 85
  - symbol: Sn # 89
    coordinates: [  0.341118144021911,  0.546386563057050,  0.938322704996036 ]
    mass: 118.710000
    reduced_to: 85
  - symbol: Sn # 90
    coordinates: [  0.674451477355244,  0.546386563057050,  0.938322704996036 ]
    mass: 118.710000
    reduced_to: 85

displacements:
- atom:    1
  displacement:
    [   0.0100000000000000,  0.0000000000000000,  0.0000000000000000 ]
  forces:
  - [  -0.0211727414280176, -0.0882334783673286,  0.1067680791020393 ]
  - [   0.0048132073134184, -0.0881798714399338,  0.1065643504261971 ]
  - [   0.0047983787953854, -0.0885354131460190,  0.1059987917542458 ]
  - [   0.0048360843211412, -0.0881791934370995,  0.1063975170254707 ]
  - [   0.0048027811571956, -0.0883267968893051,  0.1062659472227097 ]
  - [   0.0048020146787167, -0.0885804817080498,  0.1061732023954391 ]
  - [  -0.0216796286404133, -0.0752175748348236,  0.0350926220417023 ]
  - [  -0.0217414088547230, -0.0748881995677948,  0.0352551564574242 ]
  - [  -0.0216845087707043, -0.0745519474148750,  0.0354157835245132 ]
  - [  -0.0219181925058365, -0.0749530270695686,  0.0351870730519295 ]
  - [  -0.0219234712421894, -0.0748178362846375,  0.0353292003273964 ]
  - [  -0.0214824341237545, -0.0748709738254547,  0.0352347679436207 ]
  - [   0.0022473738063127,  0.0418466888368130, -0.1450149267911911 ]
  - [   0.0023263152688742,  0.0418258830904961, -0.1447647511959076 ]
  - [   0.0022430927492678,  0.0418058745563030, -0.1445099413394928 ]
  - [   0.0022432561963797,  0.0418302565813065, -0.1447672843933105 ]
  - [   0.0022924877703190,  0.0418422147631645, -0.1447551995515823 ]
  - [   0.0022898092865944,  0.0418101809918880, -0.1447699517011642 ]
  - [  -0.0360057950019836, -0.0403667241334915,  0.0514912754297256 ]
  - [  -0.0361576490104198, -0.0404490046203136,  0.0514057576656342 ]
  - [  -0.0361571833491325, -0.0403182096779346,  0.0516019910573959 ]
  - [  -0.0359580367803574, -0.0405726842582226,  0.0514410696923733 ]
  - [  -0.0359615646302700, -0.0403725989162922,  0.0515020713210106 ]
  - [  -0.0359675362706184, -0.0401861667633057,  0.0515674427151680 ]
  - [  -0.0047515593469143,  0.0885599851608276, -0.1059433594346046 ]
  - [  -0.0047152657061815,  0.0886500403285027, -0.1059387847781181 ]
  - [  -0.0046965256333351,  0.0884829089045525, -0.1059426739811897 ]
  - [  -0.0045756734907627,  0.0886928141117096, -0.1059570088982582 ]
  - [  -0.0046023940667510,  0.0884195864200592, -0.1059384718537331 ]
  - [  -0.0046107987873256,  0.0885768681764603, -0.1059402376413345 ]
  - [  -0.0027726062107831, -0.0420130640268326,  0.1446315348148346 ]
  - [  -0.0027968138456345, -0.0420072376728058,  0.1445702314376831 ]
  - [  -0.0027761880774051, -0.0420108959078789,  0.1445030868053436 ]
  - [  -0.0027770358137786, -0.0420180261135101,  0.1445744782686234 ]
  - [  -0.0027775587514043, -0.0420076958835125,  0.1445602029561996 ]
  - [  -0.0027937823906541, -0.0420085415244102,  0.1445678323507309 ]
  - [   0.0366797335445881,  0.0409925319254398, -0.0513642877340317 ]
  - [   0.0364553704857826,  0.0406115837395191, -0.0513981953263283 ]
  - [   0.0366242229938507,  0.0402719527482986, -0.0514738522469997 ]
  - [   0.0365273691713810,  0.0405141748487949, -0.0514177568256855 ]
  - [   0.0365102738142014,  0.0406786575913429, -0.0513904839754105 ]
  - [   0.0357401221990585,  0.0406792983412743, -0.0513811856508255 ]
  - [   0.0175115149468184, -0.0853987485170364,  0.0533157363533974 ]
  - [   0.0175209175795317, -0.0855916813015938,  0.0531918369233608 ]
  - [   0.0175063349306583, -0.0857824832201004,  0.0530716963112354 ]
  - [   0.0175431892275810, -0.0855850428342819,  0.0531941466033459 ]
  - [   0.0175141859799623, -0.0856243520975113,  0.0532059222459793 ]
  - [   0.0174994282424450, -0.0855619013309479,  0.0531702116131783 ]
  - [   0.0218835249543190,  0.0747307911515236, -0.0352281257510185 ]
  - [   0.0215856358408928,  0.0747558251023293, -0.0351338535547256 ]
  - [   0.0215725116431713,  0.0747130215167999, -0.0353123173117638 ]
  - [   0.0216847546398640,  0.0747268497943878, -0.0352193638682365 ]
  - [   0.0216659568250179,  0.0747365504503250, -0.0352240391075611 ]
  - [   0.0216864906251431,  0.0747359991073608, -0.0352320596575737 ]
  - [  -0.0120381005108356,  0.0870356261730194, -0.0494363307952881 ]
  - [  -0.0176574252545834,  0.0855080857872963, -0.0533640719950199 ]
  - [  -0.0119159026071429,  0.0839289128780365, -0.0573871806263924 ]
  - [  -0.0178422853350639,  0.0855766758322716, -0.0533719286322594 ]
  - [  -0.0178458206355572,  0.0854515954852104, -0.0533552691340446 ]
  - [  -0.0176023654639721,  0.0854987651109695, -0.0533632561564445 ]
  - [   0.0017697965959087,  0.0168722420930862, -0.0312519110739231 ]
  - [   0.0016492435242981,  0.0168622452765703, -0.0310891233384609 ]
  - [   0.0017810373101383,  0.0168088320642710, -0.0308557003736496 ]
  - [   0.0016449895920232,  0.0168921910226345, -0.0310309883207083 ]
  - [   0.0016403956105933,  0.0168253034353256, -0.0311390794813633 ]
  - [   0.0017685499042273,  0.0168375298380852, -0.0310523137450218 ]
  - [  -0.0008138112025335, -0.0168487820774317,  0.0307052899152040 ]
  - [  -0.0016472371062264, -0.0167623385787010,  0.0306362975388765 ]
  - [  -0.0016628843732178, -0.0167939923703671,  0.0308281313627958 ]
  - [  -0.0015963632613420, -0.0165397562086582,  0.0310105755925179 ]
  - [  -0.0016600370872766, -0.0167934224009514,  0.0307296104729176 ]
  - [  -0.0016681691631675, -0.0171067230403423,  0.0304626394063234 ]
  - [   0.0069034006446600, -0.0013832121621817, -0.0054711513221264 ]
  - [  -0.0003405510215089, -0.0002096293028444, -0.0001518076751381 ]
  - [   0.0064933709800243,  0.0008398795034736,  0.0047767236828804 ]
  - [  -0.0002305982634425, -0.0001778006553650, -0.0001769568771124 ]
  - [  -0.0001775571145117, -0.0003534527495503, -0.0000432850793004 ]
  - [  -0.0001811445690691, -0.0000940421596169, -0.0002219970338047 ]
  - [  -0.0104786632582545, -0.0919079035520554,  0.1107304841279984 ]
  - [  -0.0112335458397865, -0.0918295904994011,  0.1106008738279343 ]
  - [  -0.0112279932945967, -0.0919917747378349,  0.1108562499284744 ]
  - [  -0.0111855762079358, -0.0923061221837997,  0.1111602261662483 ]
  - [  -0.0111771579831839, -0.0918921828269958,  0.1107304543256760 ]
  - [  -0.0111891198903322, -0.0915245488286018,  0.1102931722998619 ]
  - [   0.0114646917209029,  0.0920510590076447, -0.1103369742631912 ]
  - [   0.0114599857479334,  0.0920227989554405, -0.1102531552314758 ]
  - [   0.0114645808935165,  0.0920782014727592, -0.1104080379009247 ]
  - [   0.0114670135080814,  0.0920473560690880, -0.1103498339653015 ]
  - [   0.0114656388759613,  0.0921630188822746, -0.1104773133993149 ]
  - [   0.0114497337490320,  0.0919344127178192, -0.1101640462875366 ]
- atom:    1
  displacement:
    [  -0.0100000000000000,  0.0000000000000000,  0.0000000000000000 ]
  forces:
  - [   0.0307766851037741, -0.0884095728397369,  0.1059634834527969 ]
  - [   0.0048031485639513, -0.0885416567325592,  0.1059980839490891 ]
  - [   0.0047882306389511, -0.0881868526339531,  0.1065629720687866 ]
  - [   0.0047615785151720, -0.0885415598750114,  0.1061633974313736 ]
  - [   0.0048004938289523, -0.0883951187133789,  0.1062954887747765 ]
  - [   0.0048000430688262, -0.0881421416997910,  0.1063867360353470 ]
  - [  -0.0218376740813255, -0.0745584815740585,  0.0354163497686386 ]
  - [  -0.0217758230865002, -0.0748832747340202,  0.0352561026811600 ]
  - [  -0.0218334794044495, -0.0752249807119370,  0.0350926406681538 ]
  - [  -0.0215999539941549, -0.0748162046074867,  0.0353238657116890 ]
  - [  -0.0215931907296181, -0.0749513581395149,  0.0351821519434452 ]
  - [  -0.0220345091074705, -0.0748864412307739,  0.0352594256401062 ]
  - [   0.0023127384483814,  0.0418073609471321, -0.1445153653621674 ]
  - [   0.0022309918422252,  0.0418274700641632, -0.1447652578353882 ]
  - [   0.0023133018985391,  0.0418485775589943, -0.1450195014476776 ]
  - [   0.0023153703659773,  0.0418247729539871, -0.1447625011205673 ]
  - [   0.0022654584608972,  0.0418122857809067, -0.1447742581367493 ]
  - [   0.0022674538195133,  0.0418438576161861, -0.1447595059871674 ]
  - [  -0.0359418950974941, -0.0404019840061665,  0.0515263639390469 ]
  - [  -0.0357919931411743, -0.0403123386204243,  0.0516002550721169 ]
  - [  -0.0357864387333393, -0.0404434800148010,  0.0514030605554581 ]
  - [  -0.0359888747334480, -0.0401868447661400,  0.0515634603798389 ]
  - [  -0.0359843485057354, -0.0403856709599495,  0.0515036918222904 ]
  - [  -0.0359816364943981, -0.0405740998685360,  0.0514384582638741 ]
  - [  -0.0044602565467358,  0.0885665714740753, -0.1059464737772942 ]
  - [  -0.0045031467452645,  0.0884745270013809, -0.1059529483318329 ]
  - [  -0.0045118024572730,  0.0886425450444221, -0.1059480383992195 ]
  - [  -0.0046395030803978,  0.0884341299533844, -0.1059366017580032 ]
  - [  -0.0046096062287688,  0.0887074023485184, -0.1059563681483269 ]
  - [  -0.0046022129245102,  0.0885494351387024, -0.1059527397155762 ]
  - [  -0.0027794428169727, -0.0420091077685356,  0.1445029675960541 ]
  - [  -0.0027566545177251, -0.0420154333114624,  0.1445634663105011 ]
  - [  -0.0027770148590207, -0.0420114099979401,  0.1446310430765152 ]
  - [  -0.0027759140357375, -0.0420049875974655,  0.1445604264736176 ]
  - [  -0.0027755163609982, -0.0420158505439758,  0.1445745527744293 ]
  - [  -0.0027600778266788, -0.0420157015323639,  0.1445675641298294 ]
  - [   0.0361660569906235,  0.0402245819568634, -0.0514422543346882 ]
  - [   0.0363765321671963,  0.0405943840742111, -0.0514013841748238 ]
  - [   0.0361946374177933,  0.0409464538097382, -0.0513335578143597 ]
  - [   0.0363073311746120,  0.0406935960054398, -0.0513845011591911 ]
  - [   0.0363214388489723,  0.0405270457267761, -0.0514120310544968 ]
  - [   0.0370916053652763,  0.0405527763068676, -0.0514095127582550 ]
  - [   0.0175401531159878, -0.0857837498188019,  0.0530675947666168 ]
  - [   0.0175301544368267, -0.0855913162231445,  0.0531897470355034 ]
  - [   0.0175416767597198, -0.0853996053338051,  0.0533107928931713 ]
  - [   0.0175077691674232, -0.0855952724814415,  0.0531846806406975 ]
  - [   0.0175374746322632, -0.0855571553111076,  0.0531744770705700 ]
  - [   0.0175529941916466, -0.0856192260980606,  0.0532105229794979 ]
  - [   0.0214754585176706,  0.0747370570898056, -0.0352234244346619 ]
  - [   0.0217732992023230,  0.0747116506099701, -0.0353168696165085 ]
  - [   0.0217858795076609,  0.0747553259134293, -0.0351381599903107 ]
  - [   0.0216734819114208,  0.0747399926185608, -0.0352303832769394 ]
  - [   0.0216922815889120,  0.0747306495904922, -0.0352261736989021 ]
  - [   0.0216712541878223,  0.0747302770614624, -0.0352181345224380 ]
  - [  -0.0233933236449957,  0.0840091630816460, -0.0572080463171005 ]
  - [  -0.0178727135062218,  0.0855112001299858, -0.0533626824617386 ]
  - [  -0.0237202551215887,  0.0871165469288826, -0.0492537096142769 ]
  - [  -0.0176885984838009,  0.0854415893554688, -0.0533534958958626 ]
  - [  -0.0176855493336916,  0.0855651497840881, -0.0533719211816788 ]
  - [  -0.0179291497915983,  0.0855184271931648, -0.0533643811941147 ]
  - [   0.0015942448517308,  0.0168294496834278, -0.0308908130973577 ]
  - [   0.0017202113522217,  0.0168398059904575, -0.0310608800500631 ]
  - [   0.0015942554455251,  0.0168932378292084, -0.0312858745455742 ]
  - [   0.0017242946196347,  0.0168121159076691, -0.0311198923736811 ]
  - [   0.0017298832535744,  0.0168793834745884, -0.0310104899108410 ]
  - [   0.0016024872893468,  0.0168671589344740, -0.0310966465622187 ]
  - [  -0.0024773920886219, -0.0167818460613489,  0.0307378619909286 ]
  - [  -0.0016429499955848, -0.0168137382715940,  0.0308213196694851 ]
  - [  -0.0016270064515993, -0.0167803037911654,  0.0306294038891792 ]
  - [  -0.0016673137433827, -0.0170628242194653,  0.0304628685116768 ]
  - [  -0.0016310727223754, -0.0167850069701672,  0.0307263210415840 ]
  - [  -0.0016482351347804, -0.0164948552846909,  0.0310097821056843 ]
  - [  -0.0069345086812973,  0.0009212148142979,  0.0049938298761845 ]
  - [   0.0001279633142985, -0.0002053331700154, -0.0001438913168386 ]
  - [  -0.0068931751884520, -0.0012983507476747, -0.0052482113242149 ]
  - [   0.0000153798609972, -0.0002385666593909, -0.0001213443465531 ]
  - [  -0.0000410946086049, -0.0000658100470901, -0.0002508345060050 ]