# Thermal properties / unit cell (natom)

unit:
  temperature:   K
  free_energy:   kJ/mol
  entropy:       J/K/mol
  heat_capacity: J/K/mol

natom: 15   
cutoff_frequency: 0.00000
num_modes: 204120
num_integrated_modes: 204119

zero_point_energy:      56.4479181

thermal_properties:
- temperature:         0.0000000
  free_energy:        56.4479181
  entropy:             0.0000000
  heat_capacity:       0.0000000
  energy:             56.4479181

- temperature:        10.0000000
  free_energy:        56.4450456
  entropy:             1.0884392
  heat_capacity:       3.6827555
  energy:             56.4559300

- temperature:        20.0000000
  free_energy:        56.3977228
  entropy:            10.1563388
  heat_capacity:      28.0611686
  energy:             56.6008496

- temperature:        30.0000000
  free_energy:        56.2159437
  entropy:            26.9461412
  heat_capacity:      55.7845268
  energy:             57.0243279

- temperature:        40.0000000
  free_energy:        55.8510360
  entropy:            46.2011050
  heat_capacity:      78.5223970
  energy:             57.6990802

- temperature:        50.0000000
  free_energy:        55.2904793
  entropy:            65.9343158
  heat_capacity:      98.9269586
  energy:             58.5871951

- temperature:        60.0000000
  free_energy:        54.5321498
  entropy:            85.7365088
  heat_capacity:     118.8958206
  energy:             59.6763403

- temperature:        70.0000000
  free_energy:        53.5756678
  entropy:           105.5627963
  heat_capacity:     138.8286055
  energy:             60.9650635

- temperature:        80.0000000
  free_energy:        52.4208978
  entropy:           125.3864364
  heat_capacity:     158.4277035
  energy:             62.4518127

- temperature:        90.0000000
  free_energy:        51.0681612
  entropy:           145.1426293
  heat_capacity:     177.2443961
  energy:             64.1309979

- temperature:       100.0000000
  free_energy:        49.5185644
  entropy:           164.7429944
  heat_capacity:     194.9151990
  energy:             65.9928639

- temperature:       110.0000000
  free_energy:        47.7741255
  entropy:           184.0965129
  heat_capacity:     211.2224612
  energy:             68.0247419

- temperature:       120.0000000
  free_energy:        45.8377266
  entropy:           203.1228634
  heat_capacity:     226.0800335
  energy:             70.2124702

- temperature:       130.0000000
  free_energy:        43.7129737
  entropy:           221.7581613
  heat_capacity:     239.4972038
  energy:             72.5415346

- temperature:       140.0000000
  free_energy:        41.4040239
  entropy:           239.9558370
  heat_capacity:     251.5434691
  energy:             74.9978411

- temperature:       150.0000000
  free_energy:        38.9154200
  entropy:           257.6850283
  heat_capacity:     262.3212450
  energy:             77.5681742

- temperature:       160.0000000
  free_energy:        36.2519452
  entropy:           274.9280048
  heat_capacity:     271.9470726
  energy:             80.2404260

- temperature:       170.0000000
  free_energy:        33.4185059
  entropy:           291.6774495
  heat_capacity:     280.5397125
  energy:             83.0036723

- temperature:       180.0000000
  free_energy:        30.4200399
  entropy:           307.9339855
  heat_capacity:     288.2131807
  energy:             85.8481573

- temperature:       190.0000000
  free_energy:        27.2614481
  entropy:           323.7040899
  heat_capacity:     295.0730817
  energy:             88.7652251

- temperature:       200.0000000
  free_energy:        23.9475443
  entropy:           338.9984127
  heat_capacity:     301.2150276
  energy:             91.7472269

- temperature:       210.0000000
  free_energy:        20.4830209
  entropy:           353.8304619
  heat_capacity:     306.7243087
  energy:             94.7874179

- temperature:       220.0000000
  free_energy:        16.8724249
  entropy:           368.2155974
  heat_capacity:     311.6762732
  energy:             97.8798564

- temperature:       230.0000000
  free_energy:        13.1201439
  entropy:           382.1702748
  heat_capacity:     316.1370706
  energy:            101.0193071

- temperature:       240.0000000
  free_energy:         9.2303977
  entropy:           395.7114855
  heat_capacity:     320.1645513
  energy:            104.2011542

- temperature:       250.0000000
  free_energy:         5.2072353
  entropy:           408.8563496
  heat_capacity:     323.8091983
  energy:            107.4213227

- temperature:       260.0000000
  free_energy:         1.0545353
  entropy:           421.6218235
  heat_capacity:     327.1150245
  energy:            110.6762094

- temperature:       270.0000000
  free_energy:        -3.2239919
  entropy:           434.0244968
  heat_capacity:     330.1203997
  energy:            113.9626222

- temperature:       280.0000000
  free_energy:        -7.6247990
  entropy:           446.0804533
  heat_capacity:     332.8587948
  energy:            117.2777279

- temperature:       290.0000000
  free_energy:       -12.1444969
  entropy:           457.8051826
  heat_capacity:     335.3594383
  energy:            120.6190060

- temperature:       300.0000000
  free_energy:       -16.7798481
  entropy:           469.2135262
  heat_capacity:     337.6478908
  energy:            123.9842097

- temperature:       310.0000000
  free_energy:       -21.5277601
  entropy:           480.3196504
  heat_capacity:     339.7465425
  energy:            127.3713315

- temperature:       320.0000000
  free_energy:       -26.3852787
  entropy:           491.1370388
  heat_capacity:     341.6750429
  energy:            130.7785737

- temperature:       330.0000000
  free_energy:       -31.3495812
  entropy:           501.6784976
  heat_capacity:     343.4506705
  energy:            134.2043230

- temperature:       340.0000000
  free_energy:       -36.4179695
  entropy:           511.9561704
  heat_capacity:     345.0886500
  energy:            137.6471285

- temperature:       350.0000000
  free_energy:       -41.5878637
  entropy:           521.9815597
  heat_capacity:     346.6024250
  energy:            141.1056822

- temperature:       360.0000000
  free_energy:       -46.8567961
  entropy:           531.7655523
  heat_capacity:     348.0038912
  energy:            144.5788027

- temperature:       370.0000000
  free_energy:       -52.2224045
  entropy:           541.3184471
  heat_capacity:     349.3035977
  energy:            148.0654209

- temperature:       380.0000000
  free_energy:       -57.6824272
  entropy:           550.6499845
  heat_capacity:     350.5109189
  energy:            151.5645669

- temperature:       390.0000000
  free_energy:       -63.2346971
  entropy:           559.7693754
  heat_capacity:     351.6342032
  energy:            155.0753593

- temperature:       400.0000000
  free_energy:       -68.8771367
  entropy:           568.6853310
  heat_capacity:     352.6809006
  energy:            158.5969957

- temperature:       410.0000000
  free_energy:       -74.6077531
  entropy:           577.4060912
  heat_capacity:     353.6576729
  energy:            162.1287443

- temperature:       420.0000000
  free_energy:       -80.4246339
  entropy:           585.9394522
  heat_capacity:     354.5704892
  energy:            165.6699361

- temperature:       430.0000000
  free_energy:       -86.3259422
  entropy:           594.2927929
  heat_capacity:     355.4247085
  energy:            169.2199588

- temperature:       440.0000000
  free_energy:       -92.3099130
  entropy:           602.4731001
  heat_capacity:     356.2251512
  energy:            172.7782510

- temperature:       450.0000000
  free_energy:       -98.3748495
  entropy:           610.4869924
  heat_capacity:     356.9761612
  energy:            176.3442971

- temperature:       460.0000000
  free_energy:      -104.5191191
  entropy:           618.3407428
  heat_capacity:     357.6816606
  energy:            179.9176226

- temperature:       470.0000000
  free_energy:      -110.7411504
  entropy:           626.0402997
  heat_capacity:     358.3451965
  energy:            183.4977905

- temperature:       480.0000000
  free_energy:      -117.0394299
  entropy:           633.5913069
  heat_capacity:     358.9699827
  energy:            187.0843974

- temperature:       490.0000000
  free_energy:      -123.4124993
  entropy:           640.9991224
  heat_capacity:     359.5589359
  energy:            190.6770707

- temperature:       500.0000000
  free_energy:      -129.8589521
  entropy:           648.2688352
  heat_capacity:     360.1147076
  energy:            194.2754655

- temperature:       510.0000000
  free_energy:      -136.3774318
  entropy:           655.4052825
  heat_capacity:     360.6397117
  energy:            197.8792623

- temperature:       520.0000000
  free_energy:      -142.9666289
  entropy:           662.4130643
  heat_capacity:     361.1361496
  energy:            201.4881646

- temperature:       530.0000000
  free_energy:      -149.6252788
  entropy:           669.2965577
  heat_capacity:     361.6060319
  energy:            205.1018968

- temperature:       540.0000000
  free_energy:      -156.3521596
  entropy:           676.0599305
  heat_capacity:     362.0511975
  energy:            208.7202028

- temperature:       550.0000000
  free_energy:      -163.1460902
  entropy:           682.7071532
  heat_capacity:     362.4733307
  energy:            212.3428440

- temperature:       560.0000000
  free_energy:      -170.0059282
  entropy:           689.2420107
  heat_capacity:     362.8739764
  energy:            215.9695978

- temperature:       570.0000000
  free_energy:      -176.9305680
  entropy:           695.6681133
  heat_capacity:     363.2545535
  energy:            219.6002566

- temperature:       580.0000000
  free_energy:      -183.9189394
  entropy:           701.9889065
  heat_capacity:     363.6163670
  energy:            223.2346264

- temperature:       590.0000000
  free_energy:      -190.9700060
  entropy:           708.2076805
  heat_capacity:     363.9606185
  energy:            226.8725255

- temperature:       600.0000000
  free_energy:      -198.0827635
  entropy:           714.3275789
  heat_capacity:     364.2884159
  energy:            230.5137839

- temperature:       610.0000000
  free_energy:      -205.2562381
  entropy:           720.3516072
  heat_capacity:     364.6007820
  energy:            234.1582423

- temperature:       620.0000000
  free_energy:      -212.4894856
  entropy:           726.2826402
  heat_capacity:     364.8986619
  energy:            237.8057513

- temperature:       630.0000000
  free_energy:      -219.7815901
  entropy:           732.1234290
  heat_capacity:     365.1829302
  energy:            241.4561702

- temperature:       640.0000000
  free_energy:      -227.1316622
  entropy:           737.8766084
  heat_capacity:     365.4543971
  energy:            245.1093672

- temperature:       650.0000000
  free_energy:      -234.5388386
  entropy:           743.5447025
  heat_capacity:     365.7138138
  energy:            248.7652180

- temperature:       660.0000000
  free_energy:      -242.0022807
  entropy:           749.1301308
  heat_capacity:     365.9618776
  energy:            252.4236056

- temperature:       670.0000000
  free_energy:      -249.5211734
  entropy:           754.6352139
  heat_capacity:     366.1992365
  energy:            256.0844199

- temperature:       680.0000000
  free_energy:      -257.0947246
  entropy:           760.0621784
  heat_capacity:     366.4264933
  energy:            259.7475567

- temperature:       690.0000000
  free_energy:      -264.7221637
  entropy:           765.4131619
  heat_capacity:     366.6442093
  energy:            263.4129179

- temperature:       700.0000000
  free_energy:      -272.4027414
  entropy:           770.6902175
  heat_capacity:     366.8529076
  energy:            267.0804108

- temperature:       710.0000000
  free_energy:      -280.1357283
  entropy:           775.8953182
  heat_capacity:     367.0530761
  energy:            270.7499477

- temperature:       720.0000000
  free_energy:      -287.9204143
  entropy:           781.0303607
  heat_capacity:     367.2451703
  energy:            274.4214454

- temperature:       730.0000000
  free_energy:      -295.7561080
  entropy:           786.0971693
  heat_capacity:     367.4296163
  energy:            278.0948256

- temperature:       740.0000000
  free_energy:      -303.6421361
  entropy:           791.0974995
  heat_capacity:     367.6068120
  energy:            281.7700136

- temperature:       750.0000000
  free_energy:      -311.5778421
  entropy:           796.0330413
  heat_capacity:     367.7771305
  energy:            285.4469389

- temperature:       760.0000000
  free_energy:      -319.5625864
  entropy:           800.9054221
  heat_capacity:     367.9409210
  energy:            289.1255345

- temperature:       770.0000000
  free_energy:      -327.5957452
  entropy:           805.7162102
  heat_capacity:     368.0985111
  energy:            292.8057367

- temperature:       780.0000000
  free_energy:      -335.6767103
  entropy:           810.4669171
  heat_capacity:     368.2502081
  energy:            296.4874850

- temperature:       790.0000000
  free_energy:      -343.8048881
  entropy:           815.1590004
  heat_capacity:     368.3963007
  energy:            300.1707221

- temperature:       800.0000000
  free_energy:      -351.9796996
  entropy:           819.7938661
  heat_capacity:     368.5370602
  energy:            303.8553933

- temperature:       810.0000000
  free_energy:      -360.2005793
  entropy:           824.3728712
  heat_capacity:     368.6727416
  energy:            307.5414464

- temperature:       820.0000000
  free_energy:      -368.4669752
  entropy:           828.8973258
  heat_capacity:     368.8035853
  energy:            311.2288320

- temperature:       830.0000000
  free_energy:      -376.7783482
  entropy:           833.3684951
  heat_capacity:     368.9298174
  energy:            314.9175028

- temperature:       840.0000000
  free_energy:      -385.1341715
  entropy:           837.7876014
  heat_capacity:     369.0516510
  energy:            318.6074137

- temperature:       850.0000000
  free_energy:      -393.5339306
  entropy:           842.1558263
  heat_capacity:     369.1692872
  energy:            322.2985218

- temperature:       860.0000000
  free_energy:      -401.9771223
  entropy:           846.4743120
  heat_capacity:     369.2829159
  energy:            325.9907861

- temperature:       870.0000000
  free_energy:      -410.4632547
  entropy:           850.7441633
  heat_capacity:     369.3927161
  energy:            329.6841673

- temperature:       880.0000000
  free_energy:      -418.9918470
  entropy:           854.9664491
  heat_capacity:     369.4988573
  energy:            333.3786282

- temperature:       890.0000000
  free_energy:      -427.5624286
  entropy:           859.1422039
  heat_capacity:     369.6014996
  energy:            337.0741328

- temperature:       900.0000000
  free_energy:      -436.1745393
  entropy:           863.2724293
  heat_capacity:     369.7007944
  energy:            340.7706470

- temperature:       910.0000000
  free_energy:      -444.8277287
  entropy:           867.3580953
  heat_capacity:     369.7968852
  energy:            344.4681380

- temperature:       920.0000000
  free_energy:      -453.5215558
  entropy:           871.4001417
  heat_capacity:     369.8899078
  energy:            348.1665745

- temperature:       930.0000000
  free_energy:      -462.2555891
  entropy:           875.3994791
  heat_capacity:     369.9799910
  energy:            351.8659264

- temperature:       940.0000000
  free_energy:      -471.0294060
  entropy:           879.3569903
  heat_capacity:     370.0672568
  energy:            355.5661649

- temperature:       950.0000000
  free_energy:      -479.8425924
  entropy:           883.2735315
  heat_capacity:     370.1518212
  energy:            359.2672625

- temperature:       960.0000000
  free_energy:      -488.6947428
  entropy:           887.1499328
  heat_capacity:     370.2337940
  energy:            362.9691927

- temperature:       970.0000000
  free_energy:      -497.5854599
  entropy:           890.9870000
  heat_capacity:     370.3132798
  energy:            366.6719301

- temperature:       980.0000000
  free_energy:      -506.5143543
  entropy:           894.7855150
  heat_capacity:     370.3903777
  energy:            370.3754504

- temperature:       990.0000000
  free_energy:      -515.4810443
  entropy:           898.5462366
  heat_capacity:     370.4651822
  energy:            374.0797300

- temperature:      1000.0000000
  free_energy:      -524.4851555
  entropy:           902.2699022
  heat_capacity:     370.5377831
  energy:            377.7847467
