33
Lattice="4.6751143239000665 -5.343685206168262e-08 -2.0943464725285682e-08 -2.3375572082277034 4.048767781575227 2.894248488845069e-08 -1.4145818837816523e-07 1.4405671402461512e-07 31.498801802861262" Properties=species:S:1:pos:R:3:forces:R:3 structure_index=0 total_energy=-93.33839416503906 stress="-0.010497299022972584 -1.2690705943896319e-06 6.36274990029051e-07 -2.059926828223979e-06 -0.010499321855604649 -1.0964671446345164e-06 7.888377240305999e-07 -5.300628913573746e-07 0.005503796972334385" pbc="T T T"
Li      -0.00000001       0.00000001       2.79368722      -0.00000043       0.00000001       0.02872905
Li      -0.00000013       0.00000013      28.70511463       0.00000012      -0.00000032      -0.02872678
Li       2.33755709       1.34958929      13.29328779       0.00000005       0.00000012       0.02872765
Li       2.33755711       1.34958926       7.70591339       0.00000016       0.00000044      -0.02872917
Li      -0.00000014       2.69917861      23.79288845       0.00000039      -0.00000090       0.02872673
Li      -0.00000011       2.69917858      18.20551401      -0.00000018      -0.00000051      -0.02873125
Li      -0.00000002       0.00000002       5.61649729       0.00000032       0.00000028      -0.02227419
Li      -0.00000012       0.00000012      25.88230451       0.00000034       0.00000045       0.02227387
Li       2.33755708       1.34958930      16.11609790      -0.00000017       0.00000015      -0.02227471
Li       2.33755712       1.34958925       4.88310330       0.00000009      -0.00000020       0.02227331
Li      -0.00000015       2.69917862      26.61569849       0.00000030      -0.00000031      -0.02227377
Li      -0.00000010       2.69917857      15.38270394      -0.00000027      -0.00000032       0.02227517
Li      -0.00000004       0.00000005       8.58907563       0.00000004      -0.00000021       0.01504722
Li      -0.00000010       0.00000011      22.90972618      -0.00000002       0.00000027      -0.01504831
Li       2.33755706       1.34958931      19.08867621       0.00000021      -0.00000051       0.01504807
Li       2.33755714       1.34958924       1.91052498       0.00000042      -0.00000040      -0.01504698
Li      -0.00000016       2.69917864      29.58827683       0.00000035       0.00000052       0.01504815
Li      -0.00000008       2.69917856      12.41012559      -0.00000036      -0.00000024      -0.01504764
Li      -0.00000006       0.00000005      11.42084674       0.00000037       0.00000088       0.01621558
Li      -0.00000009       0.00000009      20.07795508      -0.00000012       0.00000111      -0.01621645
Li       2.33755705       1.34958933      21.92044737      -0.00000005      -0.00000017       0.01621310
Li       2.33755701       1.34958937      30.57755566       0.00000018      -0.00000010      -0.01621723
Li      -0.00000003       2.69917851       0.92124616       0.00000042       0.00000148       0.01621562
Li      -0.00000007       2.69917854       9.57835447      -0.00000017      -0.00000030      -0.01621652
Sn      -0.00000006       0.00000007      14.28864005       0.00000038       0.00000015      -0.01386716
Sn      -0.00000008       0.00000008      17.21016174       0.00000035       0.00000017       0.01386848
Sn       2.33755704       1.34958934      24.78824059      -0.00000049       0.00000010      -0.01386102
Sn       2.33755702       1.34958936      27.70976235      -0.00000047      -0.00000014       0.01386283
Sn      -0.00000005       2.69917852       3.78903944      -0.00000005       0.00000023      -0.01386268
Sn      -0.00000006       2.69917853       6.71056118      -0.00000047      -0.00000029       0.01386442
Sn       0.00000000      -0.00000000      -0.00000001      -0.00000091      -0.00000114      -0.00000224
Sn       2.33755710       1.34958927      10.49960060       0.00000002      -0.00000044       0.00000234
Sn      -0.00000012       2.69917860      20.99920118      -0.00000034       0.00000022       0.00000441
8
Lattice="4.634621091152667 -4.583713455757837e-09 -2.134992465668522e-08 -4.583712710453936e-09 4.6346211808706395 3.236821953295384e-08 -4.115574410565968e-08 6.23954491679527e-08 6.566236634457692" Properties=species:S:1:pos:R:3:forces:R:3 structure_index=1 total_energy=-22.22205352783203 stress="3.446677146712318e-05 9.115549346461194e-07 -3.579479823656584e-07 7.148033773773932e-07 3.444146568654105e-05 2.3662755310738248e-08 -7.429204629261221e-07 3.3569317992032666e-08 0.028169475495815277" pbc="T T T"
Li      -0.00000002       2.31731061       1.64155919       0.00000017       0.00000015       0.00000036
Li      -0.00000003       2.31731063       4.92467749       0.00000024       0.00000013      -0.00000059
Li       2.31731054       0.00000000       1.64155916      -0.00000001       0.00000033      -0.00000016
Li       2.31731052       0.00000003       4.92467745      -0.00000007       0.00000019       0.00000006
Li      -0.00000002       0.00000003       3.28311832       0.00000024       0.00000015       0.00000016
Li       2.31731055       2.31731060       0.00000002      -0.00000035       0.00000007      -0.00000003
Sn      -0.00000001       0.00000000       0.00000000       0.00000055      -0.00000011       0.00000013
Sn       2.31731054       2.31731064       3.28311830      -0.00000079      -0.00000090       0.00000012
6
Lattice="6.235613361992071 7.487481236801293e-08 1.039951387362386e-09 -3.1178066161525404 5.400199514035448 1.1575162298452075e-08 9.290002376731217e-10 1.2476222797239712e-08 5.589103947701795" Properties=species:S:1:pos:R:3:forces:R:3 structure_index=2 total_energy=-20.582775115966797 stress="-0.018710516393184662 -6.602674602618208e-07 2.7063986607345214e-08 -7.041468279567198e-07 -0.018711162731051445 1.4689706517856393e-07 -9.795467548201486e-09 5.544671388690858e-09 -0.03595301881432533" pbc="T T T"
Li       0.00000000       0.00000001      -0.00000000      -0.00000031      -0.00000012       0.00000002
Sn      -1.55890334       2.70009974       2.79455198      -0.00000065      -0.00000064       0.00000007
Sn       3.11780668       0.00000007       2.79455197       0.00000064      -0.00000033      -0.00000005
Sn       1.55890340       2.70009978       2.79455198      -0.00000060       0.00000091      -0.00000008
Sn       0.00000004       3.60013303       0.00000001       0.00000030       0.00000012       0.00000009
Sn       3.11780670       1.80006657       0.00000001       0.00000059       0.00000005      -0.00000004
6
Lattice="3.340203354520231 -1.0810917953085337e-08 -9.065636367995249e-09 -1.6701016866226441 2.8927009049991588 2.398650757978775e-08 -3.863177864253244e-08 9.572331680317535e-08 13.844908433253378" Properties=species:S:1:pos:R:3:forces:R:3 structure_index=3 total_energy=-18.767074584960938 stress="0.0598866268992424 5.918090550949273e-07 1.3344023663819371e-08 6.726869514750433e-07 0.05989022180438042 3.113557909273368e-07 -2.47337226255695e-08 2.7573176453188353e-07 0.018082082271575928" pbc="T T T"
Li      -0.00000000       0.00000000       0.00000001       0.00000007      -0.00000005      -0.00000019
Li       1.67010167       0.96423366       4.61496948       0.00000003      -0.00000004       0.00000189
Li      -0.00000003       1.92846734       9.22993895      -0.00000000       0.00000005       0.00000034
Sn      -0.00000002       0.00000004       6.92245421      -0.00000000      -0.00000001      -0.00000132
Sn       1.67010164       0.96423370      11.53742371      -0.00000004      -0.00000006       0.00000152
Sn      -0.00000002       1.92846728       2.30748476      -0.00000006       0.00000010      -0.00000223
15
Lattice="4.981263805344599 -4.5854870295839875e-05 -5.4971881055467406e-05 -2.4906716141548597 4.313919111109496 3.074828339531611e-05 -0.00015579338909436934 1.0675971307263334e-05 14.598981132630607" Properties=species:S:1:pos:R:3:forces:R:3 structure_index=4 total_energy=-44.79345703125 stress="0.0073312572203576565 9.918553405441344e-05 0.00011594646639423445 9.938128641806543e-05 0.007344248238950968 -8.337042345374357e-06 0.0001159497260232456 -8.348441042471677e-06 -0.023484814912080765" pbc="T T T"
Li      -0.00006102       0.00000413       5.79545655       0.00001673      -0.00000064      -0.00108629
Li      -0.00009465       0.00000656       8.80352444      -0.00001719       0.00000023       0.00108601
Li       2.49050574       1.43795009      10.66175724       0.00001741      -0.00000207      -0.00108707
Li       2.49047191       1.43795266      13.66982522      -0.00001655       0.00000076       0.00108550
Li      -0.00003562       2.87593129       0.92913161       0.00001738       0.00000025      -0.00108667
Li      -0.00006940       2.87593377       3.93719969      -0.00001657       0.00000062       0.00108767
Li      -0.00000002      -0.00000004      -0.00000009      -0.00000052      -0.00000089      -0.00000130
Li       2.49056675       1.43794595       4.86630059      -0.00000034       0.00000015      -0.00000049
Li      -0.00013039       2.87593794       9.73265624      -0.00000024       0.00000074      -0.00000056
Sn      -0.00003205       0.00000232       2.97762236      -0.00000869       0.00000176      -0.02024937
Sn      -0.00012370       0.00000826      11.62135903       0.00000908      -0.00000075       0.02025023
Sn       2.49053455       1.43794806       7.84392298      -0.00000803       0.00000463      -0.02025077
Sn       2.49059895       1.43794384       1.88867826       0.00000830      -0.00000167       0.02025091
Sn      -0.00016242       2.87594028      12.71027870      -0.00000919       0.00000172      -0.02024943
Sn      -0.00009823       2.87593590       6.75503399       0.00000836      -0.00000482       0.02025155
2
Lattice="3.335560060285613 1.2357349029816608e-08 1.3000010491491781e-09 -1.6677800194410273 2.8886798342713496 -3.7194188865905677e-09 1.8270783269222515e-09 -4.981257904329417e-09 4.603079945501038" Properties=species:S:1:pos:R:3:forces:R:3 structure_index=5 total_energy=-6.265876770019531 stress="0.09043809026479721 3.6222138533048565e-07 -2.1681725570488197e-07 4.501871728734841e-07 0.09042774140834808 4.152291310788314e-08 -1.8896400888479548e-07 1.4707271844827119e-08 0.07889261096715927" pbc="T T T"
Li       1.66778004       0.96289329       2.30153997       0.00000006       0.00000006       0.00000006
Sn       0.00000001       1.92578656      -0.00000000      -0.00000006      -0.00000006      -0.00000005
10
Lattice="4.36427103400466 4.337777145297681e-08 -0.9344775430347652 5.970885699700584e-09 4.476608282991163 -1.7398564613009007e-07 -0.05022119888518541 -4.237371606983402e-07 10.36116477884008" Properties=species:S:1:pos:R:3:forces:R:3 structure_index=6 total_energy=-30.16852569580078 stress="0.004453800152987242 8.854690491943984e-08 0.005163984373211861 1.6271637548470608e-07 -0.01812569424510002 -7.812183184796595e-07 0.005163952242583036 -7.674065614082792e-07 0.020516883581876755" pbc="T T T"
Li       0.19342431       1.11915210       0.91587580      -0.00039284      -0.00000006      -0.01712558
Li       4.12062545       3.35745584       8.51081110       0.00039452       0.00000001       0.01712555
Li       0.60687451       3.35745609       2.90953430       0.01486150       0.00000010       0.00065611
Li       3.70717536       1.11915180       6.51715282      -0.01486064       0.00000009      -0.00065631
Li       1.50640947       3.35745596       6.92146128      -0.00970010       0.00000000       0.01421490
Li       2.80764037       1.11915201       2.50522579       0.00969977       0.00000014      -0.01421493
Sn       1.05244674       1.11915192       4.88869101      -0.00045309      -0.00000005       0.00391193
Sn       3.26160309       3.35745597       4.53799611       0.00045306      -0.00000032      -0.00391245
Sn       1.93130088       1.11915166       8.90944886      -0.01275051       0.00000030       0.00769749
Sn       2.38274902       3.35745616       0.51723825       0.01274833      -0.00000022      -0.00769671
3
Lattice="3.1599137044526904 -3.970204337614939e-08 -1.261398640506337e-07 -3.970204286799652e-08 3.159913663590543 -5.367335131901525e-08 -2.771095051141559e-07 -1.1791193819348799e-07 7.176165364642084" Properties=species:S:1:pos:R:3:forces:R:3 structure_index=7 total_energy=-10.111383438110352 stress="0.10261224955320358 -1.0936445278275642e-06 -2.564593160059303e-07 -1.0648232091625687e-06 0.10260850191116333 -1.1560545090105734e-06 -2.5185985919051745e-07 -1.1611513173193089e-06 0.05308334901928902" pbc="T T T"
Li      -0.00000005      -0.00000006      -0.00000001      -0.00000026       0.00000020       0.00000022
Sn       1.57995678       1.57995681       2.08758451       0.00000015      -0.00000007       0.03958450
Sn       1.57995665       1.57995675       5.08858069       0.00000011      -0.00000013      -0.03958473
2
Lattice="3.466136086319851 -1.3605458242612711e-08 -1.8138468137615736e-08 -1.3605457685215515e-08 3.4661359354201777 -1.7043250741812413e-08 -1.8138468349855362e-08 -1.704325095405204e-08 3.4661361558401604" Properties=species:S:1:pos:R:3:forces:R:3 structure_index=8 total_energy=-6.3817949295043945 stress="0.14405235648155212 -2.5517408630548744e-07 3.369131604813447e-07 -2.5905575284923543e-07 0.1440519392490387 -2.224652462246013e-06 3.3924172271326825e-07 -2.211842684118892e-06 0.14404381811618805" pbc="T T T"
Li       0.00000005       0.00000010       0.00000008      -0.00000001      -0.00000090      -0.00000210
Sn       1.73306798       1.73306786       1.73306798       0.00000001       0.00000090       0.00000210
16
Lattice="7.456588713868798 2.659606076605284e-08 1.3222530696163155e-08 2.659606196516376e-08 7.456588710709182 3.0553626349933213e-09 1.322253023957878e-08 3.0553621784089374e-09 7.45658872063874" Properties=species:S:1:pos:R:3:forces:R:3 structure_index=9 total_energy=-55.2119026184082 stress="0.018912045285105705 -1.8345771479744144e-07 3.883116335146042e-07 -1.6426523075097066e-07 0.018911859020590782 -4.293656274967361e-08 4.460804063910473e-07 -4.94195155908983e-08 0.018911786377429962" pbc="T T T"
Li      -0.00000002      -0.00000001      -0.00000001      -0.00000004      -0.00000001      -0.00000003
Li       3.72829437       3.72829437      -0.00000001      -0.00000009      -0.00000004      -0.00000017
Li       3.72829437      -0.00000001       3.72829437      -0.00000013       0.00000002       0.00000013
Li       0.00000000       3.72829436       3.72829436      -0.00000005      -0.00000008      -0.00000007
Sn       1.86414719       1.86414718       1.86414719       0.00000000       0.00000015       0.00000012
Sn       5.59244155       5.59244154       5.59244154      -0.00000002      -0.00000016      -0.00000012
Sn       5.59244152       1.86414720       1.86414719       0.00000001       0.00000006       0.00000006
Sn       1.86414722       5.59244153       5.59244153       0.00000001      -0.00000001      -0.00000010
Sn       5.59244154       5.59244154       1.86414720      -0.00000012       0.00000007       0.00000014
Sn       1.86414719       1.86414719       5.59244152       0.00000003       0.00000008      -0.00000008
Sn       1.86414720       5.59244151       1.86414719      -0.00000006       0.00000007       0.00000012
Sn       5.59244155       1.86414721       5.59244154       0.00000003      -0.00000007      -0.00000000
Sn       0.00000003       0.00000002       3.72829438       0.00000025       0.00000007       0.00000000
Sn       3.72829438       0.00000003       0.00000003       0.00000000      -0.00000003      -0.00000012
Sn       0.00000004       3.72829437       0.00000002       0.00000017      -0.00000005      -0.00000005
Sn       3.72829439       3.72829438       3.72829438       0.00000003      -0.00000005       0.00000019
20
Lattice="8.256951266093397 -9.67441126140439e-08 -2.3799231712858204 -6.10438297226702e-08 4.721460370342118 -1.851152310396529e-08 0.0037135217485915143 -3.707889605888742e-08 9.513440141594526" Properties=species:S:1:pos:R:3:forces:R:3 structure_index=10 total_energy=-57.537723541259766 stress="-0.00889561977237463 1.930942339356534e-08 -0.0001210572081618011 8.007209117977254e-08 -0.00940635334700346 -1.5067374192767602e-07 -0.00012090755626559258 -1.1263830401730957e-07 -0.004806771874427795" pbc="T T T"
Li       0.04598359       3.54109524       8.35568244      -0.00515694      -0.00000009       0.00688489
Li       8.21468111       1.18036498      -1.22216544       0.00515713      -0.00000001      -0.00688435
Li       0.05225137       1.18036506       5.96148942      -0.04773241       0.00000009       0.00843809
Li       8.20841335       3.54109519       1.17202750       0.04773320      -0.00000007      -0.00843738
Li       1.53622727       3.54109522       5.92845198      -0.04070176       0.00000003      -0.00583951
Li       6.72443742       1.18036497       1.20506496       0.04070238      -0.00000000       0.00583943
Li       1.63763562       3.54109527       1.24050381      -0.01757399      -0.00000003      -0.01328641
Li       6.62302909       1.18036497       5.89301311       0.01757385      -0.00000008       0.01328560
Li       3.25121046       1.18036501       1.19575674      -0.02231972       0.00000007      -0.00578616
Li       5.00945429       3.54109520       5.93776022       0.02232018       0.00000000       0.00578553
Li       3.30056132       3.54109523       3.67429195       0.02168493      -0.00000003      -0.02056539
Li       4.96010338       1.18036498       3.45922501      -0.02168600       0.00000008       0.02056680
Li       3.31731423       3.54109521       8.23481830       0.00446567       0.00000005       0.01118900
Li       4.94335053       1.18036502      -1.10130136      -0.00446570      -0.00000002      -0.01118908
Sn       1.62148411       1.18036503       3.50978033       0.00315527      -0.00000005      -0.02752957
Sn       6.63918062       3.54109522       3.62373662      -0.00315395      -0.00000009       0.02753070
Sn       1.65806411       1.18036504       8.37493323      -0.01444648       0.00000013       0.02063876
Sn       6.60260060       3.54109520      -1.24141620       0.01444637       0.00000009      -0.02063987
Sn       3.31710852       1.18036505       5.92937122       0.02816693      -0.00000005      -0.00154179
Sn       4.94355627       3.54109528       1.20414567      -0.02816895      -0.00000006       0.00154070
14
Lattice="10.453820434004648 1.6206735269934746e-07 9.782909048977676e-08 1.6206735438045007e-07 10.453820434677018 9.048426680983158e-08 2.947693119589674e-08 2.726385875903083e-08 3.1726007459365273" Properties=species:S:1:pos:R:3:forces:R:3 structure_index=11 total_energy=-48.154296875 stress="-0.004632852040231228 -1.260132307834283e-06 3.4429845641170687e-08 -1.122412982113019e-06 -0.004634360317140818 2.509458454369451e-07 1.0137680561683737e-07 2.691730003334669e-07 0.0019340950530022383" pbc="T T T"
Li       1.82018799       7.04709811       1.58630045       0.03494406       0.03494207      -0.00000015
Li       8.63363263       3.40672251       1.58630048      -0.03494500      -0.03494333      -0.00000019
Li       3.40672241       1.82018793       1.58630042      -0.03494257       0.03494343      -0.00000003
Li       7.04709821       8.63363269       1.58630052       0.03494366      -0.03494349      -0.00000005
Sn       0.72078039       2.14270940       0.00000003       0.01425487      -0.00650987      -0.00000004
Sn       9.73304022       8.31111120       0.00000016      -0.01425361       0.00650827       0.00000000
Sn       8.31111107       0.72078048       0.00000009       0.00650755       0.01425669      -0.00000001
Sn       2.14270954       9.73304011       0.00000010      -0.00651041      -0.01425536      -0.00000009
Sn       5.94769061       3.08420092       0.00000008       0.01425702       0.00650787       0.00000018
Sn       4.50612997       7.36961968       0.00000010      -0.01425671      -0.00651158       0.00000019
Sn       3.08420090       4.50612991       0.00000007       0.00650849      -0.01425353      -0.00000006
Sn       7.36961969       5.94769068       0.00000012      -0.00651007       0.01425497      -0.00000004
Sn       0.00000009       5.22691022       0.00000004       0.00000197       0.00000106       0.00000028
Sn       5.22691022       0.00000009       0.00000005       0.00000084       0.00000278       0.00000002
12
Lattice="8.642016967748132 -2.183124527512826e-08 -1.8983210537462688e-07 -1.2142460857102764e-08 5.349362013941991 -4.673336809588974e-08 -1.034518804069467e-07 -4.578967673083533e-08 5.034971844539608" Properties=species:S:1:pos:R:3:forces:R:3 structure_index=12 total_energy=-35.21881103515625 stress="0.0039688716642558575 -1.3256054671728634e-06 1.5358753557848104e-07 -1.4833316299700527e-06 0.001545931096188724 -1.0256906080030603e-06 1.7824378062414326e-07 -1.0507578735996503e-06 0.0134063009172678" pbc="T T T"
Li       1.42591635       1.85715452       3.77622887       0.00119364       0.02169754      -0.00000061
Li       7.21610053       3.49220748       1.25874274      -0.00119553      -0.02169811      -0.00000041
Li       1.42591637       3.49220747       1.25874282       0.00119339      -0.02169672      -0.00000015
Li       7.21610056       1.85715450       3.77622875      -0.00119498       0.02169867      -0.00000004
Li       5.74692476       4.53183541       3.77622873       0.00119374       0.02169634      -0.00000003
Li       2.89509203       0.81752649       1.25874290      -0.00119409      -0.02169743       0.00000058
Li       5.74692493       0.81752645       1.25874283       0.00119484      -0.02169680      -0.00000014
Li       2.89509200       4.53183548       3.77622882      -0.00119558       0.02169770      -0.00000038
Sn      -0.00000006       0.82050573       1.25874301      -0.00000044      -0.02039363       0.00000091
Sn      -0.00000014       4.52885626       3.77622881       0.00000281       0.02039225       0.00000032
Sn       4.32100841       3.49518683       1.25874283       0.00000192      -0.02039418      -0.00000037
Sn       4.32100840       1.85417507       3.77622875       0.00000027       0.02039438       0.00000034
4
Lattice="4.67058410908401 -2.7633083844576754e-08 4.054548617199426e-08 -2.7633083093489534e-08 4.6705840382518655 -2.1439087832786868e-08 4.0545485886003467e-08 -2.143908811877767e-08 4.670584152552691" Properties=species:S:1:pos:R:3:forces:R:3 structure_index=13 total_energy=-13.957191467285156 stress="-0.04244179651141167 -2.9017435565492633e-08 4.136458731096582e-09 -3.928457203983271e-08 -0.042442552745342255 2.741322759902687e-07 1.5667474428937567e-08 2.5284691673732596e-07 -0.04244232922792435" pbc="T T T"
Li       0.00000000       0.00000000       0.00000000      -0.00000003      -0.00000014      -0.00000010
Sn       0.00000001       2.33529201       2.33529206       0.00000000       0.00000000       0.00000009
Sn       2.33529207      -0.00000002       2.33529209       0.00000000      -0.00000001       0.00000002
Sn       2.33529204       2.33529200       0.00000001       0.00000003       0.00000015      -0.00000001
32
Lattice="6.729860974365229 -1.9954480918811236e-08 3.684111678407081e-08 -2.420215208260827e-08 6.744212619701783 -5.8501315476417096e-08 7.653929592706584e-08 -1.0020831089251137e-07 13.156820673436204" Properties=species:S:1:pos:R:3:forces:R:3 structure_index=14 total_energy=-75.24361419677734 stress="-0.008213524706661701 -3.596811950501433e-07 -3.1026772262521263e-07 -2.553327078658185e-07 0.004912600386887789 1.811193754974738e-07 -4.3178343389627116e-07 3.024240058380201e-08 0.004637258127331734" pbc="T T T"
Li       1.68246524       1.68605313       1.55775614       0.00000007       0.00000003       0.01454473
Li       5.04739577       5.05815934      11.59906448      -0.00000055      -0.00000017      -0.01454597
Li       5.04739571       5.05815942       1.55775612      -0.00000032       0.00000012       0.01454507
Li       1.68246531       1.68605308      11.59906453       0.00000017       0.00000025      -0.01454558
Li       1.68246529       5.05815935      11.59906448      -0.00000037       0.00000030      -0.01454579
Li       5.04739574       1.68605311       1.55775614       0.00000008       0.00000003       0.01454481
Li       5.04739578       1.68605305      11.59906454      -0.00000085       0.00000034      -0.01454592
Li       1.68246522       5.05815944       1.55775612      -0.00000005       0.00000009       0.01454498
Li       5.04739579       1.68605307       8.13616649       0.00000018       0.00000035       0.01454550
Li       1.68246526       5.05815941       5.02065416       0.00000045       0.00000034      -0.01454534
Li       1.68246527       5.05815939       8.13616643      -0.00000036       0.00000013       0.01454489
Li       5.04739576       1.68605310       5.02065422      -0.00000068       0.00000039      -0.01454515
Li       5.04739575       5.05815939       5.02065417      -0.00000070      -0.00000011      -0.01454570
Li       1.68246529       1.68605308       8.13616646      -0.00000050       0.00000024       0.01454506
Li       1.68246526       1.68605311       5.02065418       0.00000019      -0.00000017      -0.01454521
Li       5.04739576       5.05815939       8.13616645      -0.00000008       0.00000004       0.01454531
Li       0.00000004      -0.00000002       3.06355995       0.00000013      -0.00000011       0.04169138
Li       0.00000003      -0.00000009      10.09326066      -0.00000041      -0.00000009      -0.04169142
Li       3.36493055      -0.00000009       9.64197029       0.00000053       0.00000005       0.04169088
Li       3.36493050      -0.00000003       3.51485039       0.00000017      -0.00000028      -0.04169071
Li       3.36493049       3.37210629       3.06355994       0.00000000      -0.00000004       0.04169150
Li       3.36493052       3.37210623      10.09326067       0.00000050      -0.00000008      -0.04169102
Li       0.00000005       3.37210624       9.64197025      -0.00000029      -0.00000040       0.04169094
Li       0.00000001       3.37210630       3.51485034       0.00000008       0.00000006      -0.04169104
Li       0.00000003      -0.00000004       6.57841037       0.00000028       0.00000013       0.00000008
Li       3.36493050       0.00000001       0.00000005       0.00000029       0.00000011       0.00000036
Li       3.36493050       3.37210627       6.57841035       0.00000039       0.00000004      -0.00000030
Li       0.00000000       3.37210632      -0.00000000       0.00000048      -0.00000004       0.00000052
Sn       0.00000004       0.00000004       0.00000008       0.00000035      -0.00000058       0.00000155
Sn       3.36493054      -0.00000004       6.57841039      -0.00000024      -0.00000080      -0.00000084
Sn       3.36493047       3.37210629       0.00000002       0.00000047      -0.00000013       0.00000150
Sn       0.00000001       3.37210625       6.57841032       0.00000053      -0.00000012       0.00000095
9
Lattice="10.38179722547094 4.0168144110219116e-07 2.9523972560164872e-08 -5.190898264869135 8.990899646842948 2.1395512636114724e-08 8.833534596441208e-09 1.249187038406745e-08 3.1014286883975815" Properties=species:S:1:pos:R:3:forces:R:3 structure_index=15 total_energy=-32.3646240234375 stress="-0.01102067157626152 2.976134965138044e-06 -9.648924788052682e-07 2.956936214104644e-06 -0.011004012078046799 -6.185208007991605e-07 -9.327121688329498e-07 -6.728472499162308e-07 -0.01875726506114006" pbc="T T T"
Li      -0.00000000       0.00000003       1.55071434      -0.00000064       0.00000010      -0.00000010
Sn       0.00000013       2.99336724       0.00000001      -0.00000014      -0.03284516      -0.00000009
Sn       5.19089883       5.99753282       0.00000004       0.00000049       0.03284660       0.00000001
Sn       7.78946510       1.49668393       0.00000003       0.02845052      -0.01643158       0.00000007
Sn      -2.59856613       7.49421611       0.00000002      -0.02844670       0.01642905      -0.00000011
Sn       2.59856672       7.49421629       0.00000004       0.02844626       0.01642899       0.00000003
Sn       2.59233225       1.49668375       0.00000001      -0.02844632      -0.01642983       0.00000020
Sn       0.00000023       5.99393325       0.00000002       0.00000013      -0.00000093      -0.00000017
Sn       5.19089871       2.99696680       0.00000003      -0.00000360       0.00000271       0.00000016
8
Lattice="4.668754597161591 1.3213108723484255e-08 -3.258534428318118e-08 1.321310947427725e-08 4.668754572236135 9.268924961743823e-08 -6.794011697308522e-08 1.9325615634278624e-07 9.370827188887981" Properties=species:S:1:pos:R:3:forces:R:3 structure_index=16 total_energy=-27.910171508789062 stress="0.02719731256365776 -1.5374656925359886e-07 -2.558877554292849e-07 -1.5737809633264987e-07 0.027198750525712967 -3.6659037050412735e-07 -2.33939957183793e-07 -4.305044001284841e-07 -0.03453385829925537" pbc="T T T"
Li      -0.00000000       0.00000000      -0.00000002       0.00000005      -0.00000007      -0.00000025
Li       2.33437727       2.33437739       4.68541363      -0.00000002       0.00000034      -0.00000042
Sn      -0.00000001       2.33437733       2.34270684       0.00000009      -0.00000044       0.00000204
Sn      -0.00000004       2.33437745       7.02812045      -0.00000004       0.00000010       0.00000057
Sn       2.33437728       0.00000006       2.34270678      -0.00000009      -0.00000006       0.00000226
Sn       2.33437725       0.00000014       7.02812039       0.00000002      -0.00000069      -0.00000020
Sn      -0.00000003       0.00000009       4.68541358      -0.00000009      -0.00000016      -0.00000113
Sn       2.33437730       2.33437728       0.00000002       0.00000008       0.00000099      -0.00000285
6