# Tetrahedron method
       -1.3834984108        0.0000000000
       -1.3004885217        0.0000000000
       -1.2174786326        0.0000000000
       -1.1344687435        0.0000000000
       -1.0514588544        0.0000000000
       -0.9684489653        0.0000000000
       -0.8854390762        0.0000000000
       -0.8024291871        0.0000000000
       -0.7194192980        0.0000000000
       -0.6364094089        0.0000000000
       -0.5533995198        0.0000000000
       -0.4703896307        0.0000000000
       -0.3873797416        0.0000000000
       -0.3043698525        0.0000000000
       -0.2213599634        0.0000000000
       -0.1383500743        0.0000000000
       -0.0553401852        0.0000000000
        0.0276697040        0.0012333036
        0.1106795931        0.0197328946
        0.1936894822        0.0860329894
        0.2766993713        0.1789554107
        0.3597092604        0.3312192586
        0.4427191495        0.5070545945
        0.5257290386        0.7345344246
        0.6087389277        1.0305946608
        0.6917488168        1.4120400680
        0.7747587059        1.9351355328
        0.8577685950        2.8474398542
        0.9407784841        3.6609108464
        1.0237883732        3.7578717573
        1.1067982623        3.7851174996
        1.1898081514        3.9651602064
        1.2728180405        2.4352463491
        1.3558279296        1.0713455518
        1.4388378187        2.1412443245
        1.5218477078        5.2423136536
        1.6048575969        8.1738505823
        1.6878674860        8.2957706336
        1.7708773751        8.9487507417
        1.8538872642        4.6239561245
        1.9368971533        0.2124156254
        2.0199070424        0.0000000000
        2.1029169315       24.5350739120
        2.1859268206       14.6686986426
        2.2689367097       17.1902876997
        2.3519465988       11.5890125755
        2.4349564879       18.9836355547
        2.5179663770       13.1509762409
        2.6009762661       14.9222686653
        2.6839861552       24.8531684248
        2.7669960443        2.0498149863
        2.8500059334        5.9486513986
        2.9330158225       13.6952109296
        3.0160257116        5.9013134217
        3.0990356007       20.3064638561
        3.1820454898        1.7942270671
        3.2650553789        6.4755625433
        3.3480652680        2.9714749245
        3.4310751571        0.6235263157
        3.5140850462        0.0000000000
        3.5970949353        0.0000000000
        3.6801048244        0.0000000000
        3.7631147135        0.0000000000
        3.8461246026        0.0000000000
        3.9291344917        0.0000000000
        4.0121443808        0.0000000000
        4.0951542699        0.0000000000
        4.1781641590        0.0000000000
        4.2611740481        0.0000000000
        4.3441839373        0.0000000000
        4.4271938264        0.0000000000
        4.5102037155        0.0000000000
        4.5932136046        0.0000000000
        4.6762234937        0.0000000000
        4.7592333828        0.0000000000
        4.8422432719        0.0000000000
        4.9252531610        0.0000000000
        5.0082630501        0.0000000000
        5.0912729392       10.8246735810
        5.1742828283        3.2816079690
        5.2572927174        1.3690265137
        5.3403026065        0.4732708486
        5.4233124956        4.7846882387
        5.5063223847        3.1081100894
        5.5893322738        2.3548097866
        5.6723421629        7.5037357509
        5.7553520520        7.5913133663
        5.8383619411        3.8618704891
        5.9213718302        6.9391738916
        6.0043817193        7.8701775187
        6.0873916084        1.4024472478
        6.1704014975        1.6578157750
        6.2534113866        4.4660205091
        6.3364212757        4.9821752924
        6.4194311648        5.3707556750
        6.5024410539        4.4384739197
        6.5854509430       28.2358190130
        6.6684608321        5.4764437662
        6.7514707212        8.0273760982
        6.8344806103       14.6615474565
        6.9174904994        0.0000000000
        7.0005003885        7.7459032011
        7.0835102776        9.1596282642
        7.1665201667        2.1676920101
        7.2495300558        5.0233853141
        7.3325399449       10.4352992580
        7.4155498340        4.7430581994
        7.4985597231       10.1689923043
        7.5815696122       20.6339736600
        7.6645795013       14.9696026819
        7.7475893904       11.4806162292
        7.8305992795       14.4688582676
        7.9136091686        6.1488043722
        7.9966190577        0.0000000000
        8.0796289468        0.0000000000
        8.1626388359        0.0000000000
        8.2456487250        0.0000000000
        8.3286586141        0.0000000000
        8.4116685032        0.0000000000
        8.4946783923        0.0000000000
        8.5776882814       25.1975671418
        8.6606981705       15.6011613113
        8.7437080597        2.9293566732
        8.8267179488        2.6304627600
        8.9097278379        4.9920971076
        8.9927377270        4.9326182926
        9.0757476161        4.6952867954
        9.1587575052        4.5649575492
        9.2417673943       50.6464369998
        9.3247772834        3.2327073320
        9.4077871725        9.9036176876
        9.4907970616       13.5635956963
        9.5738069507        0.0000000000
        9.6568168398        0.0105592594
        9.7398267289        1.1809903298
        9.8228366180        2.1816713530
        9.9058465071        3.4685508711
        9.9888563962        5.3653590937
       10.0718662853        9.9640005404
       10.1548761744       11.6818811384
       10.2378860635        5.1511486522
       10.3208959526        9.9832334619
       10.4039058417       32.9432809920
       10.4869157308       14.8674830962
       10.5699256199       14.4866763514
       10.6529355090        0.0000000000
       10.7359453981        0.0000000000
       10.8189552872        0.0000000000
       10.9019651763        0.0000000000
       10.9849750654        0.0000000000
       11.0679849545        0.0000000000
       11.1509948436        0.0000000000
       11.2340047327        0.0000000000
       11.3170146218        0.0000000000
       11.4000245109        0.0000000000
       11.4830344000        0.0000000000
       11.5660442891        0.0000000000
       11.6490541782        0.0000000000
       11.7320640673        0.0000000000
       11.8150739564        0.0000000000
       11.8980838455        0.0000000000
       11.9810937346        0.0000000000
       12.0641036237        0.0000000000
       12.1471135128        0.0000000000
       12.2301234019        0.0000000000
       12.3131332910        0.0000000000
       12.3961431801        0.0000000000
       12.4791530692        0.0000000000
       12.5621629583        0.0000000000
       12.6451728474        0.0000000000
       12.7281827365        0.0000000000
       12.8111926256        0.0000000000
       12.8942025147        0.3178689730
       12.9772124038        1.1606916753
       13.0602222929        2.0317068106
       13.1432321821        3.9951131447
       13.2262420712        3.1030533724
       13.3092519603        1.8590054659
       13.3922618494        0.8222494350
       13.4752717385        2.7627887026
       13.5582816276        3.8301808011
       13.6412915167        2.7392839662
       13.7243014058        1.4821500013
       13.8073112949       14.3720902200
       13.8903211840        0.0000000000
       13.9733310731        0.0000000000
       14.0563409622        0.0000000000
       14.1393508513        0.0000000000
       14.2223607404        0.0000000000
       14.3053706295        0.0000000000
       14.3883805186        0.0000000000
       14.4713904077        0.0000000000
       14.5544002968        0.0000000000
       14.6374101859        0.0000000000
       14.7204200750        0.0000000000
       14.8034299641        0.0000000000
       14.8864398532        0.0000000000
       14.9694497423        0.0000000000
       15.0524596314        0.0000000000
       15.1354695205        0.0000000000
       15.2184794096        0.0000000000
