phonopy:
  version: "2.37.1"
  frequency_unit_conversion_factor: 15.633302
  symmetry_tolerance: 1.00000e-05

space_group:
  type: "P1"
  number: 1
  Hall_symbol: "P 1"

primitive_matrix:
- [ -1.000000000000000,  0.000000000000000,  0.000000000000000 ]
- [  0.000000000000000, -1.000000000000000, -0.000000000000000 ]
- [  0.000000000000000,  0.000000000000000,  1.000000000000000 ]

supercell_matrix:
- [   2,   0,   0 ]
- [   0,   2,   0 ]
- [   0,   0,   1 ]

primitive_cell:
  lattice:
  - [    -5.656379278900167,     0.000000000000000,     0.000000000000000 ] # a
  - [     2.824981663978305,    -4.902036213418993,     0.000000000000000 ] # b
  - [     0.000276629068440,     0.000229343325045,    12.446872167869602 ] # c
  points:
  - symbol: Sn # 1
    coordinates: [  0.984290090844025,  0.992602707377987,  0.506464677590537 ]
    mass: 118.710000
  - symbol: Sn # 2
    coordinates: [  0.651364346705006,  0.325567165653156,  0.257646928357077 ]
    mass: 118.710000
  - symbol: Sn # 3
    coordinates: [  0.650646796798768,  0.326398535715082,  0.007310568745427 ]
    mass: 118.710000
  - symbol: Sn # 4
    coordinates: [  0.316615982890300,  0.659624839487510,  0.757033012524801 ]
    mass: 118.710000
  - symbol: Sn # 5
    coordinates: [  0.651197279343186,  0.326263756973644,  0.506455668477930 ]
    mass: 118.710000
  - symbol: Sn # 6
    coordinates: [  0.317580383466410,  0.658941705148550,  0.506424962320137 ]
    mass: 118.710000
  - symbol: Sn # 7
    coordinates: [  0.983841887592818,  0.992699008346913,  0.007383322675658 ]
    mass: 118.710000
  - symbol: Sn # 8
    coordinates: [  0.650239684126988,  0.326735221362244,  0.757043998513990 ]
    mass: 118.710000
  - symbol: Sn # 9
    coordinates: [  0.317672332404789,  0.658470581287777,  0.257699388872051 ]
    mass: 118.710000
  - symbol: Sn # 10
    coordinates: [  0.984748274403644,  0.992321644319974,  0.257579855801855 ]
    mass: 118.710000
  - symbol: Sn # 11
    coordinates: [  0.317153541503088,  0.659510455930431,  0.007516902969395 ]
    mass: 118.710000
  - symbol: Sn # 12
    coordinates: [  0.983487763654944,  0.993076747421790,  0.756628857968630 ]
    mass: 118.710000
  reciprocal_lattice: # without 2pi
  - [    -0.176791539374008,    -0.101882735119522,     0.000005806422940 ] # a*
  - [    -0.000000000000000,    -0.203996860990657,     0.000003758801229 ] # b*
  - [    -0.000000000000000,    -0.000000000000000,     0.080341469448156 ] # c*

unit_cell:
  lattice:
  - [     5.656379278900167,     0.000000000000000,     0.000000000000000 ] # a
  - [    -2.824981663978304,     4.902036213418993,     0.000000000000000 ] # b
  - [     0.000276629068440,     0.000229343325045,    12.446872167869602 ] # c
  points:
  - symbol: Sn # 1
    coordinates: [  0.015709909155975,  0.007397292622013,  0.506464677590537 ]
    mass: 118.710000
    reduced_to: 1
  - symbol: Sn # 2
    coordinates: [  0.348635653294994,  0.674432834346844,  0.257646928357077 ]
    mass: 118.710000
    reduced_to: 2
  - symbol: Sn # 3
    coordinates: [  0.349353203201232,  0.673601464284918,  0.007310568745427 ]
    mass: 118.710000
    reduced_to: 3
  - symbol: Sn # 4
    coordinates: [  0.683384017109700,  0.340375160512490,  0.757033012524801 ]
    mass: 118.710000
    reduced_to: 4
  - symbol: Sn # 5
    coordinates: [  0.348802720656814,  0.673736243026356,  0.506455668477930 ]
    mass: 118.710000
    reduced_to: 5
  - symbol: Sn # 6
    coordinates: [  0.682419616533590,  0.341058294851450,  0.506424962320137 ]
    mass: 118.710000
    reduced_to: 6
  - symbol: Sn # 7
    coordinates: [  0.016158112407182,  0.007300991653087,  0.007383322675658 ]
    mass: 118.710000
    reduced_to: 7
  - symbol: Sn # 8
    coordinates: [  0.349760315873012,  0.673264778637756,  0.757043998513990 ]
    mass: 118.710000
    reduced_to: 8
  - symbol: Sn # 9
    coordinates: [  0.682327667595211,  0.341529418712223,  0.257699388872051 ]
    mass: 118.710000
    reduced_to: 9
  - symbol: Sn # 10
    coordinates: [  0.015251725596356,  0.007678355680026,  0.257579855801855 ]
    mass: 118.710000
    reduced_to: 10
  - symbol: Sn # 11
    coordinates: [  0.682846458496912,  0.340489544069569,  0.007516902969395 ]
    mass: 118.710000
    reduced_to: 11
  - symbol: Sn # 12
    coordinates: [  0.016512236345056,  0.006923252578210,  0.756628857968630 ]
    mass: 118.710000
    reduced_to: 12

supercell:
  lattice:
  - [    11.312758557800334,     0.000000000000000,     0.000000000000000 ] # a
  - [    -5.649963327956608,     9.804072426837987,     0.000000000000000 ] # b
  - [     0.000276629068440,     0.000229343325045,    12.446872167869602 ] # c
  points:
  - symbol: Sn # 1
    coordinates: [  0.007854954577988,  0.003698646311006,  0.506464677590537 ]
    mass: 118.710000
    reduced_to: 1
  - symbol: Sn # 2
    coordinates: [  0.507854954577988,  0.003698646311006,  0.506464677590537 ]
    mass: 118.710000
    reduced_to: 1
  - symbol: Sn # 3
    coordinates: [  0.007854954577988,  0.503698646311006,  0.506464677590537 ]
    mass: 118.710000
    reduced_to: 1
  - symbol: Sn # 4
    coordinates: [  0.507854954577988,  0.503698646311006,  0.506464677590537 ]
    mass: 118.710000
    reduced_to: 1
  - symbol: Sn # 5
    coordinates: [  0.174317826647497,  0.337216417173422,  0.257646928357077 ]
    mass: 118.710000
    reduced_to: 5
  - symbol: Sn # 6
    coordinates: [  0.674317826647497,  0.337216417173422,  0.257646928357077 ]
    mass: 118.710000
    reduced_to: 5
  - symbol: Sn # 7
    coordinates: [  0.174317826647497,  0.837216417173422,  0.257646928357077 ]
    mass: 118.710000
    reduced_to: 5
  - symbol: Sn # 8
    coordinates: [  0.674317826647497,  0.837216417173422,  0.257646928357077 ]
    mass: 118.710000
    reduced_to: 5
  - symbol: Sn # 9
    coordinates: [  0.174676601600616,  0.336800732142459,  0.007310568745427 ]
    mass: 118.710000
    reduced_to: 9
  - symbol: Sn # 10
    coordinates: [  0.674676601600616,  0.336800732142459,  0.007310568745427 ]
    mass: 118.710000
    reduced_to: 9
  - symbol: Sn # 11
    coordinates: [  0.174676601600616,  0.836800732142459,  0.007310568745427 ]
    mass: 118.710000
    reduced_to: 9
  - symbol: Sn # 12
    coordinates: [  0.674676601600616,  0.836800732142459,  0.007310568745427 ]
    mass: 118.710000
    reduced_to: 9
  - symbol: Sn # 13
    coordinates: [  0.341692008554850,  0.170187580256245,  0.757033012524801 ]
    mass: 118.710000
    reduced_to: 13
  - symbol: Sn # 14
    coordinates: [  0.841692008554850,  0.170187580256245,  0.757033012524801 ]
    mass: 118.710000
    reduced_to: 13
  - symbol: Sn # 15
    coordinates: [  0.341692008554850,  0.670187580256245,  0.757033012524801 ]
    mass: 118.710000
    reduced_to: 13
  - symbol: Sn # 16
    coordinates: [  0.841692008554850,  0.670187580256245,  0.757033012524801 ]
    mass: 118.710000
    reduced_to: 13
  - symbol: Sn # 17
    coordinates: [  0.174401360328407,  0.336868121513178,  0.506455668477930 ]
    mass: 118.710000
    reduced_to: 17
  - symbol: Sn # 18
    coordinates: [  0.674401360328407,  0.336868121513178,  0.506455668477930 ]
    mass: 118.710000
    reduced_to: 17
  - symbol: Sn # 19
    coordinates: [  0.174401360328407,  0.836868121513178,  0.506455668477930 ]
    mass: 118.710000
    reduced_to: 17
  - symbol: Sn # 20
    coordinates: [  0.674401360328407,  0.836868121513178,  0.506455668477930 ]
    mass: 118.710000
    reduced_to: 17
  - symbol: Sn # 21
    coordinates: [  0.341209808266795,  0.170529147425725,  0.506424962320137 ]
    mass: 118.710000
    reduced_to: 21
  - symbol: Sn # 22
    coordinates: [  0.841209808266795,  0.170529147425725,  0.506424962320137 ]
    mass: 118.710000
    reduced_to: 21
  - symbol: Sn # 23
    coordinates: [  0.341209808266795,  0.670529147425725,  0.506424962320137 ]
    mass: 118.710000
    reduced_to: 21
  - symbol: Sn # 24
    coordinates: [  0.841209808266795,  0.670529147425725,  0.506424962320137 ]
    mass: 118.710000
    reduced_to: 21
  - symbol: Sn # 25
    coordinates: [  0.008079056203591,  0.003650495826543,  0.007383322675658 ]
    mass: 118.710000
    reduced_to: 25
  - symbol: Sn # 26
    coordinates: [  0.508079056203591,  0.003650495826543,  0.007383322675658 ]
    mass: 118.710000
    reduced_to: 25
  - symbol: Sn # 27
    coordinates: [  0.008079056203591,  0.503650495826543,  0.007383322675658 ]
    mass: 118.710000
    reduced_to: 25
  - symbol: Sn # 28
    coordinates: [  0.508079056203591,  0.503650495826543,  0.007383322675658 ]
    mass: 118.710000
    reduced_to: 25
  - symbol: Sn # 29
    coordinates: [  0.174880157936506,  0.336632389318878,  0.757043998513990 ]
    mass: 118.710000
    reduced_to: 29
  - symbol: Sn # 30
    coordinates: [  0.674880157936506,  0.336632389318878,  0.757043998513990 ]
    mass: 118.710000
    reduced_to: 29
  - symbol: Sn # 31
    coordinates: [  0.174880157936506,  0.836632389318878,  0.757043998513990 ]
    mass: 118.710000
    reduced_to: 29
  - symbol: Sn # 32
    coordinates: [  0.674880157936506,  0.836632389318878,  0.757043998513990 ]
    mass: 118.710000
    reduced_to: 29
  - symbol: Sn # 33
    coordinates: [  0.341163833797606,  0.170764709356112,  0.257699388872051 ]
    mass: 118.710000
    reduced_to: 33
  - symbol: Sn # 34
    coordinates: [  0.841163833797606,  0.170764709356112,  0.257699388872051 ]
    mass: 118.710000
    reduced_to: 33
  - symbol: Sn # 35
    coordinates: [  0.341163833797606,  0.670764709356112,  0.257699388872051 ]
    mass: 118.710000
    reduced_to: 33
  - symbol: Sn # 36
    coordinates: [  0.841163833797606,  0.670764709356112,  0.257699388872051 ]
    mass: 118.710000
    reduced_to: 33
  - symbol: Sn # 37
    coordinates: [  0.007625862798178,  0.003839177840013,  0.257579855801855 ]
    mass: 118.710000
    reduced_to: 37
  - symbol: Sn # 38
    coordinates: [  0.507625862798178,  0.003839177840013,  0.257579855801855 ]
    mass: 118.710000
    reduced_to: 37
  - symbol: Sn # 39
    coordinates: [  0.007625862798178,  0.503839177840013,  0.257579855801855 ]
    mass: 118.710000
    reduced_to: 37
  - symbol: Sn # 40
    coordinates: [  0.507625862798178,  0.503839177840013,  0.257579855801855 ]
    mass: 118.710000
    reduced_to: 37
  - symbol: Sn # 41
    coordinates: [  0.341423229248456,  0.170244772034785,  0.007516902969395 ]
    mass: 118.710000
    reduced_to: 41
  - symbol: Sn # 42
    coordinates: [  0.841423229248456,  0.170244772034785,  0.007516902969395 ]
    mass: 118.710000
    reduced_to: 41
  - symbol: Sn # 43
    coordinates: [  0.341423229248456,  0.670244772034784,  0.007516902969395 ]
    mass: 118.710000
    reduced_to: 41
  - symbol: Sn # 44
    coordinates: [  0.841423229248456,  0.670244772034784,  0.007516902969395 ]
    mass: 118.710000
    reduced_to: 41
  - symbol: Sn # 45
    coordinates: [  0.008256118172528,  0.003461626289105,  0.756628857968630 ]
    mass: 118.710000
    reduced_to: 45
  - symbol: Sn # 46
    coordinates: [  0.508256118172528,  0.003461626289105,  0.756628857968630 ]
    mass: 118.710000
    reduced_to: 45
  - symbol: Sn # 47
    coordinates: [  0.008256118172528,  0.503461626289105,  0.756628857968630 ]
    mass: 118.710000
    reduced_to: 45
  - symbol: Sn # 48
    coordinates: [  0.508256118172528,  0.503461626289105,  0.756628857968630 ]
    mass: 118.710000
    reduced_to: 45

displacements:
- atom:    1
  displacement:
    [   0.0100000000000000,  0.0000000000000000,  0.0000000000000000 ]
  forces:
  - [  -0.0173922628164291,  0.0000222092385229,  0.0216410346329212 ]
  - [   0.0018349529709667, -0.0000117868949019,  0.0216747708618641 ]
  - [  -0.0005058330134489, -0.0013673513894901,  0.0216741673648357 ]
  - [  -0.0004922610823996,  0.0013419231399894,  0.0216733235865831 ]
  - [   0.0019642845727503,  0.0004794474225491, -0.0222865380346775 ]
  - [   0.0017493407940492,  0.0004813058767468, -0.0222875624895096 ]
  - [   0.0021646909881383,  0.0003626332618296, -0.0223341751843691 ]
  - [   0.0021713702008128,  0.0006018580170348, -0.0221999697387218 ]
  - [  -0.0003883976023644,  0.0025931329000741, -0.0018849434563890 ]
  - [  -0.0003914029803127,  0.0025940276682377, -0.0018836138769984 ]
  - [  -0.0003917355788872,  0.0025926723610610, -0.0018910586368293 ]
  - [  -0.0003883967874572,  0.0025919564068317, -0.0018793636700138 ]
  - [  -0.0020626087207347, -0.0014654636615887, -0.0001643317518756 ]
  - [  -0.0020545176230371, -0.0016979252686724, -0.0003565184306353 ]
  - [  -0.0024708802811801, -0.0015774134080857, -0.0002459576353431 ]
  - [  -0.0022557924967259, -0.0015718939248472, -0.0002490958431736 ]
  - [  -0.0003757062368095,  0.0036016602534801,  0.0262182671576738 ]
  - [   0.0026361369527876,  0.0035861209034920,  0.0262147150933743 ]
  - [   0.0036523430608213,  0.0012276668567210,  0.0261805504560471 ]
  - [   0.0034248412121087,  0.0057486053556204,  0.0262466147542000 ]
  - [   0.0041542607359588, -0.0013935139868408,  0.0290478654205799 ]
  - [   0.0039741764776409, -0.0059087458066642,  0.0291156321763992 ]
  - [   0.0031629372388124, -0.0037419968284667,  0.0290796402841806 ]
  - [   0.0001517378259450, -0.0037323785945773,  0.0290845595300198 ]
  - [   0.0002047390444204, -0.0015357626834884, -0.0088902926072478 ]
  - [   0.0002108972548740, -0.0015347247244790, -0.0088983606547117 ]
  - [   0.0002130903885700, -0.0015352297341451, -0.0088989417999983 ]
  - [   0.0002137798001058, -0.0015381344128400, -0.0088985059410334 ]
  - [  -0.0013661659322679,  0.0035541793331504, -0.0026323378551751 ]
  - [  -0.0015814544167370,  0.0035567977465689, -0.0026324791833758 ]
  - [  -0.0011743541108444,  0.0034418273717165, -0.0025572380982339 ]
  - [  -0.0011655836133286,  0.0036727720871568, -0.0027429149486125 ]
  - [   0.0003597895847633, -0.0042341705411673, -0.0227077696472406 ]
  - [   0.0003693924518302, -0.0044767851941288, -0.0225729364901781 ]
  - [  -0.0000545319053344, -0.0043536508455873, -0.0226576309651136 ]
  - [   0.0001589872408658, -0.0043499092571437, -0.0226522460579872 ]
  - [   0.0022451831027865,  0.0012813846115023, -0.0215447060763836 ]
  - [   0.0017072082264349,  0.0012802889104933, -0.0215843003243208 ]
  - [   0.0019130308646709,  0.0013979441719130, -0.0215864144265652 ]
  - [   0.0019109968561679,  0.0011616909177974, -0.0215856581926346 ]
  - [  -0.0010819728486240, -0.0000577423488721, -0.0088899731636047 ]
  - [  -0.0010813372209668, -0.0000552708370378, -0.0088788485154510 ]
  - [  -0.0010821609757841, -0.0000581109197810, -0.0088809253647923 ]
  - [  -0.0010802401229739, -0.0000570232514292, -0.0088834306225181 ]
  - [  -0.0000876490958035, -0.0002305743983015,  0.0120842698961496 ]
  - [  -0.0006752941408195, -0.0002304625231773,  0.0120993964374065 ]
  - [  -0.0004729571810458, -0.0001114532351494,  0.0121021289378405 ]
  - [  -0.0004746721533593, -0.0003446323098615,  0.0121021009981632 ]
- atom:    1
  displacement:
    [  -0.0100000000000000,  0.0000000000000000,  0.0000000000000000 ]
  forces:
  - [   0.0169625356793404, -0.0000479553600599,  0.0216743722558022 ]
  - [  -0.0022472077980638, -0.0000152271513798,  0.0216746721416712 ]
  - [   0.0000893505784916,  0.0013411574764177,  0.0216742679476738 ]
  - [   0.0000753213316784, -0.0013703587464988,  0.0216730721294880 ]
  - [   0.0017399127827957,  0.0004770737141371, -0.0222905576229095 ]
  - [   0.0019552609883249,  0.0004815513966605, -0.0222908928990364 ]
  - [   0.0015332057373598,  0.0006026759510860, -0.0222159624099731 ]
  - [   0.0015415023081005,  0.0003644895041361, -0.0223525427281857 ]
  - [  -0.0003921377938241,  0.0025933093857020, -0.0018835611408576 ]
  - [  -0.0003880558069795,  0.0025935717858374, -0.0018842754652724 ]
  - [  -0.0003919702721760,  0.0025918406900018, -0.0018762121908367 ]
  - [  -0.0003887562197633,  0.0025927743408829, -0.0018873866647482 ]
  - [  -0.0026727835647762, -0.0016896119341254, -0.0003514337586239 ]
  - [  -0.0026844360399991, -0.0014597901608795, -0.0001608612947166 ]
  - [  -0.0022678605746478, -0.0015769973397255, -0.0002487818710506 ]
  - [  -0.0024835208896548, -0.0015741385286674, -0.0002520190319046 ]
  - [   0.0018316300120205,  0.0035841790959239,  0.0262161977589130 ]
  - [  -0.0011859813239425,  0.0035955708008260,  0.0262172315269709 ]
  - [  -0.0020203257445246,  0.0057811858132482,  0.0262486133724451 ]
  - [  -0.0021587356459349,  0.0012605616357177,  0.0261821076273918 ]
  - [  -0.0014723388012499, -0.0059043527580798,  0.0291144773364067 ]
  - [  -0.0016563700046390, -0.0013842615298927,  0.0290479958057404 ]
  - [  -0.0006667580455542, -0.0037265042774379,  0.0290806218981743 ]
  - [   0.0023560880217701, -0.0037417476996779,  0.0290823951363564 ]
  - [   0.0002233061823063, -0.0015349240275100, -0.0089094676077366 ]
  - [   0.0002172052045353, -0.0015347088919953, -0.0089003052562475 ]
  - [   0.0002136155089829, -0.0015389237087220, -0.0088994670659304 ]
  - [   0.0002137445990229, -0.0015350136673078, -0.0088982749730349 ]
  - [  -0.0015919203869998,  0.0035543516278267, -0.0026314128190279 ]
  - [  -0.0013781858142465,  0.0035563893616199, -0.0026279264129698 ]
  - [  -0.0017851649317890,  0.0036673997528851, -0.0027237185277045 ]
  - [  -0.0017887594876811,  0.0034370594657958, -0.0025387916248292 ]
  - [  -0.0002710293629207, -0.0044770208187401, -0.0225706789642572 ]
  - [  -0.0002622806350701, -0.0042347051203251, -0.0227083433419466 ]
  - [   0.0001503807288827, -0.0043539754115045, -0.0226526670157909 ]
  - [  -0.0000617341138422, -0.0043500848114491, -0.0226518996059895 ]
  - [   0.0015764194540679,  0.0012818174436688, -0.0215557999908924 ]
  - [   0.0021160701289773,  0.0012804127763957, -0.0215839054435492 ]
  - [   0.0019116427283734,  0.0011614781105891, -0.0215859692543745 ]
  - [   0.0019129021093249,  0.0013972310116515, -0.0215862710028887 ]
  - [  -0.0010822741314769, -0.0000561751658097, -0.0088755777105689 ]
  - [  -0.0010808074148372, -0.0000565628215554, -0.0088862832635641 ]
  - [  -0.0010789108928293, -0.0000584028894082, -0.0088822748512030 ]
  - [  -0.0010836597066373, -0.0000571485143155, -0.0088821928948164 ]
  - [  -0.0008593078237027, -0.0002302159555256,  0.0120539665222168 ]
  - [  -0.0002713737194426, -0.0002299491316080,  0.0121016371995211 ]
  - [  -0.0004745772166643, -0.0003454042598605,  0.0121024008840322 ]
  - [  -0.0004728714411613, -0.0001119186636060,  0.0121016921475530 ]
- atom:    1
  displacement:
    [  -0.0049930916422103,  0.0086642389078609,  0.0000000000000000 ]
  forces:
  - [   0.0083936266601086, -0.0149591062217951,  0.0216716416180134 ]
  - [  -0.0012236951151863, -0.0009495000704192,  0.0216749180108309 ]
  - [  -0.0012327595613897,  0.0017755344742909,  0.0216741673648357 ]
  - [   0.0011085553560406,  0.0004247635952197,  0.0216730050742626 ]
  - [   0.0017960669938475,  0.0008093110518530, -0.0223564319312572 ]
  - [   0.0019036871381104,  0.0003928082296625, -0.0222937464714050 ]
  - [   0.0015895655378699,  0.0006996156880632, -0.0222173966467381 ]
  - [   0.0018017457332462,  0.0005811436567456, -0.0222928225994110 ]
  - [  -0.0003914348781109,  0.0025924947112799, -0.0018885096069425 ]
  - [  -0.0003885377664119,  0.0025930944830179, -0.0018844987498596 ]
  - [  -0.0003915053093806,  0.0025921589694917, -0.0018758872756734 ]
  - [  -0.0003891210653819,  0.0025932677090168, -0.0018827854655683 ]
  - [  -0.0024273616727442, -0.0014803903177381, -0.0002529042540118 ]
  - [  -0.0026275317650288, -0.0013635496143252, -0.0001635773805901 ]
  - [  -0.0023193573579192, -0.0016661310801283, -0.0002516260137782 ]
  - [  -0.0024268976412714, -0.0012561576440930, -0.0003651032457128 ]
  - [   0.0012989823007956,  0.0072843418456614,  0.0261843670159578 ]
  - [  -0.0002472813939676,  0.0052058347500861,  0.0262163951992989 ]
  - [  -0.0025686244480312,  0.0048404280096292,  0.0262481179088354 ]
  - [   0.0012703917454928,  0.0026147786993533,  0.0262141395360231 ]
  - [   0.0018303310498595, -0.0046577183529735,  0.0290822703391314 ]
  - [  -0.0022354782558978, -0.0023719731252640,  0.0290481746196747 ]
  - [   0.0002993368543684, -0.0020653824321926,  0.0290810409933329 ]
  - [   0.0017931172624230, -0.0002349304268137,  0.0291169211268425 ]
  - [   0.0002186817873735, -0.0015433689113706, -0.0089061744511127 ]
  - [   0.0002156850823667, -0.0015340141253546, -0.0088999364525080 ]
  - [   0.0002148259809474, -0.0015397020615637, -0.0088997501879930 ]
  - [   0.0002125028404407, -0.0015369880711660, -0.0088982740417123 ]
  - [  -0.0015341872349381,  0.0038830339908600, -0.0025354397948831 ]
  - [  -0.0014288246165961,  0.0034688888117671, -0.0026251114904881 ]
  - [  -0.0017277714796364,  0.0037670691963285, -0.0027225320227444 ]
  - [  -0.0015315926866606,  0.0036545733455569, -0.0026287597138435 ]
  - [  -0.0000109623942990, -0.0042598689906299, -0.0226504094898701 ]
  - [  -0.0002067391033052, -0.0041391015984118, -0.0227059498429298 ]
  - [   0.0000992520726868, -0.0044437879696488, -0.0226497258991003 ]
  - [  -0.0000061772589106, -0.0040194569155574, -0.0225597228854895 ]
  - [   0.0017431180458516,  0.0015736699569970, -0.0215546712279320 ]
  - [   0.0020133671350777,  0.0013413886772469, -0.0215851739048958 ]
  - [   0.0020150113850832,  0.0011002488899976, -0.0215844660997391 ]
  - [   0.0018099192529917,  0.0012185438536108, -0.0215860139578581 ]
  - [  -0.0010833323467523, -0.0000554026337340, -0.0088823428377509 ]
  - [  -0.0010796794667840, -0.0000551462726435, -0.0088863112032413 ]
  - [  -0.0010797255672514, -0.0000597899779677, -0.0088823549449444 ]
  - [  -0.0010830366518348, -0.0000576283782721, -0.0088764857500792 ]
  - [  -0.0006664715474471,  0.0001064161770046,  0.0120548810809851 ]
  - [  -0.0003729093295988, -0.0001699872082099,  0.0121022472158074 ]
  - [  -0.0003725012647919, -0.0004055651370436,  0.0121013205498457 ]
  - [  -0.0005742715438828, -0.0002887630835176,  0.0121012739837170 ]
- atom:    1
  displacement:
    [   0.0049930916422103, -0.0086642389078609,  0.0000000000000000 ]
  forces:
  - [  -0.0088209137320518,  0.0149341616779566,  0.0216446854174137 ]
  - [   0.0008112214272842,  0.0009223833912984,  0.0216747317463160 ]
  - [   0.0008166126208380, -0.0018013638909906,  0.0216743517667055 ]
  - [  -0.0015251620206982, -0.0004538041248452,  0.0216738358139992 ]
  - [   0.0019089736742899,  0.0001489431597292, -0.0221958868205547 ]
  - [   0.0018013268709183,  0.0005714989965782, -0.0222849622368813 ]
  - [   0.0021085413172841,  0.0002675484865904, -0.0223323516547680 ]
  - [   0.0019122222438455,  0.0003864930476993, -0.0222855303436518 ]
  - [  -0.0003899780567735,  0.0025939759798348, -0.0018801980186254 ]
  - [  -0.0003901852760464,  0.0025952951982617, -0.0018835454247892 ]
  - [  -0.0003929113736376,  0.0025910828262568, -0.0018908350029960 ]
  - [  -0.0003872090601362,  0.0025908644311130, -0.0018836410017684 ]
  - [  -0.0023153598885983, -0.0016793961403891, -0.0002460569376126 ]
  - [  -0.0021112263202667, -0.0017959444085136, -0.0003546719672158 ]
  - [  -0.0024201213382185, -0.0014895052881911, -0.0002428180305287 ]
  - [  -0.0023132867645472, -0.0018978082807735, -0.0001541849924251 ]
  - [   0.0001875162124634,  0.0000927274813876,  0.0262473542243242 ]
  - [   0.0016689174808562,  0.0019269796321169,  0.0262145511806011 ]
  - [   0.0042329747229815,  0.0022207293659449,  0.0261808410286903 ]
  - [   0.0001430565025657,  0.0045121116563678,  0.0262159332633018 ]
  - [   0.0007048081606627, -0.0027586007490754,  0.0290843863040209 ]
  - [   0.0045213308185339, -0.0049731992185116,  0.0291155017912388 ]
  - [   0.0022242071572691, -0.0053537422791123,  0.0290796831250191 ]
  - [   0.0006841451395303, -0.0074293566867709,  0.0290485266596079 ]
  - [   0.0002098910190398, -0.0015271526062861, -0.0088929217308760 ]
  - [   0.0002122284204233, -0.0015353763010353, -0.0088989734649658 ]
  - [   0.0002117090334650, -0.0015344885177910, -0.0088988021016121 ]
  - [   0.0002152386441594, -0.0015357608208433, -0.0088987266644835 ]
  - [  -0.0014235016424209,  0.0032315107528120, -0.0027476444374770 ]
  - [  -0.0015308412257582,  0.0036457043606788, -0.0026353544089943 ]
  - [  -0.0012304354459047,  0.0033431674819440, -0.0025582662783563 ]
  - [  -0.0014189318753779,  0.0034586323890835, -0.0026332510169595 ]
  - [   0.0000992655841401, -0.0044527333229780, -0.0226542726159096 ]
  - [   0.0003129684482701, -0.0045740609057248, -0.0225748270750046 ]
  - [  -0.0000035865377868, -0.0042651770636439, -0.0226601846516132 ]
  - [   0.0001025060191751, -0.0046803890727460, -0.0227172952145338 ]
  - [   0.0020778439939022,  0.0009892345406115, -0.0215454399585724 ]
  - [   0.0018100255401805,  0.0012195305898786, -0.0215855278074741 ]
  - [   0.0018096601124853,  0.0014589944621548, -0.0215850584208965 ]
  - [   0.0020140123087913,  0.0013406086945906, -0.0215857364237309 ]
  - [  -0.0010815921705216, -0.0000578792532906, -0.0088830245658755 ]
  - [  -0.0010815259302035, -0.0000554239013582, -0.0088783809915185 ]
  - [  -0.0010814906563610, -0.0000575310550630, -0.0088812960311770 ]
  - [  -0.0010810163803399, -0.0000571525888517, -0.0088899210095406 ]
  - [  -0.0002803806564771, -0.0005669071106240,  0.0120819415897131 ]
  - [  -0.0005737869068980, -0.0002908178139478,  0.0121012311428785 ]
  - [  -0.0005748266121373, -0.0000510595273226,  0.0121000837534666 ]
  - [  -0.0003729312156793, -0.0001675429521129,  0.0121019585058093 ]
- atom:    1
  displacement:
    [   0.0000002222478584,  0.0000001842577973,  0.0099999999958327 ]
  forces:
  - [  -0.0002314973389730, -0.0000064139021561, -0.0064911628141999 ]
  - [  -0.0002063004358206, -0.0000133047797135,  0.0217697191983461 ]
  - [  -0.0002082450664602, -0.0000130865555548,  0.0217689089477062 ]
  - [  -0.0002078802353935, -0.0000146475340443,  0.0217675119638443 ]
  - [   0.0018534216796979,  0.0003958076704293, -0.0219866111874580 ]
  - [   0.0018547301879153,  0.0004823327763006, -0.0222909040749073 ]
  - [   0.0017781695351005,  0.0005271118134260, -0.0219857711344957 ]
  - [   0.0019354770192876,  0.0005300651537254, -0.0219869744032621 ]
  - [  -0.0003895389381796,  0.0025907414965332, -0.0021249616984278 ]
  - [  -0.0003901249729097,  0.0025946372188628, -0.0019139404175803 ]
  - [  -0.0003916260029655,  0.0025918246246874, -0.0021255095489323 ]
  - [  -0.0003857341944240,  0.0025929941330105, -0.0021237558685243 ]
  - [  -0.0022910926491022, -0.0015335568459705,  0.0000602224608883 ]
  - [  -0.0024438998661935, -0.0015337733784690,  0.0000678136711940 ]
  - [  -0.0023683444596827, -0.0015782992122695, -0.0002461192198098 ]
  - [  -0.0023680832237005, -0.0016561361262575,  0.0000602556392550 ]
  - [   0.0007289079949260,  0.0035695286933333,  0.0267328042536974 ]
  - [   0.0007243962027133,  0.0035745273344219,  0.0262074917554855 ]
  - [   0.0007197333034128,  0.0035771057009697,  0.0267301928251982 ]
  - [   0.0007273723604158,  0.0035743073094636,  0.0267317276448011 ]
  - [   0.0012463411549106, -0.0037215957418084,  0.0295994654297829 ]
  - [   0.0012533201370388, -0.0037185905966908,  0.0295983962714672 ]
  - [   0.0012467496562749, -0.0037164418026805,  0.0290723815560341 ]
  - [   0.0012545969802886, -0.0037124347873032,  0.0295993164181709 ]
  - [   0.0002047814778052, -0.0015329979360104, -0.0045103272423148 ]
  - [   0.0002133128728019, -0.0015349085442722, -0.0089723104611039 ]
  - [   0.0002130144130206, -0.0015366054140031, -0.0089722853153944 ]
  - [   0.0002138795825886, -0.0015367090236396, -0.0089713633060455 ]
  - [  -0.0014802576042712,  0.0036419560201466, -0.0023170716594905 ]
  - [  -0.0014824033714831,  0.0035581048578024, -0.0026295657735318 ]
  - [  -0.0014149084454402,  0.0035153822973371, -0.0023226789198816 ]
  - [  -0.0015608783578500,  0.0035061922390014, -0.0023161652497947 ]
  - [  -0.0000409423082601, -0.0044055222533643, -0.0223488397896290 ]
  - [   0.0001199176476803, -0.0043962225317955, -0.0223511010408401 ]
  - [   0.0000467753125122, -0.0043520075269043, -0.0226568989455700 ]
  - [   0.0000471671228297, -0.0042675980366766, -0.0223493780940771 ]
  - [   0.0019336213590577,  0.0012758885277435, -0.0121742188930511 ]
  - [   0.0019121179357171,  0.0012795717921108, -0.0215904898941517 ]
  - [   0.0019122759113088,  0.0012800219701603, -0.0215909872204065 ]
  - [   0.0019123861566186,  0.0012805856531486, -0.0215910151600838 ]
  - [  -0.0010829481761903, -0.0000576472375542, -0.0091243814677000 ]
  - [  -0.0010767856147140, -0.0000577825921937, -0.0091218231245875 ]
  - [  -0.0010809437371790, -0.0000584843801335, -0.0089116394519806 ]
  - [  -0.0010812694672495, -0.0000561618944630, -0.0091243963688612 ]
  - [  -0.0004474582674447, -0.0002414220944047,  0.0211415290832520 ]
  - [  -0.0004739199066535, -0.0002308657858521,  0.0121048418805003 ]
  - [  -0.0004736398404930, -0.0002273111604154,  0.0121051324531436 ]
  - [  -0.0004737454873975, -0.0002281595952809,  0.0121049527078867 ]
- atom:    1
  displacement:
    [  -0.0000002222478584, -0.0000001842577973, -0.0099999999958327 ]
  forces:
  - [  -0.0001968489377759, -0.0000186694196600,  0.0498043969273567 ]
  - [  -0.0002058946702164, -0.0000138672585308,  0.0215801279991865 ]
  - [  -0.0002080207632389, -0.0000126399227156,  0.0215797778218985 ]
  - [  -0.0002083424478769, -0.0000138178402267,  0.0215788558125496 ]
  - [   0.0018502859165892,  0.0005689535755664, -0.0225950442254543 ]
  - [   0.0018498384160921,  0.0004820715403184, -0.0222874265164137 ]
  - [   0.0019260074477643,  0.0004358465084806, -0.0225943960249424 ]
  - [   0.0017711395630613,  0.0004339446313679, -0.0225953534245491 ]
  - [  -0.0003912830725312,  0.0025986805558205, -0.0016435519792140 ]
  - [  -0.0003893850371242,  0.0025942586362362, -0.0018538839649409 ]
  - [  -0.0003904340555891,  0.0025910846889019, -0.0016411871183664 ]
  - [  -0.0003936947323382,  0.0025899207685143, -0.0016424402128905 ]