9
Lattice="4.148516524566472 -0.0017734156854608512 1.0490497164972605 2.253894622962178 4.743368055515888 -0.16206425110003086 -0.08079312428551023 -0.15882878622934216 8.947834804521852" Properties=species:S:1:pos:R:3:forces:R:3 structure_index=0 total_energy=-27.510417938232422 stress="-0.012019462883472443 -0.0019913483411073685 0.0002153668028768152 -0.0019914093427360058 -0.031002389267086983 0.02022906392812729 0.0002151661174139008 0.020229119807481766 -0.029686175286769867" pbc="T T T"
Li       3.01462484       0.09945299       9.21796880      -0.00108756       0.00884139      -0.00214348
Li       1.47678819       0.76309554       6.61136749       0.00001367       0.00762520      -0.00900008
Li       2.42589015       2.03681323       2.86353028      -0.00382967      -0.02088585       0.01716589
Ga       4.00232012       1.42552703       5.33767212       0.00637090      -0.00980096      -0.02170400
Ga       2.78492550       4.71712329       1.44437334       0.00670857      -0.02961727      -0.00043991
Ga       1.78653362       3.44712538       5.38317609      -0.00148688       0.00682051       0.00616738
Ga       5.01825106       2.35696853       1.41111705      -0.00376154       0.03461967      -0.00020372
Sn       3.33947115       2.81333603       7.96412308       0.00194211       0.00221185      -0.00631358
Sn       4.38502106       4.07690284       3.83874081      -0.00486961       0.00018545       0.01647148
14
Lattice="6.8695934745785765 -0.05824894792287097 -2.8864340039411354 -2.3640334529380684 5.009027952299387 -1.591426086808456 -0.05904644483105771 0.02543591912692631 7.551571598171987" Properties=species:S:1:pos:R:3:forces:R:3 structure_index=1 total_energy=-41.57354736328125 stress="-0.0005630463710986078 0.014701806008815765 -0.01042914018034935 0.01470192801207304 -0.02462671510875225 0.008277550339698792 -0.010428987443447113 0.008277487941086292 0.012146193534135818" pbc="T T T"
Li       4.88538523       1.81944143      -0.95899387      -0.01331712      -0.02679075       0.01746576
Li       2.31315782       3.14668237       0.48748488       0.00760739       0.01591473      -0.02157446
Li       0.65947362       0.50760465       0.43523292       0.00689546      -0.01144093      -0.00010808
Li      -0.45139044       4.83236486       1.90545981       0.00810296      -0.00846026       0.03117058
Li       3.33902675       2.50785164       3.44745571       0.00052559      -0.00324852       0.01723881
Li       1.00478454       3.78144434       4.91888249       0.00715680       0.03732415      -0.00978720
Li      -0.52495030       1.10696120       4.92897913      -0.01333788      -0.01736140      -0.03037070
Li      -0.59411481       2.94628200      -0.36195100      -0.01624658       0.01535453      -0.01169208
Ga       0.66935591       2.27797863       2.61328232       0.02490726      -0.01120426      -0.00641459
Ga       2.14376485       1.37587799       5.81087845      -0.02618284       0.02602005       0.00581164
Sn       3.75981165       4.28407318      -1.83283918       0.02021927      -0.01147943      -0.00852130
Sn       4.68352392       0.10460885       4.29026510       0.01803221      -0.01268137      -0.01197004
Sn       3.42767059       0.60340823       1.19139370      -0.01694096       0.01292967       0.02273910
Sn      -1.73012223       3.61553854       4.23145150      -0.00742153      -0.00487620       0.00601255
10
Lattice="4.1701761811867035 5.0210238435188975e-06 -0.7881556908774823 0.00014895660846530465 4.305818276346258 0.0011468663419757924 -0.023738570065176864 -0.0005857683550774776 11.027118221509577" Properties=species:S:1:pos:R:3:forces:R:3 structure_index=2 total_energy=-31.092958450317383 stress="-0.026218343526124954 7.373900734819472e-05 0.02170766144990921 7.36981091904454e-05 0.03862901031970978 0.0005290121771395206 0.021707726642489433 0.0005290103144943714 -0.023088859394192696" pbc="T T T"
Li       1.13414628       2.94057545       4.53781897       0.00332742       0.00026382       0.01368196
Li       3.61201643       2.94052955       6.18376999      -0.00378547       0.00081017      -0.01321374
Li       2.44029996       0.78810942       0.12968241       0.00536487      -0.00194089       0.02106396
Li       1.95064258       2.93896562       8.78724275      -0.00290601       0.00137319      -0.02418908
Ga       0.76511199       0.78599112       2.59563862      -0.00975882      -0.00035937      -0.03444887
Ga       2.85051003       2.93878743       2.24045948       0.00486908       0.00139710       0.01057045
Ga       3.20251566       0.78752571       4.04804242       0.00389518      -0.00081959       0.01601768
Sn       0.34469072       2.93835352       0.44207845      -0.00299297       0.00264063       0.03170526
Sn       4.03867798       0.78745148       8.42529262       0.00486203      -0.00175019      -0.00598761
Sn       1.52580121       0.78848813       6.57633930      -0.00287528      -0.00161485      -0.01520000
4
Lattice="4.353239204570386 0.00040745618020310477 -0.005805534390067698 -0.002112383037917597 4.548093872274511 -0.0017212541430440171 0.001232597082075675 0.00043806829949804996 4.545362787280608" Properties=species:S:1:pos:R:3:forces:R:3 structure_index=3 total_energy=-13.481918334960938 stress="0.0695422813296318 -0.0037811833899468184 -0.010946801863610744 -0.0037811941001564264 -0.017224088311195374 -0.003515777178108692 -0.010946755297482014 -0.003515739692375064 -0.025261275470256805" pbc="T T T"
Li       0.09509991       4.26845172       2.34213290      -0.00094865       0.00085567       0.00016590
Ga       0.09492216       1.99536310       0.07069029      -0.00076272      -0.00054719      -0.00063861
Sn       2.26874359       4.26906943       0.06679145       0.00246523       0.00138933      -0.00066608
Sn       2.27302130       1.99631791       2.33968514      -0.00075386      -0.00169780       0.00113878
6
Lattice="4.124081101044755 -0.0055179637456336346 -1.3868797060393454 0.0068359780058661855 4.361645443322197 -0.004070150358377037 0.03286683460108058 0.002075523183322381 6.8279791158185725" Properties=species:S:1:pos:R:3:forces:R:3 structure_index=4 total_energy=-19.000171661376953 stress="-0.0014878050424158573 0.00433155195787549 0.0012902227463200688 0.004331542178988457 -0.02781565673649311 -0.0009313557529821992 0.001290242187678814 -0.0009314124472439289 -0.02866036258637905" pbc="T T T"
Li       3.40770005       2.78591742      -0.71052369       0.00742925       0.00028288       0.02408975
Li       0.62864910       2.78892727       4.62008869       0.00679226       0.00143429       0.01053703
Ga       4.09575114       0.60347079       1.32365533      -0.00900149       0.00180753      -0.03812255
Ga       2.74460061       0.60892987       4.04487673      -0.02440189      -0.00201865      -0.01972021
Sn       2.04795177       2.78864257       2.04498830      -0.00418248      -0.00116733      -0.01558674
Sn       1.27725109       0.60762511      -0.20266123       0.02336434      -0.00033872       0.03880272
6
Lattice="4.032593271363887 0.009544863371555275 1.3727920207774658 1.555664567403375 4.641857672841592 2.0038797647832776 -0.044133982776638984 0.1725303060970304 6.750192152926984" Properties=species:S:1:pos:R:3:forces:R:3 structure_index=5 total_energy=-18.938480377197266 stress="0.029414210468530655 0.0050123645924031734 -0.0020192191004753113 0.005012426525354385 0.033675920218229294 -0.014045333489775658 -0.002019052393734455 -0.01404526736587286 0.04123365134000778" pbc="T T T"
Li       3.55741432       3.89775741       8.67589560       0.01254859       0.01587389      -0.03788693
Li       2.76825951       1.52188172       4.38173297      -0.01073634      -0.01616883       0.03568271
Ga       2.17344483       3.89767726       6.13223277      -0.00281658       0.03795018       0.00304239
Ga       4.15586374       1.52861740       6.91911117       0.00171698      -0.04172004       0.00167306
Sn       4.82340072       3.67292854       4.95910256       0.00189045      -0.01025265      -0.01266517
Sn       1.55041217       1.57299507       1.34361363      -0.00260310       0.01431744       0.01015391
4
Lattice="4.268100502006351 -0.0003773119415663249 2.4631803517361828 1.4187231673896594 4.025037821947393 2.4630344746075763 2.3502809008646796e-05 -1.017078791428376e-05 4.9298738056779925" Properties=species:S:1:pos:R:3:forces:R:3 structure_index=6 total_energy=-12.296467781066895 stress="-0.004505428019911051 0.0075707631185650826 -0.0004319127183407545 0.00757073238492012 -0.013191641308367252 0.00012130002141930163 -0.00043184994137845933 0.00012112956756027415 -0.019649336114525795" pbc="T T T"
Li       3.55878509       0.10224970       2.11951035      -0.00008729      -0.00010375      -0.00009520
Ga       3.55596769       3.12139262       7.04926295       0.00060372       0.00078567       0.00106169
Ga       0.71181649       1.10807061       2.11913104       0.00030970       0.00116855       0.00144431
Sn       2.13431418       2.11566792       4.58542593      -0.00082609      -0.00185046      -0.00241080
12
Lattice="4.136183696057064 0.002385154501807687 -0.0024711909943067657 -0.002522480563342539 5.98032445274326 -0.004163767633241924 0.006922434387254616 0.013697590237953439 9.118362909234575" Properties=species:S:1:pos:R:3:forces:R:3 structure_index=7 total_energy=-36.077171325683594 stress="-0.023613402619957924 0.0007631725748069584 0.0009678027709014714 0.0007631263579241931 0.014874717220664024 0.001549200969748199 0.0009678543428890407 0.0015492766397073865 -0.01831458881497383" pbc="T T T"
Li       3.55044191       3.20865797       5.17806657       0.00029919       0.00983084      -0.00561828
Li       1.48377093       4.76701137       6.89652756      -0.00014634       0.00762276       0.02972895
Li       3.55006209       0.18555117       2.33364620       0.00006315      -0.00538200       0.03132457
Li       1.47995624       1.74656618       0.62304374       0.00005946      -0.01130000      -0.00690885
Ga       1.47906109       4.79219689       0.73038045      -0.00047413       0.02034423       0.02091120
Ga       1.48232449       1.61998933       3.78110317      -0.00009057       0.00641762      -0.02531097
Ga       3.55245897       0.15771081       5.29728822      -0.00026363      -0.01758930       0.01560504
Ga       3.55477345       0.24077525       8.40839190       0.00006916      -0.03507403      -0.00864184
Ga       1.48095975       4.72804251       3.84602525       0.00012301       0.02740542      -0.00703104
Ga       3.55327684       3.33694660       8.34459864       0.00000069      -0.00282386      -0.03187733
Sn       3.54846694       3.19170981       2.23114896       0.00033908      -0.00545274      -0.00793738
Sn       1.48466347       1.76404770       6.78707434       0.00002093       0.00600109      -0.00424409
18
Lattice="6.172450549108808 0.10636075611797623 -2.1237233652981082 -0.8577386859865005 6.531855015194124 -2.130145564453012 0.019396445939361164 0.0337413986886026 8.437477215160282" Properties=species:S:1:pos:R:3:forces:R:3 structure_index=8 total_energy=-53.72779083251953 stress="0.002794046886265278 0.004616579040884972 0.000490096805151552 0.0046165441162884235 -0.010517907328903675 0.0022378265857696533 0.0004901296342723072 0.0022378640715032816 0.014289319515228271" pbc="T T T"
Li       5.26102639       3.42554443       4.58313928      -0.02350775       0.00402916      -0.00216167
Li       1.58168540       1.02659437       6.71758585      -0.00001994      -0.00955405      -0.00237303
Li       5.64438450       1.04684711       2.48750611      -0.01848742       0.02370649      -0.00024667
Li       1.56614790       1.01049182       2.49721383       0.00136090      -0.00922887      -0.00169795
Li       5.25556176       3.40843653       0.37501559      -0.02300896       0.00413586       0.00012529
Li       2.99756194       5.35264859       0.36398722       0.00351331       0.01662165      -0.00001030
Li       3.00938030       5.37140296       4.58594491       0.00280645       0.01601599       0.00219061
Li       5.63727291       1.02438785      -1.73324335      -0.01757212       0.02431784      -0.00112826
Ga       0.69507261       5.49966861       2.48322108       0.00678495      -0.01729185      -0.00157277
Ga       3.36137022       3.27524047      -1.73424842      -0.01837348       0.04047481      -0.00021768
Ga       0.68818524       5.48066678      -1.73663080       0.00299556      -0.01550412      -0.00055149
Ga       5.02339988       5.44624094      -1.74604371       0.02404859      -0.01973781       0.00014276
Ga       5.03368197       5.46278869       2.47117103       0.02313878      -0.01815419       0.00082654
Ga       3.34985736       3.30714045       2.47856644      -0.00881022       0.03335703       0.00151147
Sn       3.65983503       0.95965536       4.59840437       0.00087083      -0.01397112       0.00191762
Sn       1.19806975       3.27596060       0.37344442       0.02337097      -0.02462622       0.00307206
Sn       1.21775477       3.28993092       4.59888447       0.01943521      -0.02253737       0.00089595
Sn       3.65130559       0.94248866       0.38243526       0.00145432      -0.01205324      -0.00072248
9
Lattice="4.163470595208566 0.0022328254862677217 -1.2915482160562646 -0.6640572192688894 6.938948798775486 -2.1301320544513027 -0.017705000899935555 -0.04767237884838008 7.29674638784063" Properties=species:S:1:pos:R:3:forces:R:3 structure_index=9 total_energy=-30.85982322692871 stress="-0.0025923375505954027 -0.0012942918110638857 -0.0018233233131468296 -0.0012943812180310488 0.034367334097623825 -0.00707820151001215 -0.0018233490409329534 -0.007078081835061312 -0.01386327389627695" pbc="T T T"
Li       2.82492712       4.20613655       3.25859848      -0.00913402      -0.02111484      -0.02885984
Li      -0.62447952       6.57671095      -0.48082405       0.01319003       0.02798512       0.03155426
Ga       0.05027357       4.23845076       1.67491482       0.00797280      -0.00170422       0.02759147
Ga       3.51053447       1.91696772       5.46610286      -0.00224754      -0.00237506      -0.00236888
Sn       1.43833718       4.26727761      -1.19892923      -0.00320306       0.00305447      -0.01682072
Sn       0.77308788       6.52122959       3.99801783       0.00235848      -0.03029390       0.02087967
Sn       2.11491490       1.96867768       0.97688671       0.00962079       0.00846381       0.02537103
Sn       2.14737671       6.40812606       1.07950537      -0.00916486       0.02922896      -0.02722450
Sn       0.74378445       1.95765989       3.90732912      -0.00939262      -0.01324433      -0.03012251
12
Lattice="5.842640504296787 0.028652008227322934 -0.005754365293208655 -1.2624438476760933 5.69625795423723 -0.00519607472516736 0.012405951173177426 0.008043498869438337 7.977525004546634" Properties=species:S:1:pos:R:3:forces:R:3 structure_index=10 total_energy=-38.28855514526367 stress="-0.025001168251037598 -0.003058405127376318 0.0014899404486641288 -0.003058498492464423 -0.02893909625709057 0.0012613931903615594 0.0014899495290592313 0.0012613292783498764 -0.021831180900335312" pbc="T T T"
Li       2.26664252       2.33402380       0.30462471       0.03098750      -0.02627037       0.01477941
Li       4.50123494       5.25187686       7.18958373      -0.01901230       0.01431058      -0.00996603
Li      -0.08069484       4.20234739       4.29370884      -0.03200724       0.02959734       0.01382111
Li       3.53332200       1.33396220       3.20108590       0.01884385      -0.01863163      -0.00964770
Ga       3.45217755       4.41810470       2.44510847       0.03809381       0.00194876       0.00423310
Ga       4.58011119       2.15567938       6.43620937      -0.03363390      -0.00255739      -0.00276247
Ga       0.49304346       0.71810654       2.45563673       0.00449964      -0.03290688      -0.00795750
Ga       2.95912889       0.13028427       6.44188130      -0.00431791       0.03300666      -0.00467618
Sn       5.18557805       2.79076251       1.05363571       0.01787999      -0.00960524       0.00215570
Sn       2.84435632       3.77917654       5.04606339      -0.01538784       0.01178613      -0.00128182
Sn       0.98576142       1.45665501       5.05030607      -0.01183938       0.01013107       0.00331734
Sn       1.20219378       5.08533767       1.05878837       0.00589379      -0.01080904      -0.00201496
15
Lattice="4.439357899506818 -1.1048568306143831 0.039626664986483325 -1.0404219367336103 5.300000479127108 -0.2852552727086869 0.36807092261395313 1.8541746204379677 11.641986293452428" Properties=species:S:1:pos:R:3:forces:R:3 structure_index=11 total_energy=-42.373565673828125 stress="-0.016823748126626015 -0.01488958578556776 0.009517505764961243 -0.014889733865857124 -0.009612356312572956 0.019367344677448273 0.009517408907413483 0.01936754398047924 -0.01887514255940914" pbc="T T T"
Li       0.51554539       2.61868789       5.41276957      -0.00283087      -0.03801530       0.01263594
Li       3.49496599       5.15803130       7.53004625      -0.02291147      -0.01482735       0.04049443
Li       2.47299409       1.15343287       9.20502520       0.01142252       0.02489987      -0.04325433
Li       0.89253275       4.02300892       2.94057309      -0.03596526      -0.00918154       0.03871007
Li       0.24859938       1.47884253       2.11646507       0.00306165       0.03819695      -0.01229843
Li       3.09908519       3.69366018      10.00611783      -0.01192667      -0.02502322       0.04300337
Li       3.26993876       4.26978635       4.34311507       0.03644389       0.00931151      -0.03863651
Li       2.33350413       0.38607189       0.86031401       0.00725491      -0.03027425       0.02251049
Li       1.03642873       4.98908676      11.39572512       0.02286921       0.01466877      -0.04044186
Li       2.87026649       2.60677145       6.70875837      -0.00757250       0.03029074      -0.02269078
Ga       2.99691551       3.01849727       1.38815609       0.00222159       0.01123422      -0.00518894
Ga       1.16596181       5.27438991       5.89570641      -0.00206577      -0.01123010       0.00475799
Sn       2.60177195       1.49639811       3.78453815      -0.00027306      -0.00015604      -0.00015767
Sn       0.78073140       3.74548877       8.27381623      -0.01262950       0.01224837      -0.01626036
Sn       0.35175534       2.20640299      10.89745508       0.01290131      -0.01214257       0.01681663
11
Lattice="4.367235630299105 0.00017548374229110352 -1.2933526218634317 0.01626549414812779 5.269230777778412 0.05597078050124321 -0.03057050970621216 0.02246370805779955 7.919123323392955" Properties=species:S:1:pos:R:3:forces:R:3 structure_index=12 total_energy=-28.685977935791016 stress="-0.017861736938357353 -0.005205065477639437 0.005440153181552887 -0.00520498538389802 -0.017956208437681198 -0.012542297132313251 0.005440162494778633 -0.01254248060286045 -0.004535255022346973" pbc="T T T"
Li       0.71785971       3.93945567       7.08407272       0.00955431      -0.00094756       0.02817646
Li       3.56124192       5.00393853       0.63665102       0.00621353      -0.00361277       0.02604604
Li       2.72613786       0.23356664       5.84290964      -0.00415065      -0.02349265      -0.01394168
Li       3.91229130       2.00598115       1.82151597       0.00430258       0.02243773       0.01531039
Li       1.95489179       0.60038024       3.23366779      -0.00198939      -0.00174419      -0.00629558
Li       3.12467426       2.48140151      -0.83362190      -0.00791522       0.00413052      -0.02730970
Li       0.31596783       1.63860843       5.72369979       0.00251428       0.00119915       0.00787480
Li       1.57005696       3.56705429       1.93136376      -0.00976743       0.00291279      -0.02903536
Ga       4.32776705       4.36967584       3.22912484      -0.00049789       0.02261084      -0.00530129
Ga       2.32700341       3.13859788       4.49266630       0.00051644      -0.02295818       0.00487899
Sn       1.15068278       1.10801035       0.51964733       0.00121949      -0.00053575      -0.00040304
16
Lattice="4.501733142191839 -0.00012297268678597404 0.00010648015865358307 -2.24832680636427 5.233268449041761 -0.16226858940273578 -0.00043422378083368717 -0.07556984124674852 15.794159236679393" Properties=species:S:1:pos:R:3:forces:R:3 structure_index=13 total_energy=-51.481468200683594 stress="-0.005798982921987772 -2.2057183741708286e-05 1.0105368346557952e-05 -2.1998426745994948e-05 -0.004715586546808481 0.0003029211366083473 9.991699698730372e-06 0.0003027574857696891 0.00541837140917778" pbc="T T T"
Li       0.00656770       0.97884209      10.42423515      -0.00044833       0.00813713      -0.01080350
Li       0.00781424       4.85216940       0.57065692      -0.00019120       0.00460771       0.01757691
Li       0.00566835       3.68690325       8.48196867       0.00064330       0.00899874       0.03681257
Li       0.00571349       3.70521909      12.25288094       0.00064920      -0.00230193      -0.03196465
Li       0.00801602       4.69548298       4.48797727      -0.00010788      -0.01776332      -0.01344353
Li       2.25483602       2.13783493       2.74442366       0.00134848      -0.03082425       0.00637106
Ga       0.00658756       1.69470470       4.74814896      -0.00044888      -0.02547282       0.01360699
Ga       2.25706041       1.50113609      12.49613196      -0.00005156       0.03582920       0.01401145
Ga       2.25711728       1.45184132       8.33659916       0.00004385       0.01314802      -0.01849666
Sn       2.25878938       5.10842659       2.56982349      -0.00043610      -0.00850249      -0.00631408
Sn       0.00607161       0.37715177      13.62749538      -0.00052865      -0.00557861      -0.02509735
Sn       2.25768647       2.86299728       5.83882539      -0.00017567       0.00704743      -0.02024277
Sn       2.25663267       3.19084911      10.39227131       0.00039697       0.02158353      -0.00227019
Sn       2.25620128       3.00132977      14.90858519      -0.00004771       0.02593935       0.03477405
Sn       0.00540679       1.82693166       0.58820049      -0.00024605      -0.02630240      -0.02061157
Sn       0.00621168       0.30686508       7.23967881      -0.00039979      -0.00854534       0.02609126
4
Lattice="4.2257325988467365 2.507060254365638e-05 0.00021772596721776166 -0.0005265793639936438 4.213065596136275 -0.0015519225416532518 -1.0451459999511052e-05 0.00013877899102804597 4.213225153099612" Properties=species:S:1:pos:R:3:forces:R:3 structure_index=14 total_energy=-11.990671157836914 stress="-0.06058695912361145 -0.00039803399704396725 0.00016409980889875442 -0.0003979693283326924 -0.058154139667749405 -0.0018463648157194257 0.00016408730880357325 -0.0018464649328961968 -0.0575982928276062" pbc="T T T"
Li       1.63524156       3.02538727       1.64877154       0.00125566       0.00006056      -0.00011946
Li       1.63581918       0.91889847       3.75620776       0.00090303       0.00013822      -0.00009848
Ga       3.74922477       0.91929657       1.64926102      -0.00037505      -0.00038780       0.00034810
Sn       3.74947835       3.02555803       3.75539563      -0.00178364       0.00018901      -0.00013015
4
Lattice="4.34655422195859 -0.0005625388566674617 0.0005522296227750541 0.003021812069516059 4.550112707405812 0.0007695759273293562 -0.00011294521303843445 -0.00018751217670898957 4.547766581246053" Properties=species:S:1:pos:R:3:forces:R:3 structure_index=15 total_energy=-13.481985092163086 stress="0.043427590280771255 0.005466644652187824 0.0010546759003773332 0.005466631148010492 -0.01768270693719387 0.0016017570160329342 0.0010546469129621983 0.001601725467480719 -0.024601725861430168" pbc="T T T"
Li       0.26834546       0.44109495       2.91350665      -0.00014388      -0.00057506      -0.00002177
Ga       0.26959690       2.71548535       0.63993102       0.00016894      -0.00076450       0.00018238
Sn       2.44099787       0.43893333       0.63988801       0.00059538       0.00153303       0.00013814
Sn       2.44343368       2.71465624       2.91431272      -0.00062044      -0.00019347      -0.00029875
10
Lattice="3.351229957448946 -0.0012272138434723087 0.00021108478218887658 0.000821128213711476 3.3514578712335275 -4.9073433171786156e-05 -0.0015430019691703017 0.00014468981626139852 16.575200084363374" Properties=species:S:1:pos:R:3:forces:R:3 structure_index=16 total_energy=-30.468719482421875 stress="-0.02942451275885105 -0.0013466223608702421 -0.0003155034501105547 -0.0013466252712532878 -0.028924446552991867 -6.1765040300088e-06 -0.0003154499572701752 -6.1113810261304025e-06 0.01781495474278927" pbc="T T T"
Li       1.65566719       0.64679829      13.40370372       0.00013647      -0.00006701       0.00939093
Li       1.65837962       0.64950543       0.37470604      -0.00057545      -0.00103480       0.00364736
Li       1.65707981       0.64760825       6.24941719      -0.00016086      -0.00000301      -0.00678736
Li       1.65572126       0.64447942       9.79660742       0.00045912       0.00169920      -0.00639444
Li       1.65828151       0.64854003       3.31302930      -0.00055371       0.00066027      -0.00060392
Ga       3.33422296       2.32469976       1.86308242       0.00004124      -0.00086977       0.01347410
Ga       3.33330129       2.32371087       4.76357893       0.00054503      -0.00055984      -0.01519036
Sn       3.33186982       2.32142187      11.60605728      -0.00016481      -0.00069431      -0.00930332
Sn       3.33265879       2.32163833       7.98963773      -0.00018794      -0.00030968      -0.02778015
Sn       3.33189419       2.32236847      15.20280295       0.00046094       0.00117895       0.03954715
9
Lattice="5.376490195139007 -0.5300650580380495 -0.5040281557712687 -1.7311277269374301 3.9069701231395895 -1.6622560386444514 1.5328990659875676 1.0642944986660774 7.210970347215179" Properties=species:S:1:pos:R:3:forces:R:3 structure_index=17 total_energy=-25.673288345336914 stress="0.02036374621093273 -0.00728949811309576 -0.008962568826973438 -0.007289692293852568 0.001834384398534894 0.020449809730052948 -0.00896286778151989 0.02044982649385929 0.03990599513053894" pbc="T T T"
Li       1.67828343       3.47327933      -1.38311832       0.01242285       0.00077301       0.02507950
Li       4.63684097       4.06733510       3.29141985      -0.01328707       0.01856898       0.00917512
Li       0.74748007       3.36276987       5.63232300       0.01311222      -0.01866895      -0.00943964
Li       0.47443962       4.03614676       1.20514847      -0.02393154      -0.00849464       0.02243286
Li       3.37658007       2.32966265       0.50729705       0.02425398       0.00833304      -0.02214975
Li       2.17297907       2.89243483       3.09575475      -0.01241009      -0.00059745      -0.02516851
Ga       3.55779137       1.76156109       5.29292836      -0.00027519      -0.00003824       0.00008077
Sn       4.84581774       1.26323379       2.79848106      -0.02007786      -0.00338739       0.01889492
Sn       0.73649247       1.19554116       0.57637831       0.02019272       0.00351167      -0.01890526
8
Lattice="4.887165053787047 0.0026267687446553663 0.004031224549530556 -0.0019563665053517277 5.554521836329003 -2.423899312216267 -0.004273816245278715 0.3238873368514653 6.051760843950401" Properties=species:S:1:pos:R:3:forces:R:3 structure_index=18 total_energy=-25.367542266845703 stress="-0.019796842709183693 -0.00010918714542640373 4.4550517486641183e-05 -0.00010914876474998891 -0.01682259887456894 0.022707639262080193 4.4505883124656975e-05 0.02270760014653206 -0.034798599779605865" pbc="T T T"
Li       3.81544698       0.37116282       3.66435646       0.00081757      -0.00964583       0.01641482
Ga       3.81861685       0.52868349       0.54917505       0.00025244      -0.01553796       0.02026415
Ga       3.81602545       3.08671658       2.12497646       0.00009034      -0.01103334       0.02306564
Ga       3.81791277       3.16592741      -0.86697099      -0.00006643       0.00558908      -0.00843437
Ga       1.37260873       3.94874867       0.56746901       0.00000469       0.01668573      -0.01866926
Ga       1.37088703       1.85387545       5.13059713      -0.00003845       0.01109658      -0.02488239
Sn       1.37340594       1.30207746       2.15542048      -0.00046134      -0.02305252       0.03636796
Sn       1.37108867       4.54690846       3.47083984      -0.00059883       0.02589825      -0.04412655
6
Lattice="3.2083614445738937 0.008670752860713315 -0.6865254235105847 -0.3189203026609222 5.233828271625266 -1.3853419441273542 -0.06393361977298118 -0.15350451705459256 7.483788774121348" Properties=species:S:1:pos:R:3:forces:R:3 structure_index=19 total_energy=-18.995830535888672 stress="0.057164791971445084 -0.010815615765750408 -0.017105337232351303 -0.010815581306815147 -0.017206957563757896 -0.04997026547789574 -0.01710529252886772 -0.049970317631959915 -0.012762265279889107" pbc="T T T"
Li       2.63322692       4.09049935      -0.04987514      -0.00026635      -0.01316488      -0.00732265
Li       0.05436995       2.23046685       3.50167040      -0.00010118       0.01269015       0.00655138
Ga       2.16402256       1.99302683       5.53561078       0.00135898       0.02976883      -0.00239232
Ga       0.45869960       4.17389750       5.39933361      -0.00119809      -0.02950481       0.00266734
Sn       1.53328233       4.89497684       2.63307516       0.00315156       0.01947086       0.01820177
Sn       1.15366946       1.42555227       0.81780985      -0.00294493      -0.01926015      -0.01770553
6