phonopy:
  version: "2.37.1"
  frequency_unit_conversion_factor: 15.633302
  symmetry_tolerance: 1.00000e-05

space_group:
  type: "P4/nmm"
  number: 129
  Hall_symbol: "P 4ab 2ab -1ab"

primitive_matrix:
- [  1.000000000000000,  0.000000000000000,  0.000000000000000 ]
- [  0.000000000000000,  1.000000000000000, -0.000000000000000 ]
- [  0.000000000000000,  0.000000000000000,  1.000000000000000 ]

supercell_matrix:
- [   3,   0,   0 ]
- [   0,   3,   0 ]
- [   0,   0,   2 ]

primitive_cell:
  lattice:
  - [     3.872380976483220,     0.000000000000000,     0.000000000000000 ] # a
  - [     0.000000518819174,     3.872381580530168,     0.000000000000000 ] # b
  - [     0.000000288609443,    -0.000000285572990,     5.870076584062933 ] # c
  points:
  - symbol: Li # 1
    coordinates: [  0.000000000177007,  0.000000000778010,  0.006079203065308 ]
    mass: 6.940000
  - symbol: Li # 2
    coordinates: [  0.500000003577088,  0.500000003776293,  0.743920796723323 ]
    mass: 6.940000
  - symbol: Sn # 3
    coordinates: [  0.000000002539551,  0.999999996638198,  0.512176528843224 ]
    mass: 118.710000
  - symbol: Sn # 4
    coordinates: [  0.499999993448025,  0.499999998966606,  0.237823470935042 ]
    mass: 118.710000
  reciprocal_lattice: # without 2pi
  - [     0.258239053975565,    -0.000000034598701,    -0.000000012696638 ] # a*
  - [     0.000000000000000,     0.258239013693245,     0.000000012563054 ] # b*
  - [     0.000000000000000,     0.000000000000000,     0.170355528702124 ] # c*

unit_cell:
  lattice:
  - [     3.872380976483220,     0.000000000000000,     0.000000000000000 ] # a
  - [     0.000000518819174,     3.872381580530168,     0.000000000000000 ] # b
  - [     0.000000288609443,    -0.000000285572990,     5.870076584062933 ] # c
  points:
  - symbol: Li # 1
    coordinates: [  0.000000000177007,  0.000000000778010,  0.006079203065308 ]
    mass: 6.940000
    reduced_to: 1
  - symbol: Li # 2
    coordinates: [  0.500000003577088,  0.500000003776293,  0.743920796723323 ]
    mass: 6.940000
    reduced_to: 2
  - symbol: Sn # 3
    coordinates: [  0.000000002539551,  0.999999996638198,  0.512176528843224 ]
    mass: 118.710000
    reduced_to: 3
  - symbol: Sn # 4
    coordinates: [  0.499999993448025,  0.499999998966606,  0.237823470935042 ]
    mass: 118.710000
    reduced_to: 4

supercell:
  lattice:
  - [    11.617142929449660,     0.000000000000000,     0.000000000000000 ] # a
  - [     0.000001556457523,    11.617144741590504,     0.000000000000000 ] # b
  - [     0.000000577218886,    -0.000000571145979,    11.740153168125866 ] # c
  points:
  - symbol: Li # 1
    coordinates: [  0.000000000059002,  0.000000000259337,  0.003039601532654 ]
    mass: 6.940000
    reduced_to: 1
  - symbol: Li # 2
    coordinates: [  0.333333333392336,  0.000000000259337,  0.003039601532654 ]
    mass: 6.940000
    reduced_to: 1
  - symbol: Li # 3
    coordinates: [  0.666666666725669,  0.000000000259337,  0.003039601532654 ]
    mass: 6.940000
    reduced_to: 1
  - symbol: Li # 4
    coordinates: [  0.000000000059002,  0.333333333592670,  0.003039601532654 ]
    mass: 6.940000
    reduced_to: 1
  - symbol: Li # 5
    coordinates: [  0.333333333392336,  0.333333333592670,  0.003039601532654 ]
    mass: 6.940000
    reduced_to: 1
  - symbol: Li # 6
    coordinates: [  0.666666666725669,  0.333333333592670,  0.003039601532654 ]
    mass: 6.940000
    reduced_to: 1
  - symbol: Li # 7
    coordinates: [  0.000000000059002,  0.666666666926004,  0.003039601532654 ]
    mass: 6.940000
    reduced_to: 1
  - symbol: Li # 8
    coordinates: [  0.333333333392336,  0.666666666926004,  0.003039601532654 ]
    mass: 6.940000
    reduced_to: 1
  - symbol: Li # 9
    coordinates: [  0.666666666725669,  0.666666666926004,  0.003039601532654 ]
    mass: 6.940000
    reduced_to: 1
  - symbol: Li # 10
    coordinates: [  0.000000000059002,  0.000000000259337,  0.503039601532654 ]
    mass: 6.940000
    reduced_to: 1
  - symbol: Li # 11
    coordinates: [  0.333333333392336,  0.000000000259337,  0.503039601532654 ]
    mass: 6.940000
    reduced_to: 1
  - symbol: Li # 12
    coordinates: [  0.666666666725669,  0.000000000259337,  0.503039601532654 ]
    mass: 6.940000
    reduced_to: 1
  - symbol: Li # 13
    coordinates: [  0.000000000059002,  0.333333333592670,  0.503039601532654 ]
    mass: 6.940000
    reduced_to: 1
  - symbol: Li # 14
    coordinates: [  0.333333333392336,  0.333333333592670,  0.503039601532654 ]
    mass: 6.940000
    reduced_to: 1
  - symbol: Li # 15
    coordinates: [  0.666666666725669,  0.333333333592670,  0.503039601532654 ]
    mass: 6.940000
    reduced_to: 1
  - symbol: Li # 16
    coordinates: [  0.000000000059002,  0.666666666926004,  0.503039601532654 ]
    mass: 6.940000
    reduced_to: 1
  - symbol: Li # 17
    coordinates: [  0.333333333392336,  0.666666666926004,  0.503039601532654 ]
    mass: 6.940000
    reduced_to: 1
  - symbol: Li # 18
    coordinates: [  0.666666666725669,  0.666666666926004,  0.503039601532654 ]
    mass: 6.940000
    reduced_to: 1
  - symbol: Li # 19
    coordinates: [  0.166666667859029,  0.166666667925431,  0.371960398361661 ]
    mass: 6.940000
    reduced_to: 19
  - symbol: Li # 20
    coordinates: [  0.500000001192363,  0.166666667925431,  0.371960398361661 ]
    mass: 6.940000
    reduced_to: 19
  - symbol: Li # 21
    coordinates: [  0.833333334525696,  0.166666667925431,  0.371960398361661 ]
    mass: 6.940000
    reduced_to: 19
  - symbol: Li # 22
    coordinates: [  0.166666667859029,  0.500000001258764,  0.371960398361661 ]
    mass: 6.940000
    reduced_to: 19
  - symbol: Li # 23
    coordinates: [  0.500000001192363,  0.500000001258764,  0.371960398361661 ]
    mass: 6.940000
    reduced_to: 19
  - symbol: Li # 24
    coordinates: [  0.833333334525696,  0.500000001258764,  0.371960398361661 ]
    mass: 6.940000
    reduced_to: 19
  - symbol: Li # 25
    coordinates: [  0.166666667859029,  0.833333334592097,  0.371960398361661 ]
    mass: 6.940000
    reduced_to: 19
  - symbol: Li # 26
    coordinates: [  0.500000001192363,  0.833333334592097,  0.371960398361661 ]
    mass: 6.940000
    reduced_to: 19
  - symbol: Li # 27
    coordinates: [  0.833333334525696,  0.833333334592097,  0.371960398361661 ]
    mass: 6.940000
    reduced_to: 19
  - symbol: Li # 28
    coordinates: [  0.166666667859029,  0.166666667925431,  0.871960398361661 ]
    mass: 6.940000
    reduced_to: 19
  - symbol: Li # 29
    coordinates: [  0.500000001192363,  0.166666667925431,  0.871960398361661 ]
    mass: 6.940000
    reduced_to: 19
  - symbol: Li # 30
    coordinates: [  0.833333334525696,  0.166666667925431,  0.871960398361661 ]
    mass: 6.940000
    reduced_to: 19
  - symbol: Li # 31
    coordinates: [  0.166666667859029,  0.500000001258764,  0.871960398361661 ]
    mass: 6.940000
    reduced_to: 19
  - symbol: Li # 32
    coordinates: [  0.500000001192363,  0.500000001258764,  0.871960398361661 ]
    mass: 6.940000
    reduced_to: 19
  - symbol: Li # 33
    coordinates: [  0.833333334525696,  0.500000001258764,  0.871960398361661 ]
    mass: 6.940000
    reduced_to: 19
  - symbol: Li # 34
    coordinates: [  0.166666667859029,  0.833333334592097,  0.871960398361661 ]
    mass: 6.940000
    reduced_to: 19
  - symbol: Li # 35
    coordinates: [  0.500000001192363,  0.833333334592097,  0.871960398361661 ]
    mass: 6.940000
    reduced_to: 19
  - symbol: Li # 36
    coordinates: [  0.833333334525696,  0.833333334592097,  0.871960398361661 ]
    mass: 6.940000
    reduced_to: 19
  - symbol: Sn # 37
    coordinates: [  0.000000000846517,  0.333333332212733,  0.256088264421612 ]
    mass: 118.710000
    reduced_to: 37
  - symbol: Sn # 38
    coordinates: [  0.333333334179850,  0.333333332212733,  0.256088264421612 ]
    mass: 118.710000
    reduced_to: 37
  - symbol: Sn # 39
    coordinates: [  0.666666667513184,  0.333333332212733,  0.256088264421612 ]
    mass: 118.710000
    reduced_to: 37
  - symbol: Sn # 40
    coordinates: [  0.000000000846517,  0.666666665546066,  0.256088264421612 ]
    mass: 118.710000
    reduced_to: 37
  - symbol: Sn # 41
    coordinates: [  0.333333334179850,  0.666666665546066,  0.256088264421612 ]
    mass: 118.710000
    reduced_to: 37
  - symbol: Sn # 42
    coordinates: [  0.666666667513184,  0.666666665546066,  0.256088264421612 ]
    mass: 118.710000
    reduced_to: 37
  - symbol: Sn # 43
    coordinates: [  0.000000000846517,  0.999999998879399,  0.256088264421612 ]
    mass: 118.710000
    reduced_to: 37
  - symbol: Sn # 44
    coordinates: [  0.333333334179850,  0.999999998879399,  0.256088264421612 ]
    mass: 118.710000
    reduced_to: 37
  - symbol: Sn # 45
    coordinates: [  0.666666667513184,  0.999999998879399,  0.256088264421612 ]
    mass: 118.710000
    reduced_to: 37
  - symbol: Sn # 46
    coordinates: [  0.000000000846517,  0.333333332212733,  0.756088264421612 ]
    mass: 118.710000
    reduced_to: 37
  - symbol: Sn # 47
    coordinates: [  0.333333334179850,  0.333333332212733,  0.756088264421612 ]
    mass: 118.710000
    reduced_to: 37
  - symbol: Sn # 48
    coordinates: [  0.666666667513184,  0.333333332212733,  0.756088264421612 ]
    mass: 118.710000
    reduced_to: 37
  - symbol: Sn # 49
    coordinates: [  0.000000000846517,  0.666666665546066,  0.756088264421612 ]
    mass: 118.710000
    reduced_to: 37
  - symbol: Sn # 50
    coordinates: [  0.333333334179850,  0.666666665546066,  0.756088264421612 ]
    mass: 118.710000
    reduced_to: 37
  - symbol: Sn # 51
    coordinates: [  0.666666667513184,  0.666666665546066,  0.756088264421612 ]
    mass: 118.710000
    reduced_to: 37
  - symbol: Sn # 52
    coordinates: [  0.000000000846517,  0.999999998879399,  0.756088264421612 ]
    mass: 118.710000
    reduced_to: 37
  - symbol: Sn # 53
    coordinates: [  0.333333334179850,  0.999999998879399,  0.756088264421612 ]
    mass: 118.710000
    reduced_to: 37
  - symbol: Sn # 54
    coordinates: [  0.666666667513184,  0.999999998879399,  0.756088264421612 ]
    mass: 118.710000
    reduced_to: 37
  - symbol: Sn # 55
    coordinates: [  0.166666664482675,  0.166666666322202,  0.118911735467521 ]
    mass: 118.710000
    reduced_to: 55
  - symbol: Sn # 56
    coordinates: [  0.499999997816008,  0.166666666322202,  0.118911735467521 ]
    mass: 118.710000
    reduced_to: 55
  - symbol: Sn # 57
    coordinates: [  0.833333331149341,  0.166666666322202,  0.118911735467521 ]
    mass: 118.710000
    reduced_to: 55
  - symbol: Sn # 58
    coordinates: [  0.166666664482675,  0.499999999655535,  0.118911735467521 ]
    mass: 118.710000
    reduced_to: 55
  - symbol: Sn # 59
    coordinates: [  0.499999997816008,  0.499999999655535,  0.118911735467521 ]
    mass: 118.710000
    reduced_to: 55
  - symbol: Sn # 60
    coordinates: [  0.833333331149341,  0.499999999655535,  0.118911735467521 ]
    mass: 118.710000
    reduced_to: 55
  - symbol: Sn # 61
    coordinates: [  0.166666664482675,  0.833333332988869,  0.118911735467521 ]
    mass: 118.710000
    reduced_to: 55
  - symbol: Sn # 62
    coordinates: [  0.499999997816008,  0.833333332988869,  0.118911735467521 ]
    mass: 118.710000
    reduced_to: 55
  - symbol: Sn # 63
    coordinates: [  0.833333331149341,  0.833333332988869,  0.118911735467521 ]
    mass: 118.710000
    reduced_to: 55
  - symbol: Sn # 64
    coordinates: [  0.166666664482675,  0.166666666322202,  0.618911735467521 ]
    mass: 118.710000
    reduced_to: 55
  - symbol: Sn # 65
    coordinates: [  0.499999997816008,  0.166666666322202,  0.618911735467521 ]
    mass: 118.710000
    reduced_to: 55
  - symbol: Sn # 66
    coordinates: [  0.833333331149341,  0.166666666322202,  0.618911735467521 ]
    mass: 118.710000
    reduced_to: 55
  - symbol: Sn # 67
    coordinates: [  0.166666664482675,  0.499999999655535,  0.618911735467521 ]
    mass: 118.710000
    reduced_to: 55
  - symbol: Sn # 68
    coordinates: [  0.499999997816008,  0.499999999655535,  0.618911735467521 ]
    mass: 118.710000
    reduced_to: 55
  - symbol: Sn # 69
    coordinates: [  0.833333331149341,  0.499999999655535,  0.618911735467521 ]
    mass: 118.710000
    reduced_to: 55
  - symbol: Sn # 70
    coordinates: [  0.166666664482675,  0.833333332988869,  0.618911735467521 ]
    mass: 118.710000
    reduced_to: 55
  - symbol: Sn # 71
    coordinates: [  0.499999997816008,  0.833333332988869,  0.618911735467521 ]
    mass: 118.710000
    reduced_to: 55
  - symbol: Sn # 72
    coordinates: [  0.833333331149341,  0.833333332988869,  0.618911735467521 ]
    mass: 118.710000
    reduced_to: 55

displacements:
- atom:    1
  displacement:
    [   0.0070337309591560, -0.0000000003458068,  0.0071082085502756 ]
  forces:
  - [  -0.0083054583519697,  0.0000001543974548,  0.0016393363475800 ]
  - [  -0.0006991991540417,  0.0000003278379381,  0.0238165482878685 ]
  - [  -0.0005468152230605, -0.0000004752166944,  0.0236465781927109 ]
  - [   0.0002223164337920, -0.0000870060175657,  0.0237313210964203 ]
  - [   0.0005609523504972,  0.0006281398236752,  0.0229350104928017 ]
  - [   0.0002070097252727, -0.0002740897762123,  0.0232885703444481 ]
  - [   0.0002232802944491,  0.0000866176560521,  0.0237308852374554 ]
  - [   0.0005610892549157, -0.0006285596173257,  0.0229346901178360 ]
  - [   0.0002060811966658,  0.0002745737729128,  0.0232894085347652 ]
  - [   0.0002038720995188, -0.0000002309099756,  0.0216578356921673 ]
  - [   0.0000644866377115, -0.0000002198287348,  0.0231986679136753 ]
  - [  -0.0001071048900485,  0.0000005273328725,  0.0233656987547874 ]
  - [   0.0000254829701589,  0.0000852905213833,  0.0232816264033318 ]
  - [  -0.0001178206875920, -0.0001141279935837,  0.0236192345619202 ]
  - [   0.0000925958156586, -0.0000965351500781,  0.0234118551015854 ]
  - [   0.0000254449405475, -0.0000857512932271,  0.0232829935848713 ]
  - [  -0.0001176409423351,  0.0001135410202551,  0.0236210487782955 ]
  - [   0.0000920351594687,  0.0000963602651609,  0.0234128832817078 ]
  - [   0.0000045703091018, -0.0000405805403716, -0.0232078097760677 ]
  - [   0.0000739390088711, -0.0000483466428705, -0.0233755372464657 ]
  - [  -0.0001120487577282,  0.0001572140608914, -0.0233268849551678 ]
  - [  -0.0001896454486996, -0.0000003206981205, -0.0234232507646084 ]
  - [   0.0002826494164765,  0.0000009424402378, -0.0232744589447975 ]
  - [  -0.0000927257788135, -0.0000006274203770, -0.0233277007937431 ]
  - [   0.0000048181973398,  0.0000406981016567, -0.0232076719403267 ]
  - [   0.0000738493981771,  0.0000473320833407, -0.0233773551881313 ]
  - [  -0.0001114011975005, -0.0001570020103827, -0.0233279429376125 ]
  - [  -0.0003231730079278, -0.0003001483564731, -0.0232077986001968 ]
  - [   0.0000400117351091,  0.0000379982229788, -0.0233677178621292 ]
  - [   0.0011277429293841, -0.0011441318783909, -0.0217820964753628 ]
  - [   0.0000218763580051, -0.0000002849896532, -0.0233311951160431 ]
  - [   0.0000348236535501,  0.0000002299099151, -0.0233603194355965 ]
  - [  -0.0000570835836697, -0.0000005417883813, -0.0234082378447056 ]
  - [  -0.0003229151770938,  0.0003003010933753, -0.0232092402875423 ]
  - [   0.0000399375167035, -0.0000383118494938, -0.0233685262501240 ]
  - [   0.0011274899588898,  0.0011448734439909, -0.0217830203473568 ]
  - [   0.0002137747069355, -0.0000713041517884,  0.0300897955894470 ]
  - [  -0.0005266722291708, -0.0005089975893497,  0.0299570113420486 ]
  - [  -0.0001155880163424,  0.0000985775113804,  0.0301984176039696 ]
  - [   0.0002123628364643,  0.0000724353594705,  0.0300901234149933 ]
  - [  -0.0005257872398943,  0.0005098347901367,  0.0299567878246307 ]
  - [  -0.0001172373886220, -0.0000957073280006,  0.0301969870924950 ]
  - [  -0.0000901135499589, -0.0000012635136954,  0.0366341508924961 ]
  - [   0.0001272220979445, -0.0000002064962246,  0.0303618945181370 ]
  - [   0.0002503821742721, -0.0000007482974524,  0.0298313125967979 ]
  - [   0.0000492949038744, -0.0003382517024875,  0.0301744192838669 ]
  - [  -0.0000408347696066, -0.0000222809612751,  0.0299948565661907 ]
  - [  -0.0001678153057583,  0.0001554970949655,  0.0300166569650173 ]
  - [   0.0000498019689985,  0.0003391697537154,  0.0301727689802647 ]
  - [  -0.0000402983278036,  0.0000241417437792,  0.0299933403730392 ]
  - [  -0.0001677172840573, -0.0001533806207590,  0.0300152190029621 ]
  - [   0.0006272161263041, -0.0000033069518395,  0.0391511917114258 ]
  - [  -0.0002343086525798, -0.0000019632279873,  0.0300127938389778 ]
  - [   0.0004221171257086, -0.0000009548766684,  0.0303224772214890 ]
  - [   0.0027601949404925,  0.0034079249016941, -0.0280673056840897 ]
  - [   0.0003525294014253, -0.0002026927541010, -0.0301238745450974 ]
  - [  -0.0003427510091569, -0.0002847183495760, -0.0305380262434483 ]
  - [  -0.0003599026240408, -0.0000003447534311, -0.0302116684615612 ]
  - [   0.0003142537316307,  0.0000008549541235, -0.0302307009696960 ]
  - [   0.0000437303315266, -0.0000006593763828, -0.0300346240401268 ]
  - [   0.0027606603689492, -0.0034088441170752, -0.0280673950910568 ]
  - [   0.0003538541495800,  0.0002018118102569, -0.0301219075918198 ]
  - [  -0.0003437325358391,  0.0002854610211216, -0.0305368080735207 ]
  - [   0.0002035282959696,  0.0002136394323315, -0.0300534814596176 ]
  - [   0.0000226743431995,  0.0000416348339058, -0.0301225110888481 ]
  - [  -0.0000638394631096,  0.0000550486365682, -0.0298707336187363 ]
  - [   0.0000429289211752,  0.0000020809854959, -0.0301498956978321 ]
  - [  -0.0000056339877119,  0.0000035207485780, -0.0301006436347961 ]
  - [  -0.0000407487277698,  0.0000019241124392, -0.0300932712852955 ]
  - [   0.0002035555953626, -0.0002160899457522, -0.0300523638725281 ]
  - [   0.0000225863932428, -0.0000431625885540, -0.0301219150424004 ]
  - [  -0.0000630766153336, -0.0000564700676478, -0.0298704616725445 ]
- atom:    1
  displacement:
    [  -0.0070337309591560,  0.0000000003458068, -0.0071082085502756 ]
  forces:
  - [   0.0081897415220737,  0.0000007602342293,  0.0451866947114468 ]
  - [   0.0007061562500894,  0.0000004433223921,  0.0229422822594643 ]
  - [   0.0005225501954556, -0.0000006088641840,  0.0231049284338951 ]
  - [  -0.0002155231777579,  0.0000813100486994,  0.0230236575007439 ]
  - [  -0.0005598785355687, -0.0006275177001953,  0.0238143578171730 ]
  - [  -0.0002032071352005,  0.0002710238331929,  0.0234650783240795 ]
  - [  -0.0002144022728316, -0.0000820601126179,  0.0230230316519737 ]
  - [  -0.0005599251016974,  0.0006272998289205,  0.0238142088055611 ]
  - [  -0.0002042734995484, -0.0002705504302867,  0.0234659314155579 ]
  - [  -0.0002030581235886, -0.0000004115827323,  0.0250710621476173 ]
  - [  -0.0000644354149699, -0.0000000913073563,  0.0235537365078926 ]
  - [   0.0001066308468580,  0.0000007657504284,  0.0233821086585522 ]
  - [  -0.0000249004551733, -0.0000855699181557,  0.0234671086072922 ]
  - [   0.0001164898276329,  0.0001122690737247,  0.0231294780969620 ]
  - [  -0.0000914400443435,  0.0000950265675783,  0.0233361013233662 ]
  - [  -0.0000250086632150,  0.0000855294056237,  0.0234685912728310 ]
  - [   0.0001166127622128, -0.0001131165117840,  0.0231313630938530 ]
  - [  -0.0000919355079532, -0.0000957296215347,  0.0233372263610363 ]
  - [  -0.0000063221486926,  0.0000394775051973, -0.0235356912016869 ]
  - [  -0.0000727929436835,  0.0000480396556668, -0.0233761034905910 ]
  - [   0.0001113237158279, -0.0001579135423526, -0.0234231241047382 ]
  - [   0.0001891695428640, -0.0000001505559055, -0.0233283825218678 ]
  - [  -0.0002823360264301,  0.0000010007643141, -0.0234774164855480 ]
  - [   0.0000934723866521, -0.0000007637427188, -0.0234233476221561 ]
  - [  -0.0000063310726546, -0.0000397215335397, -0.0235358662903309 ]
  - [  -0.0000727373408154, -0.0000490649254061, -0.0233777090907097 ]
  - [   0.0001117817009799,  0.0001580978278071, -0.0234239771962166 ]
  - [   0.0003152042045258,  0.0002920583938248, -0.0235399492084980 ]
  - [  -0.0000399793716497, -0.0000396118557546, -0.0233829990029335 ]
  - [  -0.0011452783364803,  0.0011740175541490, -0.0249948985874653 ]
  - [  -0.0000206303393497, -0.0000001284994937, -0.0234231278300285 ]
  - [  -0.0000360090743925,  0.0000000674825742, -0.0233930423855782 ]
  - [   0.0000563582289033, -0.0000001716460361, -0.0233464501798153 ]
  - [   0.0003152760036755, -0.0002923997235484, -0.0235413946211338 ]
  - [  -0.0000401364450227,  0.0000396884570364, -0.0233839079737663 ]
  - [  -0.0011453042970970, -0.0011737847235054, -0.0249960422515869 ]
  - [  -0.0002176120469812,  0.0000823571463116,  0.0300833657383919 ]
  - [   0.0005047768354416,  0.0004855263978243,  0.0301953107118607 ]
  - [   0.0001173800555989, -0.0000977509043878,  0.0299663692712784 ]
  - [  -0.0002190658997279, -0.0000814211089164,  0.0300837159156799 ]
  - [   0.0005055731162429, -0.0004848195530940,  0.0301949940621853 ]
  - [   0.0001160714891739,  0.0001004894147627,  0.0299649238586426 ]
  - [   0.0000659140350763, -0.0000012149102986,  0.0236956588923931 ]
  - [  -0.0000719614909030,  0.0000003075788300,  0.0298448540270329 ]
  - [  -0.0002530319034122, -0.0000005513822998,  0.0303334109485149 ]
  - [  -0.0000526672229171,  0.0003488883376122,  0.0299904048442841 ]
  - [   0.0000402741134167,  0.0000261124223471,  0.0301771499216557 ]
  - [   0.0001732467208058, -0.0001535290648462,  0.0301550738513470 ]
  - [  -0.0000525196337549, -0.0003482848405838,  0.0299890153110027 ]
  - [   0.0000406038016081, -0.0000247908756137,  0.0301756151020527 ]
  - [   0.0001734955585562,  0.0001556832721690,  0.0301536135375500 ]
  - [  -0.0005963076255284, -0.0000031468807720,  0.0208295397460461 ]
  - [   0.0002380888909101, -0.0000015217810869,  0.0301596149802208 ]
  - [  -0.0004815506399609, -0.0000012987394484,  0.0298071913421154 ]
  - [  -0.0026749270036817, -0.0032808468677104, -0.0320559553802013 ]
  - [  -0.0003458162536845,  0.0001999621163122, -0.0300448425114155 ]
  - [   0.0003629653656390,  0.0002633202821016, -0.0296497866511345 ]
  - [   0.0003541204787325, -0.0000005514919508, -0.0299566723406315 ]
  - [  -0.0003067764046136,  0.0000009667128325, -0.0299376882612705 ]
  - [  -0.0000480239577882, -0.0000008195638657, -0.0301316455006599 ]
  - [  -0.0026740534231067,  0.0032799127511680, -0.0320560522377491 ]
  - [  -0.0003446526825428, -0.0002013150224229, -0.0300430618226528 ]
  - [   0.0003614928573370, -0.0002619968436193, -0.0296487808227539 ]
  - [  -0.0002042453561444, -0.0002144864993170, -0.0301136150956154 ]
  - [  -0.0000245898536377, -0.0000405927130487, -0.0300470851361752 ]
  - [   0.0000597076068516, -0.0000474657645100, -0.0303038731217384 ]
  - [  -0.0000451620398962,  0.0000023716841042, -0.0300176255404949 ]
  - [   0.0000061013224695,  0.0000034664699342, -0.0300683453679085 ]
  - [   0.0000361037091352,  0.0000023376196623, -0.0300753861665726 ]
  - [  -0.0002037054509856,  0.0002120747376466, -0.0301126018166542 ]
  - [  -0.0000242423684540,  0.0000391788998968, -0.0300467126071453 ]
  - [   0.0000600181519985,  0.0000459661678178, -0.0303035452961922 ]
- atom:   37
  displacement:
    [   0.0070337309591560, -0.0000000003458068,  0.0071082085502756 ]
  forces:
  - [   0.0002133770321961,  0.0002549994096626,  0.0233758054673672 ]
  - [  -0.0001964885741472,  0.0001791163958842,  0.0235697589814663 ]
  - [  -0.0004306276096031, -0.0004120711237192,  0.0231785774230957 ]
  - [  -0.0000708847728674, -0.0000007487833500,  0.0297546982765198 ]
  - [  -0.0000832378864288, -0.0000007487833500,  0.0234551243484020 ]
  - [   0.0004156008362770, -0.0000004563301275,  0.0232898890972137 ]
  - [   0.0002140321012121, -0.0002544575836509,  0.0233765989542007 ]
  - [  -0.0001967754215002, -0.0001787217915989,  0.0235706828534603 ]
  - [  -0.0004308689385653,  0.0004124493862037,  0.0231784433126450 ]
  - [   0.0000511668622494, -0.0001717317063594,  0.0234679728746414 ]
  - [  -0.0000955956056714,  0.0000786860473454,  0.0232289806008339 ]
  - [  -0.0001166844740510, -0.0000996862945613,  0.0233576670289040 ]
  - [   0.0005867631989531, -0.0000003129243851,  0.0326462164521217 ]
  - [   0.0003061294555664, -0.0000005643814802,  0.0238307192921638 ]
  - [  -0.0000585718080401, -0.0000002569595097,  0.0231290794909000 ]
  - [   0.0000510593381478,  0.0001714053796604,  0.0234703719615936 ]
  - [  -0.0000957408919930, -0.0000790847843746,  0.0232305042445660 ]
  - [  -0.0001166183501482,  0.0001000874399324,  0.0233598649501801 ]
  - [   0.0024619770701975, -0.0031099871266633, -0.0210534632205963 ]
  - [   0.0003491605457384,  0.0000863330787979, -0.0234142653644085 ]
  - [  -0.0000311838230118,  0.0005970265483484, -0.0241327621042728 ]
  - [   0.0024614606518298,  0.0031089861877263, -0.0210528708994389 ]
  - [   0.0003483969485387, -0.0000858588609844, -0.0234139971435070 ]
  - [  -0.0000299249659292, -0.0005977744003758, -0.0241331309080124 ]
  - [  -0.0002435495844111,  0.0000004726459224, -0.0236127562820911 ]
  - [   0.0003087527002208, -0.0000001938315108, -0.0235229432582855 ]
  - [  -0.0000653255847283,  0.0000001449370757, -0.0232174992561340 ]
  - [  -0.0000254660735663,  0.0000158334278240, -0.0231213308870792 ]
  - [   0.0000229590787058,  0.0000287035654765, -0.0234139114618301 ]
  - [   0.0001664226292633,  0.0001763422915246, -0.0233820304274559 ]
  - [  -0.0000245512364927, -0.0000158241127792, -0.0231223851442337 ]
  - [   0.0000220804231503, -0.0000286202102870, -0.0234145075082779 ]
  - [   0.0001655632368056, -0.0001761123858159, -0.0233826786279678 ]
  - [  -0.0000258844229393, -0.0000001760962931, -0.0233739577233791 ]
  - [  -0.0000060896550167,  0.0000000991570133, -0.0233931802213192 ]
  - [   0.0000328336609527,  0.0000000947918721, -0.0234553106129169 ]
  - [  -0.0105811329558492,  0.0000005912152119,  0.0019040778279305 ]
  - [  -0.0001343693584204,  0.0000006668269634,  0.0308456644415855 ]
  - [   0.0013285825261846,  0.0000006577492968,  0.0294275581836700 ]
  - [  -0.0006302705733106, -0.0007114697946236,  0.0301320850849152 ]
  - [   0.0000208081910387,  0.0001973211328732,  0.0300119444727898 ]
  - [  -0.0002722488716245,  0.0000955957366386,  0.0303020775318146 ]
  - [  -0.0006289402372204,  0.0007111647282727,  0.0301333926618099 ]
  - [   0.0000209006248042, -0.0001979465159820,  0.0300131440162659 ]
  - [  -0.0002722215722315, -0.0000943529303186,  0.0303022973239422 ]
  - [   0.0000582467764616,  0.0000000642612576,  0.0290458127856255 ]
  - [  -0.0000898521393538,  0.0000017546117306,  0.0301499962806702 ]
  - [   0.0000103592174128,  0.0000017840200144,  0.0300513021647930 ]
  - [   0.0000503539340571, -0.0000482680043206,  0.0301007442176342 ]
  - [  -0.0000593680888414, -0.0000482741743326,  0.0300855115056038 ]
  - [   0.0000096904695965, -0.0000186898341781,  0.0300197377800941 ]
  - [   0.0000502150069224,  0.0000457285786979,  0.0301026329398155 ]
  - [  -0.0000584535300732,  0.0000461060553789,  0.0300861224532127 ]
  - [   0.0000093404669315,  0.0000180080205610,  0.0300220176577568 ]
  - [  -0.0019903860520571,  0.0004918476333842, -0.0306270495057106 ]
  - [   0.0006302895490080, -0.0002583136083558, -0.0302638448774815 ]
  - [   0.0039424486458302,  0.0054106675088406, -0.0247656628489494 ]
  - [  -0.0019901311025023, -0.0004914787132293, -0.0306281000375748 ]
  - [   0.0006297850050032,  0.0002601342275739, -0.0302643030881882 ]
  - [   0.0039416579529643, -0.0054095666855574, -0.0247656740248203 ]
  - [   0.0002744844241533, -0.0000017338655880, -0.0300079584121704 ]
  - [  -0.0000378675758839, -0.0000020899874471, -0.0299998149275780 ]
  - [  -0.0002358984202147, -0.0000000729064595, -0.0305175706744194 ]
  - [   0.0000862495435285, -0.0001462166837882, -0.0297611989080906 ]
  - [   0.0000435422298324, -0.0000300023239106, -0.0300893560051918 ]
  - [  -0.0000430570798926,  0.0000170823386725, -0.0298908017575741 ]
  - [   0.0000845436734380,  0.0001481865620008, -0.0297604799270630 ]
  - [   0.0000435706751887,  0.0000333758362103, -0.0300896689295769 ]
  - [  -0.0000450987063232, -0.0000144466757774, -0.0298910699784756 ]
  - [   0.0000279324885923, -0.0000019732817691, -0.0300604179501534 ]
  - [   0.0000039934698179, -0.0000013619611536, -0.0300927609205246 ]
  - [  -0.0000314246863127, -0.0000018907235244, -0.0301182642579079 ]
- atom:   37
  displacement:
    [  -0.0070337309591560,  0.0000000003458068, -0.0071082085502756 ]
  forces:
  - [  -0.0002183603937738, -0.0002593816025183,  0.0233693867921829 ]
  - [   0.0001984370173886, -0.0001791498507373,  0.0231778770685196 ]
  - [   0.0004389465320855,  0.0004206584417261,  0.0235762484371662 ]
  - [   0.0000853782112245, -0.0000008139759302,  0.0168165601789951 ]
  - [   0.0000806488096714, -0.0000006351619959,  0.0232966579496861 ]
  - [  -0.0004509140271693, -0.0000002514480286,  0.0234334059059620 ]
  - [  -0.0002172601525672,  0.0002597841667011,  0.0233702436089516 ]
  - [   0.0001976899802685,  0.0001795183634385,  0.0231791511178017 ]
  - [   0.0004391381517053, -0.0004205373988952,  0.0235762707889080 ]
  - [  -0.0000506257638335,  0.0001625117292861,  0.0232839509844780 ]
  - [   0.0000930801033974, -0.0000774791260483,  0.0235178135335445 ]
  - [   0.0001168148592114,  0.0001015437883325,  0.0233895629644394 ]
  - [  -0.0006362246931531, -0.0000005681067705,  0.0143273398280144 ]
  - [  -0.0002448707818985, -0.0000004116445780,  0.0229658856987953 ]
  - [   0.0000600526109338, -0.0000003091180929,  0.0236251018941402 ]
  - [  -0.0000511529724463, -0.0001626333687454,  0.0232866853475571 ]
  - [   0.0000929292291403,  0.0000770859769545,  0.0235193222761154 ]
  - [   0.0001169731840491, -0.0001012898937915,  0.0233918949961662 ]
  - [  -0.0023672077804804,  0.0029729562811553, -0.0256412029266357 ]
  - [  -0.0003497315337881, -0.0000919356243685, -0.0233355425298214 ]
  - [   0.0000683105026837, -0.0005564423045143, -0.0226456224918365 ]
  - [  -0.0023671528324485, -0.0029737418517470, -0.0256410129368305 ]