4
Lattice="4.486592848925334 -0.0006197818555012653 5.745441826098902e-08 0.004075674067475363 4.486590985679973 2.8867257416357046e-08 1.421054874160707e-08 -3.155350485057775e-08 3.2051892627116603" Properties=species:S:1:pos:R:3:forces:R:3 structure_index=0 total_energy=-9.55824089050293 stress="0.08417124301195145 0.0028798517305403948 3.277427040870862e-08 0.0028800915461033583 0.08416443318128586 8.680560199536558e-07 1.706282830582495e-07 9.065167319022294e-07 0.12034691870212555" pbc="T T T"
Li       4.48863068       2.24267572       1.60259467       0.00000018      -0.00000032       0.00000012
Li       2.24737206       4.48628105       1.60259467      -0.00000011       0.00000012       0.00000005
Li       2.24533430       2.24298559       0.00000006      -0.00000000       0.00000003      -0.00000010
Ga       0.00000003       0.00000003       0.00000004      -0.00000004       0.00000017      -0.00000009
5
Lattice="3.9433033682655814 -0.04608047086719717 3.4075700176887973 1.531257990783552 3.634145557157012 3.4075700133372773 -0.07030783567996132 -0.04608041611734085 5.211164188852422" Properties=species:S:1:pos:R:3:forces:R:3 structure_index=1 total_energy=-13.314864158630371 stress="-0.028014257550239563 0.011825118213891983 0.04015560448169708 0.01182518806308508 -0.03830495476722717 0.026318296790122986 0.04015591740608215 0.026318220421671867 0.043302468955516815" pbc="T T T"
Li       5.40425350       3.54198466      12.02630415       0.00000000       0.00000009      -0.00000021
Li       3.22812636       2.11573607       7.18368038       0.01537328       0.01007552       0.03421051
Li       2.17612713       1.42624860       4.84262384      -0.01537302      -0.01007564      -0.03421071
Ga       1.08011872       0.70791715       2.40363186      -0.01779011      -0.01165969      -0.03959043
Ga       4.32413486       2.83406753       9.62267244       0.01778986       0.01165972       0.03959080
4
Lattice="3.8967332138598807 9.438821055140293e-08 1.0926330989530263e-07 -9.159943763051212e-08 3.8972858473455005 3.105040176957787e-07 3.226994580265502e-08 -5.864301337905701e-08 4.194236214053216" Properties=species:S:1:pos:R:3:forces:R:3 structure_index=2 total_energy=-11.007473945617676 stress="-0.04703269153833389 1.2559072501971968e-06 1.1844591085719003e-07 1.2777832125721034e-06 -0.04581888020038605 8.89816533344856e-07 1.4992519936640747e-07 9.136066978499002e-07 0.056279733777046204" pbc="T T T"
Li       1.94836639       3.89728585       1.76546539       0.00000025      -0.00000019      -0.02214473
Li       3.89673316       1.94864295       1.72973209       0.00000007       0.00000012       0.02214495
Ga       0.00000004       0.00000002       3.85447503       0.00000016      -0.00000033      -0.01455916
Ga       1.94836675       1.94864289       3.83495824      -0.00000047       0.00000040       0.01455894
4
Lattice="2.8236500378399807 -7.942861267862097e-08 -2.782076331321163e-07 1.4574448395907768e-06 4.611918407194923 -4.624284219020226e-07 6.90713388356901e-08 2.3051452038550246e-07 5.0523811200243545" Properties=species:S:1:pos:R:3:forces:R:3 structure_index=3 total_energy=-9.543596267700195 stress="0.11639249324798584 -8.828582735986856e-07 -4.369580437924014e-06 -9.7908139196079e-07 0.06020117551088333 6.375448151629826e-07 -4.263632490619784e-06 8.527265435986919e-07 0.037080686539411545" pbc="T T T"
Li       1.41182642       4.61191842       2.57376144       0.00000019      -0.00000017       0.00640818
Li       1.41182582       2.30595938       4.26023801       0.00000015      -0.00000016      -0.04356553
Li       2.82365074       2.30595910       1.54309526       0.00000011       0.00000043       0.01205615
Ga       0.00000012       0.00000013       0.04353901      -0.00000043      -0.00000009       0.02510121
3
Lattice="4.462221761036644 -1.0622602498756105e-08 -6.791680107900072e-08 -2.2311109508670177 3.8643973452556164 1.1568122280988629e-07 -4.585740003045681e-09 -1.6045576133040888e-10 2.6479085277369094" Properties=species:S:1:pos:R:3:forces:R:3 structure_index=4 total_energy=-7.7156267166137695 stress="0.17598244547843933 -1.3962293223812594e-06 1.330104396402021e-06 -1.68830183611135e-06 0.17598401010036469 1.2016844266327098e-06 1.6143645780175575e-06 1.0914934591710335e-06 -0.016567660495638847" pbc="T T T"
Li      -0.00000213       2.57626848       1.23868257      -0.00006411       0.00011068      -0.01293120
Li       2.23110879       1.28813602       1.40922599      -0.00006428       0.00011054       0.01293145
Ga       4.46215789       0.00011060      -0.00000005       0.00012837      -0.00022122      -0.00000025
6
Lattice="5.193725831922929 -0.019665970143103378 -9.453597461326729e-08 -3.2362934988791388 4.06221366888264 -6.75773266315478e-08 -9.447779958681363e-09 9.04300898953169e-09 4.41177233460137" Properties=species:S:1:pos:R:3:forces:R:3 structure_index=5 total_energy=-15.398393630981445 stress="-0.020037567242980003 -0.019556550309062004 -5.145382715454616e-07 -0.019556574523448944 -0.05095445364713669 5.145382715454616e-07 -4.010208272120508e-07 5.937008609180339e-07 -0.08604282885789871" pbc="T T T"
Li      -1.19421292       3.07342268       1.10294303       0.02268878      -0.01098635      -0.00000045
Li       3.15164526       0.96912502       3.30882913      -0.02268875       0.01098639       0.00000039
Li       1.70965648       1.66734698       1.10294301      -0.00610413       0.00295583      -0.00000026
Li       0.24777584       2.37520073       3.30882916       0.00610416      -0.00295597       0.00000020
Ga       4.52453100       0.30436328       1.10294304       0.01635998      -0.00792161      -0.00000062
Ga      -2.56709868       3.73818443       3.30882915      -0.01635999       0.00792170       0.00000074
4
Lattice="4.492690287923036 1.0368630225776666e-07 1.473553776588571e-07 1.0190229906803737e-07 2.769482160202624 0.002958655716833861 1.0674395394839199e-07 0.00016161627961153963 5.094540749683298" Properties=species:S:1:pos:R:3:forces:R:3 structure_index=6 total_energy=-11.019716262817383 stress="0.10089318454265594 8.752447797633067e-07 -1.2155004469605046e-06 8.366883434973715e-07 -0.10999400168657303 -0.0010260732378810644 -1.4217963553164736e-06 -0.0010261980351060629 0.0749366506934166" pbc="T T T"
Li       3.36951794       2.76478180       4.31313572      -0.00000026       0.00188170       0.00584387
Li       1.12317263       0.00486200       0.78436388      -0.00000004      -0.00188158      -0.00584385
Ga       3.36951773       1.38642778       1.79385184      -0.00000013      -0.00168700      -0.02245907
Ga       1.12317269       1.38321618       3.30364767       0.00000043       0.00168688       0.02245908
2
Lattice="3.119908508457024 -2.7595386862010763e-08 -5.033160037305641e-08 -1.845181861191292e-08 3.119908456275984 -1.4989372313525628e-08 1.2634059653784637e-08 -2.3187735227459437e-09 4.352583312331822" Properties=species:S:1:pos:R:3:forces:R:3 structure_index=7 total_energy=-6.521965503692627 stress="-0.17506428062915802 -3.47666315292372e-07 3.156409320581588e-07 -3.2448636488879856e-07 -0.17506486177444458 3.4383748470645514e-07 3.7152611298552074e-07 3.1344194439952844e-07 0.11549491435289383" pbc="T T T"
Li       3.11990850      -0.00000004      -0.00000005      -0.00000004       0.00000035       0.00000003
Sn       1.55995426       1.55995422       2.17629162       0.00000005      -0.00000035      -0.00000003
