12
Lattice="4.181473503652681 0.00041553916109556216 -0.0002236744788803856 -2.0904701515808948 5.9316368427611605 -0.1134011867116118 -0.00024160870916557298 0.0021318307462035863 8.404828209737492" Properties=species:S:1:pos:R:3:forces:R:3 structure_index=0 total_energy=-34.54899597167969 stress="-0.037867434322834015 0.0002660939353518188 -0.00010140259109903127 0.00026606375467963517 -0.019267456606030464 -0.0013465919764712453 -0.00010140724771190435 -0.0013465890660881996 -0.01782408356666565" pbc="T T T"
Li       0.99922441       5.29071238       5.01017420      -0.00062189      -0.03436469       0.01724538
Li       0.99855394       3.44802988       2.80767880      -0.00005960       0.00997299      -0.01870976
Li       0.99919548       5.43200920       0.62182800      -0.00016526      -0.02150712      -0.01617730
Li       0.99865556       3.46699727       7.05868441       0.00018429       0.01462368       0.00633530
Li       0.99870707       1.52173994       5.04984313      -0.00044050       0.03020908       0.00710272
Ga      -1.09136161       3.53912409       0.63823761      -0.00026262       0.01050980       0.01593414
Ga      -1.09192288       5.53763508       7.02753924       0.00005371       0.00267282       0.00342307
Ga       3.08909257       1.43073391       7.04731457       0.00056156      -0.01940298       0.00583311
Ga      -1.09265112       5.24425373       2.82754435       0.00077530       0.00150573      -0.01451863
Ga       0.99948164       1.60182197       0.65699562      -0.00071051       0.03875073      -0.01203866
Ga      -1.09208175       3.48561196       5.03771933       0.00014769       0.01171976      -0.00460907
Sn       3.08862937       1.30271881       2.92751264       0.00053785      -0.04468979       0.01017970
8
Lattice="5.309682096533953 -0.12068866748570599 -1.7710832023865326 -2.7660193188201303 4.530896181573658 -1.7790751168468144 0.04956308338709035 0.10411185280665183 5.597703340663464" Properties=species:S:1:pos:R:3:forces:R:3 structure_index=1 total_energy=-21.891401290893555 stress="0.03836067393422127 -0.024998314678668976 0.0018882020376622677 -0.024998409673571587 0.01593847945332527 0.01036832109093666 0.0018881403375416994 0.010368403978645802 0.04210175573825836" pbc="T T T"
Li       4.06364845       0.73980556       1.51958943      -0.00028995      -0.00305764       0.00153679
Li       0.02729055       3.06595410       1.51623547       0.00016278      -0.00167185       0.00061613
Li       4.04123913       0.68654043      -1.27688349      -0.00226738       0.00024045      -0.00114418
Li       2.65667909       2.95067691      -2.16835015      -0.00073745      -0.00089022      -0.00019562
Li       1.38290908       0.74624610      -0.39251561       0.00295086      -0.00104026      -0.00085402
Ga       1.40851982       0.79677102       2.40550768       0.00032736       0.00196638       0.00032099
Ga       2.68162422       3.00289270       0.63017906      -0.00076318       0.00198880      -0.00032940
Sn       0.00169076       3.01144295      -1.28254789       0.00061697       0.00246434       0.00004930
10
Lattice="4.294615974524407 -0.0002651970428784955 -1.3373594168627656 -0.0009042170285392229 5.899748926061967 -0.005680658583355967 -0.021667639379690726 0.0037898768198789345 7.291419415379977" Properties=species:S:1:pos:R:3:forces:R:3 structure_index=2 total_energy=-28.296184539794922 stress="-0.006692772265523672 5.552944276132621e-05 0.0003422051668167114 5.5512460676254705e-05 -0.014112982898950577 0.000188181089470163 0.00034221570240333676 0.00018808608001563698 -0.014112361706793308" pbc="T T T"
Li       4.13117759       1.00163470       4.84681028       0.01044431      -0.00134518      -0.02434426
Li       2.29460016       5.41589801       6.50827191       0.02384559       0.00495704      -0.00999424
Li       3.35623818       2.46462728       2.13627989      -0.02385776       0.00493029       0.01006727
Li       2.29564208       2.49309332       6.51218272       0.02381848      -0.00551016      -0.01028023
Li       1.52078409       3.95613136       3.80159637      -0.01049159       0.00160328       0.02439712
Li       3.35633642       5.44139240       2.13435846      -0.02364263      -0.00517207       0.01025240
Ga       4.06276246       3.95013806       4.41483579      -0.00228825      -0.00282521       0.01831313
Ga       1.58921659       1.00762445       4.23357119       0.00218253       0.00273655      -0.01830222
Sn       0.83060794       1.00170192       1.58048108      -0.04943525       0.00028065      -0.01462695
Sn       0.54832750       3.95147008       1.11391835       0.04942456       0.00034479       0.01451795
12
Lattice="4.14821763511159 0.0014286118315959724 1.3038772635114682 2.60752329392342 6.920184491311843 -1.0485597945186513 -0.06887375082883099 -0.1896622379592626 7.4645470934515465" Properties=species:S:1:pos:R:3:forces:R:3 structure_index=3 total_energy=-33.977298736572266 stress="-0.03029237687587738 -0.0022337252739816904 -0.01660795509815216 -0.0022339895367622375 0.023090308532118797 0.010181507095694542 -0.01660817675292492 0.010181501507759094 0.010004572570323944" pbc="T T T"
Li       5.17323512       3.79335404       3.73156551      -0.00317576       0.00400400       0.00974103
Li       1.74752281       0.29546129       7.37759555       0.00067096      -0.01135586      -0.00126109
Li       6.00090863       6.33648048       1.09478057      -0.00017195       0.01567449       0.00199381
Li       4.30028391       1.29537191       6.51197270       0.00325970       0.00067804      -0.01219503
Li       4.27698530       4.21270189       6.58018513      -0.00208256      -0.00594743       0.00633793
Li       3.49645769       5.11882800       1.81081617       0.00164067       0.01375360      -0.00293119
Li       2.67726050       2.42034416       4.42452216       0.00388361      -0.00620230      -0.01397341
Ga       0.95828313       0.90731821       2.64131846       0.00042319       0.00237211      -0.00122278
Ga       5.16541006       6.57033045       3.75457851       0.00134685       0.00302342      -0.00510201
Ga       1.84939103       3.27090112       7.05204193      -0.00137865      -0.00440787       0.00505936
Sn       3.56017645       2.31209335       1.61459239      -0.00200344      -0.00608768       0.00646863
Sn       2.63377917       5.35397261       4.55778335      -0.00241263      -0.00550452       0.00708477
4
Lattice="4.035082340240479 0.0 2.3286371231079097 1.3446041441490024 3.8052345129883953 2.3289654254913326 0.0 0.0 4.658924579620361" Properties=species:S:1:pos:R:3:forces:R:3 structure_index=4 total_energy=-12.011075973510742 stress="-0.055816907435655594 -0.0012572946725413203 -0.002741767792031169 -0.0012572554405778646 -0.04710749536752701 -0.001639763591811061 -0.0027415978256613016 -0.0016398131847381592 -0.05885367467999458" pbc="T T T"
Li       2.58113711       1.46567334       3.43976888      -0.00026402      -0.00011359      -0.00093530
Li       1.23603513       3.36765405       5.76940475      -0.00030944       0.00100879      -0.00075312
Ga       1.23606044       0.51381498       1.11102944       0.00019863       0.00030871      -0.00052047
Sn       3.92590786       2.41731663       5.76771485       0.00037483      -0.00120392       0.00220890
15
Lattice="5.629774952323495 -0.026288039465501782 0.6425698605448251 0.5432356499097537 6.879419630623644 2.7848739936818547 -0.04634996090113913 -0.03485736894183006 7.450900603434774" Properties=species:S:1:pos:R:3:forces:R:3 structure_index=5 total_energy=-45.65666580200195 stress="0.005529305431991816 0.006031329277902842 0.009790652431547642 0.006031208671629429 -0.005941853392869234 -0.0013216558145359159 0.009790725074708462 -0.0013217197265475988 -0.0038773268461227417" pbc="T T T"
Li       4.69315854       6.43679981       6.96265142      -0.03696220       0.01451079       0.02481119
Li       1.04301799       2.29025375       7.88023172      -0.00003714       0.00094454      -0.00062403
Li       3.61622646       5.02684119       4.77438815       0.03467707      -0.01264920      -0.02262469
Ga       1.88778177       5.25143509       7.35661153       0.01926522       0.00241678      -0.00211579
Ga       3.95963701       3.43786500       7.41963483      -0.00619933      -0.01974686       0.01039772
Ga       5.18600236       4.78788970       9.56930475       0.01547150       0.00089082      -0.00239083
Ga       0.58674692       3.95987351       5.28032338      -0.01289499       0.00096649      -0.00568726
Ga       5.04477629       2.48706834       3.68480705       0.01258436       0.00265840       0.00365703
Ga       3.79843881       1.15848453       1.52908538       0.00755820       0.01619265      -0.00983775
Ga       2.72307425       2.09836002       5.25411082      -0.01673998       0.00197837       0.00532028
Ga       1.54839894       0.65617661       3.03454883       0.01330280      -0.00450858       0.00116192
Ga       3.06529029       6.65395286       9.62565374      -0.01406397      -0.00277135      -0.00321411
Ga       0.78279560       6.24587965       3.74435338      -0.01784210      -0.00028967       0.00106409
Sn       2.26559194       3.72481636       2.62965318       0.00088116       0.00117266       0.00914257
Sn       5.49191440       0.87129354       6.32176406       0.00099939      -0.00176584      -0.00906035
6
Lattice="4.719124308214321 0.06763417354457771 2.6394600185910195 1.367889878236209 4.998361902647475 0.7283244998479164 0.09334776329202213 0.059268195286305995 5.377522077475369" Properties=species:S:1:pos:R:3:forces:R:3 structure_index=6 total_energy=-18.907596588134766 stress="0.0278696920722723 0.019766774028539658 0.020290903747081757 0.019766710698604584 -0.01591535098850727 0.02213778719305992 0.020290855318307877 0.022137809544801712 0.056399472057819366" pbc="T T T"
Li       2.54672154       1.57183865       4.12382474       0.00704105       0.00323052      -0.00782371
Li       0.92613717       1.53182990       1.49530210      -0.01091477      -0.00203668       0.00768253
Ga       5.59828345       4.10032049       5.77262114       0.00318570       0.01031484       0.02340585
Ga       3.94666273       4.07312536       3.21170106       0.00388738      -0.01074616      -0.02443535
Sn       4.14066848       1.61759458       6.81832418      -0.00061616      -0.00165225      -0.00034334
Sn       2.46225728       4.08117316       5.86084767      -0.00258320       0.00088971       0.00151402
6
Lattice="4.526078437734561 -0.0012705276039396561 0.00014800944427761865 -2.2620098284755272 3.9191691508596036 8.473223184646096e-05 -0.0006103737863575585 -0.001445816307332882 7.412575040669913" Properties=species:S:1:pos:R:3:forces:R:3 structure_index=7 total_energy=-19.268478393554688 stress="-0.023216677829623222 0.00010661001579137519 -0.00036635957076214254 0.00010654510697349906 -0.030055005103349686 -0.0011711101979017258 -0.0003663324750959873 -0.0011710472172126174 0.03170924633741379" pbc="T T T"
Li       1.85012649       0.12929214       1.19420334       0.00007723       0.00012299      -0.01511796
Li       1.84999076       0.12818058       4.89902987      -0.00003652       0.00015469      -0.01332746
Ga      -0.41240770       1.43608296       0.16598931      -0.00002154       0.00042480       0.00170499
Ga       1.85064816       2.74102374       3.87247492      -0.00002827      -0.00093740       0.00166384
Sn      -0.41273644       1.43558298       2.98599952       0.00015885       0.00043516       0.01747885
Sn       1.85046351       2.74019224       6.69411482      -0.00014974      -0.00020023       0.00759773
4
Lattice="4.232427765603454 4.230158037236173e-05 -8.248818352545472e-06 -0.0009297621717023898 4.207688788730237 -0.0010217221700611723 5.270442055117462e-07 9.443619805044512e-05 4.209596286248237" Properties=species:S:1:pos:R:3:forces:R:3 structure_index=8 total_energy=-11.99063777923584 stress="-0.0528426431119442 -0.0006872194935567677 -7.633248060301412e-06 -0.0006872547673992813 -0.09624429792165756 -0.0012203996302559972 -7.643946446478367e-06 -0.0012203663354739547 -0.08956901729106903" pbc="T T T"
Li       1.39581109       4.11734746       3.23447975       0.00053701       0.00001145       0.00041553
Li       1.39595325       2.01360464       1.13053346       0.00091245      -0.00016393       0.00001145
Ga       3.51284205       2.01292136       3.23543484      -0.00032035       0.00074383      -0.00000393
Sn       3.51266048       4.11747014       1.13025288      -0.00112911      -0.00059135      -0.00042306
10
Lattice="4.7930452565484405 -0.00046280923269122225 0.00022402025088702902 -2.396346373730222 4.151241108468811 0.0005463843695152741 -0.0004189463927157355 -0.0014064167597384323 10.338713177729362" Properties=species:S:1:pos:R:3:forces:R:3 structure_index=9 total_energy=-31.731447219848633 stress="0.023874880746006966 0.00010855113941943273 4.360295497463085e-05 0.00010859053872991353 0.02399236522614956 0.00016467955720145255 4.36550508311484e-05 0.0001646557211643085 0.0029094493947923183" pbc="T T T"
Li       0.70052943       0.11329475       6.11149555      -0.00067785      -0.00002749      -0.00040760
Li       0.69892164       2.88115070       0.93508249       0.00035049       0.00006015       0.00035966
Li       3.09526872       1.49604871       8.68932670       0.00032643      -0.00006261       0.00063297
Li       3.09680865       1.49692010       3.52003215      -0.00047938       0.00024947       0.00052978
Ga       3.09658664       1.49669461       6.10418697       0.00024612       0.00006347       0.00095019
Ga       3.09566194       1.49736052       0.93589520      -0.00011356      -0.00017586      -0.00013759
Sn       0.69862158       0.11239630       9.70911430       0.00005854       0.00022333      -0.00670160
Sn       0.69943011       0.11367175       2.50039401       0.00038685      -0.00002735       0.00744420
Sn       0.70026408       2.88100667       4.54292944       0.00007659      -0.00035589      -0.00941279
Sn       0.69957269       2.88019536       7.67231347      -0.00017423       0.00005277       0.00674278
5
Lattice="4.2009035574225555 0.0002209350604835858 1.867475106567087 1.680133605109425 3.8524009261281367 1.8654311284462703 -0.0280026589181332 -0.016837140093603042 5.693577366043444" Properties=species:S:1:pos:R:3:forces:R:3 structure_index=10 total_energy=-14.897738456726074 stress="-0.08054573833942413 -0.0009902723832055926 0.003938098903745413 -0.0009903829777613282 -0.08100979030132294 0.0014689761446788907 0.003937950823456049 0.0014690617099404335 -0.0825277715921402" pbc="T T T"
Li       2.86186908       3.01116320       3.75836791       0.00205631       0.00242472      -0.00464060
Li       1.69156366       2.24667852       6.37313115      -0.00196077      -0.00180421       0.00355892
Ga       4.02148544       3.77185439       6.79042555       0.00967951       0.00766448      -0.01896203
Ga       4.73320606       1.48711201       5.20779723      -0.00938273      -0.00766111       0.01834117
Sn       3.55147633       0.71170307       2.21861164      -0.00039232      -0.00062386       0.00170253
8
Lattice="4.374765373288118 0.001576853356811355 1.3985085145737144 2.137284610673839 3.9762985548399628 0.8517302434847438 -0.06847348288339547 -1.5988494902529289 7.757930567066568" Properties=species:S:1:pos:R:3:forces:R:3 structure_index=11 total_energy=-20.8573055267334 stress="0.03667519986629486 -0.0020539043471217155 -0.0023041460663080215 -0.0020543416030704975 0.036567557603120804 0.007592868059873581 -0.002304067136719823 0.007593287620693445 0.043645378202199936" pbc="T T T"
Li       5.25044073       1.47723637       2.63120359       0.01078651      -0.00165517      -0.03250078
Li       4.38208412       1.40630337       5.34866399       0.00813578      -0.02147734      -0.02525146
Li       2.73232114       2.76196826       2.96580301      -0.00810720       0.02191114       0.02538006
Li       3.33521868       0.17723006       1.08307290      -0.01250127       0.03488013       0.03731916
Li       1.64204062       0.01534243       6.38024055       0.01178648      -0.03476939      -0.03820557
Li       6.23860718       2.69295291       7.08188540      -0.01049274       0.00172389       0.03272333
Ga       2.48855733       0.09600973       3.73159236      -0.00004181      -0.00004300      -0.00011121
Sn       3.52294134       1.28517002       8.03613103       0.00043425      -0.00057025       0.00064646
10
Lattice="4.145364880298022 -0.001013940671797464 0.0010248489265624323 -0.00026739976322547943 7.400968919313679 0.0005866399575889107 0.0014785666458336526 0.005430186337313895 7.391288506825177" Properties=species:S:1:pos:R:3:forces:R:3 structure_index=12 total_energy=-32.45786666870117 stress="0.014555389061570168 -0.0015293961623683572 0.0017797343898564577 -0.0015293972101062536 0.020127590745687485 0.003439359599724412 0.0017796701285988092 0.0034393498208373785 0.023009570315480232" pbc="T T T"
Li       2.48246067       3.16046214       1.95631279       0.00001672      -0.00018284      -0.00158784
Li       2.48299968       6.86202249       5.65145347       0.00004228       0.00139379      -0.00071883
Ga       2.48079114       5.91410680       1.00796617       0.00238728      -0.02539019      -0.02376024
Ga       2.48296095       4.10819668       4.70356440      -0.00064363       0.02447166      -0.02502525
Ga       2.48561767       2.21829264       6.59652728      -0.00246442      -0.02608904       0.02741417
Ga       2.48215060       0.40620628       2.90155742       0.00079377       0.02502602       0.02511548
Sn       0.40974931       0.76696843       0.65163771       0.00053848      -0.01661999       0.01588392
Sn       0.41130373       4.47228366       6.95031920      -0.00082384      -0.01625564      -0.01639064
Sn       0.40968802       1.85483055       4.34961121       0.00099699       0.01576217       0.01609976
Sn       0.41015253       5.55405969       3.25763658      -0.00084364       0.01788405      -0.01703052
6
Lattice="4.690942731290648 -0.025855829522926976 1.8059359819703462 1.5885650777078455 4.420426482683809 1.793281384708539 0.11303621663608505 0.10333186750080299 6.185039225281113" Properties=species:S:1:pos:R:3:forces:R:3 structure_index=13 total_energy=-18.872907638549805 stress="0.0520520843565464 0.009766334667801857 -0.023534638807177544 0.00976632721722126 0.0453508086502552 -0.01204830314964056 -0.02353478968143463 -0.012048373930156231 0.02518060989677906" pbc="T T T"
Li       4.05931362       1.30803924       4.49282423       0.00985077       0.00750151      -0.03679194
Li       3.31967930       4.09136277       2.49526254      -0.00875949      -0.00710021       0.03653689
Ga       1.42113527       2.78479510       7.35157530       0.00546612       0.00376011       0.03234396
Ga       1.38159708       2.74398006       4.01407620      -0.00585444      -0.00367037      -0.03194935
Sn       4.14687290       1.38110751       7.58951559       0.02254476       0.01683966      -0.04124033
Sn       3.34687579       4.12218110       5.58275635      -0.02324772      -0.01733071       0.04110074
12
Lattice="5.052997892329753 -0.03344179100688716 -0.5068866214056305 -2.704319169809897 4.622842560268139 -0.29595483381952514 0.059192189399907204 -0.0760828775980081 10.362776681841389" Properties=species:S:1:pos:R:3:forces:R:3 structure_index=14 total_energy=-36.75693130493164 stress="-0.007621137425303459 0.02463454194366932 -0.015808667987585068 0.024634534493088722 0.011518326587975025 0.011248009279370308 -0.015808695927262306 0.011247999034821987 -0.013023335486650467" pbc="T T T"
Li      -1.61951747       2.97680773       0.31706184      -0.00091518      -0.01996911      -0.00261527
Li       0.84314553       4.50513269      -0.12522010       0.02211723       0.01927956       0.00823034
Li       2.83467670       1.79790467       2.63786684      -0.00294113       0.01596435      -0.00818801
Li       2.14649432       3.70244221       5.03203497      -0.01679223      -0.01103379       0.02285469
Li       1.53069265       2.42917527       7.82936183       0.00881208       0.01054082       0.00619731
Li       2.25416644       0.55787082       5.42729073      -0.01098137       0.00319469      -0.01256619
Ga       0.36824820       0.28965563       3.05358638       0.02256587      -0.00926807      -0.00946958
Ga       4.13299366       0.90490874       7.77444474      -0.00109633      -0.00852002       0.00160917
Sn      -0.31951579       2.09029114       5.48673506       0.01582775       0.02795607      -0.00770436
Sn       0.23416689       3.42729140       2.67634874      -0.00335689      -0.04688062       0.00405538
Sn      -1.04038040       3.99999303       7.91907532      -0.00480970       0.01194264      -0.01118662
Sn       0.94632658       1.43721629       0.27803282      -0.02843010       0.00679345       0.00878313
6
Lattice="4.920335038810339 0.0016031641947983138 0.008639129030679992 2.454320535328577 4.2609441374319275 0.007739786431097837 -0.005095829569588655 -0.002864173577869844 5.6782142177493915" Properties=species:S:1:pos:R:3:forces:R:3 structure_index=15 total_energy=-18.521228790283203 stress="0.06199987232685089 -0.0026515231002122164 0.0036331377923488617 -0.0026513799093663692 0.059127893298864365 0.00198185327462852 0.0036332032177597284 0.0019818732980638742 0.06396313011646271" pbc="T T T"
Li       1.84845137       1.87548543       2.14970130      -0.00020793      -0.00030723       0.00238461
Ga       4.30699243       0.45593633       0.75691269       0.00139432      -0.00161072      -0.03612558
Ga       4.31010775       0.45472448       3.54223778      -0.00654506      -0.00277458       0.03934175
Ga       4.30485235       3.29512759       0.76636661      -0.00198970       0.00061567      -0.03513437
Ga       4.30091859       3.29224112       3.55621395       0.00384504       0.00272782       0.03143146
Sn       1.83914886       1.87065884       4.99022440       0.00350332       0.00134904      -0.00189787
4
Lattice="4.293258482239773 -0.00013371937904722595 -0.0003731010913992022 0.0012056712794510955 4.293902433168264 -9.818391227238747e-05 7.03775453728422e-05 1.8466268091500526e-05 4.340358273611829" Properties=species:S:1:pos:R:3:forces:R:3 structure_index=16 total_energy=-12.53292179107666 stress="0.009552611969411373 0.0016291153151541948 -0.0007231326308101416 0.0016290261410176754 0.01121550053358078 -0.00019130304281134158 -0.0007232248317450285 -0.00019122411322314292 0.00021545399795286357" pbc="T T T"
Li       1.74852125       3.74288008       1.11043152      -0.00016596       0.00052103       0.00072262
Ga       1.74711661       1.59660945       3.28209630       0.00092987      -0.00071199      -0.00079264
Ga       3.89517450       3.74275695       3.28178029      -0.00048059       0.00092389      -0.00066427
Sn       3.89416852       1.59623162       1.11136329      -0.00028333      -0.00073292       0.00073429
7
Lattice="4.155878690061554 0.0027537612240786376 1.2361018145264921 1.9551453950245747 4.8493395808779045 1.0044760834696114 -0.13007825346082785 -0.5535415242248416 8.07429928494641" Properties=species:S:1:pos:R:3:forces:R:3 structure_index=17 total_energy=-23.845928192138672 stress="-0.010976097546517849 -0.00024999555898830295 -0.0078117684461176395 -0.00024997739819809794 0.0016795034753158689 -0.001209850306622684 -0.007811797317117453 -0.0012098647421225905 0.0038393461145460606" pbc="T T T"
Li       3.61770857       3.49311502       6.11915702      -0.01233271       0.01250278       0.02049963
Li       0.76278497       0.63594282       0.42061782       0.01239452      -0.01209842      -0.02054843
Ga       5.18084336       4.21405436       8.42709114      -0.00010788       0.00003837       0.00026476
Sn       4.44449303       3.52888001       3.27085703       0.00026742       0.01796970      -0.00393496
Sn       4.09172238       0.60288840       4.50531328      -0.00006385      -0.01794648       0.00364651
Sn       1.41353687       1.45394338       5.90375335       0.01494242       0.00862091      -0.04635845
Sn       2.83698707       2.12209231       8.71039089      -0.01509993      -0.00908688       0.04643094
8
Lattice="4.772121220011988 0.0015441063013226296 -0.000890188479884313 -0.003120853556171429 5.06434846607696 -2.9212826406973784 0.0011174904466909404 -0.000854674851803283 5.849139699469845" Properties=species:S:1:pos:R:3:forces:R:3 structure_index=18 total_energy=-20.604097366333008 stress="0.022315409034490585 -0.0011401369702070951 -0.0006401327555067837 -0.0011401610681787133 -0.027492398396134377 0.00010116506746271625 -0.0006401758291758597 0.00010112441668752581 -0.027157096192240715" pbc="T T T"
Li       2.51631325       2.88481011      -0.21424686      -0.00093378      -0.01843225       0.03093656
Li       0.13120354       2.00935310       4.11224635      -0.00057036      -0.03301005       0.00302973
Li       2.51713602       0.45444851       1.18505425      -0.00018358       0.03953439       0.00178802
Li       2.51576093       2.88670465       2.59050107       0.00027615      -0.02154944      -0.03241023
Li       0.12956994       4.64018759       2.59577169      -0.00091448       0.01689839      -0.02987980
Li       0.12964214       4.64132194      -0.21487164      -0.00100624       0.01376520       0.02975070
Ga       2.51696821       0.38677943       4.10945778       0.00139902       0.00071477      -0.00101573
Sn       0.12970994       2.07460602       1.19012858       0.00193325       0.00207898      -0.00219926
6
Lattice="3.6060207776055164 -0.016110952538667626 0.005123901194422801 0.014032553120034902 3.618719135393854 0.0058256897497352194 -0.025943036449382683 -0.026248381789457216 9.511888135835486" Properties=species:S:1:pos:R:3:forces:R:3 structure_index=19 total_energy=-18.92129898071289 stress="0.062373675405979156 -0.0025072216521948576 -0.006281278096139431 -0.0025071653071790934 0.03525470942258835 -0.006743879988789558 -0.006281284615397453 -0.006743938662111759 -0.0587901845574379" pbc="T T T"
Li       2.45781398       1.02362164       6.59985599       0.00023214       0.00012076       0.00136002
Li       0.67440499       2.85492047       1.85513063      -0.00020881      -0.00042335      -0.00369592
Ga       2.47101184       1.04038711       0.47823415       0.00219181       0.00069845       0.02033584
Ga       2.46907132       1.03327709       3.23174739      -0.00120622      -0.00021038      -0.03130724
Sn       0.66823101       2.84566879       4.86793404       0.00023271       0.00075716      -0.00814123
Sn       0.65579736       2.83678385       8.33753681      -0.00124163      -0.00094263       0.02144854
12
Lattice="5.663047714854946 0.010979294273167545 -2.15950698478417 -0.1558340262203155 6.055623901811974 0.05881846181488065 -0.1271062595180454 -0.0058265575165068655 8.107981891101664" Properties=species:S:1:pos:R:3:forces:R:3 structure_index=20 total_energy=-40.71346664428711 stress="0.006372971925884485 -0.017234548926353455 0.006678847596049309 -0.017234571278095245 -0.0010607655858621001 0.006324874237179756 0.006678875535726547 0.006324884947389364 0.018840009346604347" pbc="T T T"
Li       4.95369239       3.96089575       4.02287739       0.00042883      -0.00012263      -0.00040315
Li       2.20057409       0.92579679       5.07094759       0.00042569       0.00067122       0.00005480
Ga       4.38501794       5.47463991      -1.54704636       0.00458248       0.00041057       0.01029210
Ga      -0.01261817       2.44229857       3.64384340      -0.00455904      -0.00063845      -0.01077450
Ga       1.63511904       2.44524520      -0.50060737       0.00327008      -0.00096801       0.01152492
Ga       2.74070271       5.46957616       2.59207500      -0.00395213       0.00001099      -0.01106748
Sn       1.69574804       5.47391614      -0.09506990      -0.01650435      -0.00035407      -0.04056642
Sn       2.67454009       2.43991978       2.18688808       0.01722015       0.00126759       0.04157704
Sn       4.61123722       2.44628449      -1.20335604      -0.01820596       0.00108735      -0.04096810
Sn       2.12305506       3.95486625       5.10115067       0.00065879      -0.00026426      -0.00028743
Sn       5.03240872       0.93280020       3.99195845      -0.00035814      -0.00004786       0.00045890
Sn       5.42925204       5.48079179       1.14042736       0.01699360      -0.00105243       0.04015931
10
Lattice="4.776217221878588 0.001330102311303524 -0.002139295028269217 -0.0012519545937027415 5.072686715458446 -1.4229446018323477 0.00047157365061602555 0.1881556897284077 7.369810770319853" Properties=species:S:1:pos:R:3:forces:R:3 structure_index=21 total_energy=-28.5835018157959 stress="-0.01866302825510502 3.6095774703426287e-05 -8.569081546738744e-05 3.594399822759442e-05 -0.012449105270206928 8.468480518786237e-05 -8.576013351557776e-05 8.449895540252328e-05 -0.013033879920840263" pbc="T T T"
Li       0.01517607       1.59961984       6.24397893       0.00006635      -0.02094723      -0.01136074
Li       2.40153955       1.05429573       0.95785837      -0.00002165       0.02129663       0.01100550
Li       0.01454469       0.46439501       3.69999918      -0.00010060       0.00083248      -0.01953730
Li       2.40213856       2.18923983       3.50184985       0.00013385      -0.00014544       0.01915199
Li       2.40270875       3.14381267       6.19561013       0.00001760      -0.01392368       0.03663606
Li       0.01281235       4.58300016      -0.41710169      -0.00004207       0.01406534      -0.03627638
Ga       2.40110975       4.17156689       1.35470822      -0.00003527      -0.00632058       0.03507338
Ga       0.01436441       3.55539797       4.42429178       0.00003403       0.00570868      -0.03549743
Sn       0.01323395       2.51218565       1.55286652       0.00004522       0.00141473      -0.03251106