phonopy:
  version: "2.37.1"
  frequency_unit_conversion_factor: 15.633302
  symmetry_tolerance: 1.00000e-05

space_group:
  type: "P4_132"
  number: 213
  Hall_symbol: "P 4bd 2ab 3"

primitive_matrix:
- [  1.000000000000000,  0.000000000000000,  0.000000000000000 ]
- [  0.000000000000000,  1.000000000000000,  0.000000000000000 ]
- [  0.000000000000000,  0.000000000000000,  1.000000000000000 ]

supercell_matrix:
- [   3,   0,   0 ]
- [   0,   3,   0 ]
- [   0,   0,   3 ]

primitive_cell:
  lattice:
  - [     4.304463591053802,     0.000000000000000,     0.000000000000000 ] # a
  - [    -0.000000042670663,     4.304463690203834,     0.000000000000000 ] # b
  - [    -0.000000030067770,    -0.000000034055412,     4.304463656668969 ] # c
  points:
  - symbol: Li # 1
    coordinates: [  0.874999998530589,  0.125000000551317,  0.624999998100038 ]
    mass: 6.940000
  - symbol: Li # 2
    coordinates: [  0.375000001696964,  0.375000004217351,  0.375000004335792 ]
    mass: 6.940000
  - symbol: Li # 3
    coordinates: [  0.125000000670529,  0.624999996474451,  0.874999998740565 ]
    mass: 6.940000
  - symbol: Li # 4
    coordinates: [  0.624999998649023,  0.874999998765756,  0.124999999047860 ]
    mass: 6.940000
  reciprocal_lattice: # without 2pi
  - [     0.232316984183199,     0.000000002302986,     0.000000001622793 ] # a*
  - [     0.000000000000000,     0.232316978831954,     0.000000001838011 ] # b*
  - [     0.000000000000000,     0.000000000000000,     0.232316980641871 ] # c*

unit_cell:
  lattice:
  - [     4.304463591053802,     0.000000000000000,     0.000000000000000 ] # a
  - [    -0.000000042670663,     4.304463690203834,     0.000000000000000 ] # b
  - [    -0.000000030067770,    -0.000000034055412,     4.304463656668969 ] # c
  points:
  - symbol: Li # 1
    coordinates: [  0.874999998530589,  0.125000000551317,  0.624999998100038 ]
    mass: 6.940000
    reduced_to: 1
  - symbol: Li # 2
    coordinates: [  0.375000001696964,  0.375000004217351,  0.375000004335792 ]
    mass: 6.940000
    reduced_to: 2
  - symbol: Li # 3
    coordinates: [  0.125000000670529,  0.624999996474451,  0.874999998740565 ]
    mass: 6.940000
    reduced_to: 3
  - symbol: Li # 4
    coordinates: [  0.624999998649023,  0.874999998765756,  0.124999999047860 ]
    mass: 6.940000
    reduced_to: 4

supercell:
  lattice:
  - [    12.913390773161407,     0.000000000000000,     0.000000000000000 ] # a
  - [    -0.000000128011990,    12.913391070611501,     0.000000000000000 ] # b
  - [    -0.000000090203311,    -0.000000102166236,    12.913390970006908 ] # c
  points:
  - symbol: Li # 1
    coordinates: [  0.291666666176863,  0.041666666850439,  0.208333332700013 ]
    mass: 6.940000
    reduced_to: 1
  - symbol: Li # 2
    coordinates: [  0.624999999510196,  0.041666666850439,  0.208333332700013 ]
    mass: 6.940000
    reduced_to: 1
  - symbol: Li # 3
    coordinates: [  0.958333332843530,  0.041666666850439,  0.208333332700013 ]
    mass: 6.940000
    reduced_to: 1
  - symbol: Li # 4
    coordinates: [  0.291666666176863,  0.375000000183772,  0.208333332700013 ]
    mass: 6.940000
    reduced_to: 1
  - symbol: Li # 5
    coordinates: [  0.624999999510196,  0.375000000183772,  0.208333332700013 ]
    mass: 6.940000
    reduced_to: 1
  - symbol: Li # 6
    coordinates: [  0.958333332843530,  0.375000000183772,  0.208333332700013 ]
    mass: 6.940000
    reduced_to: 1
  - symbol: Li # 7
    coordinates: [  0.291666666176863,  0.708333333517106,  0.208333332700013 ]
    mass: 6.940000
    reduced_to: 1
  - symbol: Li # 8
    coordinates: [  0.624999999510196,  0.708333333517106,  0.208333332700013 ]
    mass: 6.940000
    reduced_to: 1
  - symbol: Li # 9
    coordinates: [  0.958333332843530,  0.708333333517106,  0.208333332700013 ]
    mass: 6.940000
    reduced_to: 1
  - symbol: Li # 10
    coordinates: [  0.291666666176863,  0.041666666850439,  0.541666666033346 ]
    mass: 6.940000
    reduced_to: 1
  - symbol: Li # 11
    coordinates: [  0.624999999510196,  0.041666666850439,  0.541666666033346 ]
    mass: 6.940000
    reduced_to: 1
  - symbol: Li # 12
    coordinates: [  0.958333332843530,  0.041666666850439,  0.541666666033346 ]
    mass: 6.940000
    reduced_to: 1
  - symbol: Li # 13
    coordinates: [  0.291666666176863,  0.375000000183772,  0.541666666033346 ]
    mass: 6.940000
    reduced_to: 1
  - symbol: Li # 14
    coordinates: [  0.624999999510196,  0.375000000183772,  0.541666666033346 ]
    mass: 6.940000
    reduced_to: 1
  - symbol: Li # 15
    coordinates: [  0.958333332843530,  0.375000000183772,  0.541666666033346 ]
    mass: 6.940000
    reduced_to: 1
  - symbol: Li # 16
    coordinates: [  0.291666666176863,  0.708333333517106,  0.541666666033346 ]
    mass: 6.940000
    reduced_to: 1
  - symbol: Li # 17
    coordinates: [  0.624999999510196,  0.708333333517106,  0.541666666033346 ]
    mass: 6.940000
    reduced_to: 1
  - symbol: Li # 18
    coordinates: [  0.958333332843530,  0.708333333517106,  0.541666666033346 ]
    mass: 6.940000
    reduced_to: 1
  - symbol: Li # 19
    coordinates: [  0.291666666176863,  0.041666666850439,  0.874999999366679 ]
    mass: 6.940000
    reduced_to: 1
  - symbol: Li # 20
    coordinates: [  0.624999999510196,  0.041666666850439,  0.874999999366679 ]
    mass: 6.940000
    reduced_to: 1
  - symbol: Li # 21
    coordinates: [  0.958333332843530,  0.041666666850439,  0.874999999366679 ]
    mass: 6.940000
    reduced_to: 1
  - symbol: Li # 22
    coordinates: [  0.291666666176863,  0.375000000183772,  0.874999999366679 ]
    mass: 6.940000
    reduced_to: 1
  - symbol: Li # 23
    coordinates: [  0.624999999510196,  0.375000000183772,  0.874999999366679 ]
    mass: 6.940000
    reduced_to: 1
  - symbol: Li # 24
    coordinates: [  0.958333332843530,  0.375000000183772,  0.874999999366679 ]
    mass: 6.940000
    reduced_to: 1
  - symbol: Li # 25
    coordinates: [  0.291666666176863,  0.708333333517106,  0.874999999366679 ]
    mass: 6.940000
    reduced_to: 1
  - symbol: Li # 26
    coordinates: [  0.624999999510196,  0.708333333517106,  0.874999999366679 ]
    mass: 6.940000
    reduced_to: 1
  - symbol: Li # 27
    coordinates: [  0.958333332843530,  0.708333333517106,  0.874999999366679 ]
    mass: 6.940000
    reduced_to: 1
  - symbol: Li # 28
    coordinates: [  0.125000000565655,  0.125000001405784,  0.125000001445264 ]
    mass: 6.940000
    reduced_to: 28
  - symbol: Li # 29
    coordinates: [  0.458333333898988,  0.125000001405784,  0.125000001445264 ]
    mass: 6.940000
    reduced_to: 28
  - symbol: Li # 30
    coordinates: [  0.791666667232321,  0.125000001405784,  0.125000001445264 ]
    mass: 6.940000
    reduced_to: 28
  - symbol: Li # 31
    coordinates: [  0.125000000565655,  0.458333334739117,  0.125000001445264 ]
    mass: 6.940000
    reduced_to: 28
  - symbol: Li # 32
    coordinates: [  0.458333333898988,  0.458333334739117,  0.125000001445264 ]
    mass: 6.940000
    reduced_to: 28
  - symbol: Li # 33
    coordinates: [  0.791666667232321,  0.458333334739117,  0.125000001445264 ]
    mass: 6.940000
    reduced_to: 28
  - symbol: Li # 34
    coordinates: [  0.125000000565655,  0.791666668072450,  0.125000001445264 ]
    mass: 6.940000
    reduced_to: 28
  - symbol: Li # 35
    coordinates: [  0.458333333898988,  0.791666668072450,  0.125000001445264 ]
    mass: 6.940000
    reduced_to: 28
  - symbol: Li # 36
    coordinates: [  0.791666667232321,  0.791666668072450,  0.125000001445264 ]
    mass: 6.940000
    reduced_to: 28
  - symbol: Li # 37
    coordinates: [  0.125000000565655,  0.125000001405784,  0.458333334778597 ]
    mass: 6.940000
    reduced_to: 28
  - symbol: Li # 38
    coordinates: [  0.458333333898988,  0.125000001405784,  0.458333334778597 ]
    mass: 6.940000
    reduced_to: 28
  - symbol: Li # 39
    coordinates: [  0.791666667232321,  0.125000001405784,  0.458333334778597 ]
    mass: 6.940000
    reduced_to: 28
  - symbol: Li # 40
    coordinates: [  0.125000000565655,  0.458333334739117,  0.458333334778597 ]
    mass: 6.940000
    reduced_to: 28
  - symbol: Li # 41
    coordinates: [  0.458333333898988,  0.458333334739117,  0.458333334778597 ]
    mass: 6.940000
    reduced_to: 28
  - symbol: Li # 42
    coordinates: [  0.791666667232321,  0.458333334739117,  0.458333334778597 ]
    mass: 6.940000
    reduced_to: 28
  - symbol: Li # 43
    coordinates: [  0.125000000565655,  0.791666668072450,  0.458333334778597 ]
    mass: 6.940000
    reduced_to: 28
  - symbol: Li # 44
    coordinates: [  0.458333333898988,  0.791666668072450,  0.458333334778597 ]
    mass: 6.940000
    reduced_to: 28
  - symbol: Li # 45
    coordinates: [  0.791666667232321,  0.791666668072450,  0.458333334778597 ]
    mass: 6.940000
    reduced_to: 28
  - symbol: Li # 46
    coordinates: [  0.125000000565655,  0.125000001405784,  0.791666668111931 ]
    mass: 6.940000
    reduced_to: 28
  - symbol: Li # 47
    coordinates: [  0.458333333898988,  0.125000001405784,  0.791666668111931 ]
    mass: 6.940000
    reduced_to: 28
  - symbol: Li # 48
    coordinates: [  0.791666667232321,  0.125000001405784,  0.791666668111931 ]
    mass: 6.940000
    reduced_to: 28
  - symbol: Li # 49
    coordinates: [  0.125000000565655,  0.458333334739117,  0.791666668111931 ]
    mass: 6.940000
    reduced_to: 28
  - symbol: Li # 50
    coordinates: [  0.458333333898988,  0.458333334739117,  0.791666668111931 ]
    mass: 6.940000
    reduced_to: 28
  - symbol: Li # 51
    coordinates: [  0.791666667232321,  0.458333334739117,  0.791666668111931 ]
    mass: 6.940000
    reduced_to: 28
  - symbol: Li # 52
    coordinates: [  0.125000000565655,  0.791666668072450,  0.791666668111931 ]
    mass: 6.940000
    reduced_to: 28
  - symbol: Li # 53
    coordinates: [  0.458333333898988,  0.791666668072450,  0.791666668111931 ]
    mass: 6.940000
    reduced_to: 28
  - symbol: Li # 54
    coordinates: [  0.791666667232321,  0.791666668072450,  0.791666668111931 ]
    mass: 6.940000
    reduced_to: 28
  - symbol: Li # 55
    coordinates: [  0.041666666890176,  0.208333332158150,  0.291666666246855 ]
    mass: 6.940000
    reduced_to: 55
  - symbol: Li # 56
    coordinates: [  0.375000000223510,  0.208333332158150,  0.291666666246855 ]
    mass: 6.940000
    reduced_to: 55
  - symbol: Li # 57
    coordinates: [  0.708333333556843,  0.208333332158150,  0.291666666246855 ]
    mass: 6.940000
    reduced_to: 55
  - symbol: Li # 58
    coordinates: [  0.041666666890176,  0.541666665491484,  0.291666666246855 ]
    mass: 6.940000
    reduced_to: 55
  - symbol: Li # 59
    coordinates: [  0.375000000223510,  0.541666665491484,  0.291666666246855 ]
    mass: 6.940000
    reduced_to: 55
  - symbol: Li # 60
    coordinates: [  0.708333333556843,  0.541666665491484,  0.291666666246855 ]
    mass: 6.940000
    reduced_to: 55
  - symbol: Li # 61
    coordinates: [  0.041666666890176,  0.874999998824817,  0.291666666246855 ]
    mass: 6.940000
    reduced_to: 55
  - symbol: Li # 62
    coordinates: [  0.375000000223510,  0.874999998824817,  0.291666666246855 ]
    mass: 6.940000
    reduced_to: 55
  - symbol: Li # 63
    coordinates: [  0.708333333556843,  0.874999998824817,  0.291666666246855 ]
    mass: 6.940000
    reduced_to: 55
  - symbol: Li # 64
    coordinates: [  0.041666666890176,  0.208333332158150,  0.624999999580188 ]
    mass: 6.940000
    reduced_to: 55
  - symbol: Li # 65
    coordinates: [  0.375000000223510,  0.208333332158150,  0.624999999580188 ]
    mass: 6.940000
    reduced_to: 55
  - symbol: Li # 66
    coordinates: [  0.708333333556843,  0.208333332158150,  0.624999999580188 ]
    mass: 6.940000
    reduced_to: 55
  - symbol: Li # 67
    coordinates: [  0.041666666890176,  0.541666665491484,  0.624999999580188 ]
    mass: 6.940000
    reduced_to: 55
  - symbol: Li # 68
    coordinates: [  0.375000000223510,  0.541666665491484,  0.624999999580188 ]
    mass: 6.940000
    reduced_to: 55
  - symbol: Li # 69
    coordinates: [  0.708333333556843,  0.541666665491484,  0.624999999580188 ]
    mass: 6.940000
    reduced_to: 55
  - symbol: Li # 70
    coordinates: [  0.041666666890176,  0.874999998824817,  0.624999999580188 ]
    mass: 6.940000
    reduced_to: 55
  - symbol: Li # 71
    coordinates: [  0.375000000223510,  0.874999998824817,  0.624999999580188 ]
    mass: 6.940000
    reduced_to: 55
  - symbol: Li # 72
    coordinates: [  0.708333333556843,  0.874999998824817,  0.624999999580188 ]
    mass: 6.940000
    reduced_to: 55
  - symbol: Li # 73
    coordinates: [  0.041666666890176,  0.208333332158150,  0.958333332913522 ]
    mass: 6.940000
    reduced_to: 55
  - symbol: Li # 74
    coordinates: [  0.375000000223510,  0.208333332158150,  0.958333332913522 ]
    mass: 6.940000
    reduced_to: 55
  - symbol: Li # 75
    coordinates: [  0.708333333556843,  0.208333332158150,  0.958333332913522 ]
    mass: 6.940000
    reduced_to: 55
  - symbol: Li # 76
    coordinates: [  0.041666666890176,  0.541666665491484,  0.958333332913522 ]
    mass: 6.940000
    reduced_to: 55
  - symbol: Li # 77
    coordinates: [  0.375000000223510,  0.541666665491484,  0.958333332913522 ]
    mass: 6.940000
    reduced_to: 55
  - symbol: Li # 78
    coordinates: [  0.708333333556843,  0.541666665491484,  0.958333332913522 ]
    mass: 6.940000
    reduced_to: 55
  - symbol: Li # 79
    coordinates: [  0.041666666890176,  0.874999998824817,  0.958333332913522 ]
    mass: 6.940000
    reduced_to: 55
  - symbol: Li # 80
    coordinates: [  0.375000000223510,  0.874999998824817,  0.958333332913522 ]
    mass: 6.940000
    reduced_to: 55
  - symbol: Li # 81
    coordinates: [  0.708333333556843,  0.874999998824817,  0.958333332913522 ]
    mass: 6.940000
    reduced_to: 55
  - symbol: Li # 82
    coordinates: [  0.208333332883008,  0.291666666255252,  0.041666666349287 ]
    mass: 6.940000
    reduced_to: 82
  - symbol: Li # 83
    coordinates: [  0.541666666216341,  0.291666666255252,  0.041666666349287 ]
    mass: 6.940000
    reduced_to: 82
  - symbol: Li # 84
    coordinates: [  0.874999999549674,  0.291666666255252,  0.041666666349287 ]
    mass: 6.940000
    reduced_to: 82
  - symbol: Li # 85
    coordinates: [  0.208333332883008,  0.624999999588585,  0.041666666349287 ]
    mass: 6.940000
    reduced_to: 82
  - symbol: Li # 86
    coordinates: [  0.541666666216341,  0.624999999588585,  0.041666666349287 ]
    mass: 6.940000
    reduced_to: 82
  - symbol: Li # 87
    coordinates: [  0.874999999549674,  0.624999999588585,  0.041666666349287 ]
    mass: 6.940000
    reduced_to: 82
  - symbol: Li # 88
    coordinates: [  0.208333332883008,  0.958333332921919,  0.041666666349287 ]
    mass: 6.940000
    reduced_to: 82
  - symbol: Li # 89
    coordinates: [  0.541666666216341,  0.958333332921919,  0.041666666349287 ]
    mass: 6.940000
    reduced_to: 82
  - symbol: Li # 90
    coordinates: [  0.874999999549674,  0.958333332921919,  0.041666666349287 ]
    mass: 6.940000
    reduced_to: 82
  - symbol: Li # 91
    coordinates: [  0.208333332883008,  0.291666666255252,  0.374999999682620 ]
    mass: 6.940000
    reduced_to: 82
  - symbol: Li # 92
    coordinates: [  0.541666666216341,  0.291666666255252,  0.374999999682620 ]
    mass: 6.940000
    reduced_to: 82
  - symbol: Li # 93
    coordinates: [  0.874999999549674,  0.291666666255252,  0.374999999682620 ]
    mass: 6.940000
    reduced_to: 82
  - symbol: Li # 94
    coordinates: [  0.208333332883008,  0.624999999588585,  0.374999999682620 ]
    mass: 6.940000
    reduced_to: 82
  - symbol: Li # 95
    coordinates: [  0.541666666216341,  0.624999999588585,  0.374999999682620 ]
    mass: 6.940000
    reduced_to: 82
  - symbol: Li # 96
    coordinates: [  0.874999999549674,  0.624999999588585,  0.374999999682620 ]
    mass: 6.940000
    reduced_to: 82
  - symbol: Li # 97
    coordinates: [  0.208333332883008,  0.958333332921919,  0.374999999682620 ]
    mass: 6.940000
    reduced_to: 82
  - symbol: Li # 98
    coordinates: [  0.541666666216341,  0.958333332921919,  0.374999999682620 ]
    mass: 6.940000
    reduced_to: 82
  - symbol: Li # 99
    coordinates: [  0.874999999549674,  0.958333332921919,  0.374999999682620 ]
    mass: 6.940000
    reduced_to: 82
  - symbol: Li # 100
    coordinates: [  0.208333332883008,  0.291666666255252,  0.708333333015953 ]
    mass: 6.940000
    reduced_to: 82
  - symbol: Li # 101
    coordinates: [  0.541666666216341,  0.291666666255252,  0.708333333015953 ]
    mass: 6.940000
    reduced_to: 82
  - symbol: Li # 102
    coordinates: [  0.874999999549674,  0.291666666255252,  0.708333333015953 ]
    mass: 6.940000
    reduced_to: 82
  - symbol: Li # 103
    coordinates: [  0.208333332883008,  0.624999999588585,  0.708333333015953 ]
    mass: 6.940000
    reduced_to: 82
  - symbol: Li # 104
    coordinates: [  0.541666666216341,  0.624999999588585,  0.708333333015953 ]
    mass: 6.940000
    reduced_to: 82
  - symbol: Li # 105
    coordinates: [  0.874999999549674,  0.624999999588585,  0.708333333015953 ]
    mass: 6.940000
    reduced_to: 82
  - symbol: Li # 106
    coordinates: [  0.208333332883008,  0.958333332921919,  0.708333333015953 ]
    mass: 6.940000
    reduced_to: 82
  - symbol: Li # 107
    coordinates: [  0.541666666216341,  0.958333332921919,  0.708333333015953 ]
    mass: 6.940000
    reduced_to: 82
  - symbol: Li # 108
    coordinates: [  0.874999999549674,  0.958333332921919,  0.708333333015953 ]
    mass: 6.940000
    reduced_to: 82

displacements:
- atom:    1
  displacement:
    [   0.0100000000000000,  0.0000000000000000,  0.0000000000000000 ]
  forces:
  - [  -0.0159418527036905, -0.0051205251365900, -0.0049908608198166 ]
  - [  -0.0012948140501976, -0.0001084581017494,  0.0000322107225657 ]
  - [  -0.0012895874679089,  0.0000313688069582, -0.0001066923141479 ]
  - [   0.0001585856080055,  0.0000315718352795, -0.0000292733311653 ]
  - [  -0.0000504991039634, -0.0000269105657935, -0.0000121630728245 ]
  - [  -0.0000393120571971,  0.0000572847202420, -0.0000001508742571 ]
  - [   0.0001583974808455, -0.0001081544905901, -0.0000373162329197 ]
  - [  -0.0000405581668019, -0.0000459328293800, -0.0000030230730772 ]
  - [  -0.0000489549711347, -0.0000257706269622, -0.0000099986791611 ]
  - [   0.0001587942242622, -0.0000373320654035, -0.0001064091920853 ]
  - [  -0.0000498984009027, -0.0000103749334812, -0.0000268202275038 ]
  - [  -0.0000399611890316, -0.0000028992071748, -0.0000458955764771 ]
  - [  -0.0000052712857723, -0.0000038705766201,  0.0000003743916750 ]
  - [   0.0000152410939336,  0.0000215163454413,  0.0000089891254902 ]
  - [   0.0000303285196424, -0.0000401977449656, -0.0000387821346521 ]
  - [   0.0000171381980181, -0.0000095888972282, -0.0000102324411273 ]
  - [   0.0000074403360486, -0.0000278986990452,  0.0000214688479900 ]
  - [   0.0000080280005932,  0.0000225510448217, -0.0000288672745228 ]
  - [   0.0001578778028488, -0.0000291299074888,  0.0000314470380545 ]
  - [  -0.0000420100986958, -0.0000003436580300,  0.0000580046325922 ]
  - [  -0.0000493042171001, -0.0000119647011161, -0.0000272244215012 ]
  - [   0.0000164955854416, -0.0000123782083392, -0.0000125747174025 ]
  - [   0.0000065481290221,  0.0000083027407527, -0.0000014752149582 ]
  - [   0.0000075139105320, -0.0000016475096345,  0.0000088289380074 ]
  - [  -0.0000058850273490, -0.0000000083819032, -0.0000032149255276 ]
  - [   0.0000291708856821, -0.0000386964529753, -0.0000403821468353 ]
  - [   0.0000153351575136,  0.0000093393027782,  0.0000212900340557 ]
  - [   0.0075609516352415, -0.0043717548251152,  0.0042368993163109 ]
  - [   0.0076525649055839,  0.0043139010667801, -0.0044595561921597 ]
  - [  -0.0000547431409359,  0.0000181011855602,  0.0000180229544640 ]
  - [  -0.0000085243955255,  0.0000286549329758,  0.0000316575169563 ]
  - [  -0.0000074226409197, -0.0000605620443821,  0.0000162310898304 ]
  - [  -0.0000023515895009, -0.0000006649643183, -0.0000039348378778 ]
  - [  -0.0000181030482054, -0.0003837980329990, -0.0001918934285641 ]
  - [  -0.0000073602423072,  0.0003492254763842,  0.0000096354633570 ]
  - [   0.0001244721934199, -0.0000085514038801,  0.0000248737633228 ]
  - [  -0.0000179326161742,  0.0000135973095894,  0.0003597959876060 ]
  - [  -0.0000078687444329, -0.0001892503350973, -0.0003728419542313 ]
  - [   0.0001244237646461,  0.0000248607248068, -0.0000077560544014 ]
  - [  -0.0000183796510100, -0.0000265147536993, -0.0000081723555923 ]
  - [  -0.0000177286565304, -0.0000050012022257, -0.0000152094289660 ]
  - [  -0.0000010170042515,  0.0000000335276127,  0.0000004004687071 ]
  - [   0.0001157363876700,  0.0001133680343628, -0.0000258423388004 ]
  - [   0.0001171780750155, -0.0000258367508650,  0.0001140367239714 ]
  - [   0.0000534867867827, -0.0000123586505651, -0.0000116862356663 ]
  - [  -0.0000076834112406,  0.0000162962824106, -0.0000610239803791 ]
  - [  -0.0000068619847298,  0.0000311117619276,  0.0000281855463982 ]
  - [  -0.0000020265579224, -0.0000031292438507, -0.0000015348196030 ]
  - [   0.0000044368207455, -0.0000028870999813,  0.0000075045973063 ]
  - [   0.0000046789646149,  0.0000090338289738, -0.0000041769817472 ]
  - [  -0.0000020209699869, -0.0000003203749657, -0.0000022258609533 ]
  - [  -0.0000177826732397, -0.0000156834721565, -0.0000050365924835 ]
  - [  -0.0000173300504684, -0.0000087367370725, -0.0000264365226030 ]
  - [  -0.0000004386529326, -0.0000001657754183, -0.0000002011656761 ]
  - [  -0.0003033857792616,  0.0003864504396915,  0.0000922633334994 ]
  - [   0.0007133632898331,  0.0044222101569176,  0.0022571822628379 ]
  - [   0.0000197272747755, -0.0000288952142000, -0.0000746026635170 ]
  - [   0.0000161822554219,  0.0000073239207268, -0.0000094026327133 ]
  - [  -0.0000071153044701, -0.0000186786055565,  0.0000206902623177 ]
  - [  -0.0000017024576664,  0.0000004321336746,  0.0000023450702429 ]
  - [  -0.0003029545769095, -0.0003631655126810,  0.0003083739429712 ]
  - [   0.0007171453908086, -0.0042818374931812,  0.0021475162357092 ]
  - [   0.0000197216868401,  0.0000604894012213,  0.0000403039157391 ]
  - [  -0.0000106245279312,  0.0000151060521603, -0.0000065416097641 ]
  - [  -0.0000081900507212, -0.0000159814953804, -0.0000745886936784 ]
  - [   0.0000159908086061,  0.0000034328550100,  0.0000130562111735 ]
  - [  -0.0000003315508366, -0.0000015329569578,  0.0000021271407604 ]
  - [   0.0000035688281059,  0.0000031515955925,  0.0000028619542718 ]
  - [  -0.0000015795230865,  0.0000006165355444,  0.0000026356428862 ]
  - [  -0.0000114206886792,  0.0000077206641436, -0.0000120215117931 ]
  - [  -0.0000080317258835, -0.0000318735837936,  0.0000406578183174 ]
  - [   0.0000149905681610, -0.0000090524554253,  0.0000272840261459 ]
  - [   0.0000142553490150, -0.0001131547614932,  0.0002497304230928 ]
  - [   0.0001752879470587, -0.0000109747052193,  0.0000869818031788 ]
  - [  -0.0000113714486361,  0.0000264653936028, -0.0000060806050897 ]
  - [   0.0000121175580716,  0.0000115185976028,  0.0000160858035088 ]
  - [  -0.0000096671283245, -0.0000252155587077, -0.0000090943649411 ]
  - [  -0.0000017303973436,  0.0000000279396772,  0.0000022388994694 ]
  - [   0.0000153407454491,  0.0000261813402176,  0.0000228881835938 ]
  - [   0.0001779347658157,  0.0001900428906083,  0.0003050714731216 ]
  - [  -0.0000114925205708,  0.0000051120296121, -0.0000113286077976 ]
  - [   0.0001762341707945,  0.0000883606408024, -0.0000131102278829 ]
  - [   0.0000156704336405,  0.0002543502778281, -0.0001150798052549 ]
  - [  -0.0000118333846331, -0.0000075357820606,  0.0000261776149273 ]
  - [  -0.0000085974888862, -0.0000744964927435, -0.0000164695084095 ]
  - [  -0.0000117942690849, -0.0000066757202148,  0.0000146282836795 ]
  - [   0.0000148266553879,  0.0000126566737890,  0.0000034440308809 ]
  - [   0.0007520392537117,  0.0022452622652054,  0.0044076116755605 ]
  - [  -0.0002740267664194,  0.0000831931829453,  0.0003689397126436 ]
  - [   0.0000200858648896, -0.0000739935785532, -0.0000285450369120 ]
  - [   0.0001744665205479,  0.0003062151372433,  0.0001908028498292 ]
  - [   0.0000142734497786,  0.0000222530215979,  0.0000252276659012 ]
  - [  -0.0000116545706987, -0.0000121928751469,  0.0000046016648412 ]
  - [  -0.0000082901515270,  0.0000407602638006, -0.0000318093225360 ]
  - [  -0.0000112392008305, -0.0000116527080536,  0.0000078417360783 ]
  - [   0.0000150147825480,  0.0000277925282717, -0.0000083697959781 ]
  - [   0.0007487479597330,  0.0021447110921144, -0.0042696995660663 ]
  - [  -0.0002741981297731,  0.0003021880984306, -0.0003472873941064 ]
  - [   0.0000200728245545,  0.0000412408262491,  0.0000599939376116 ]
  - [  -0.0000103225393104, -0.0000097583979368, -0.0000247927382588 ]
  - [   0.0000118240714073,  0.0000161789357662,  0.0000120289623737 ]
  - [  -0.0000027445776141,  0.0000012237578630,  0.0000000083819032 ]
  - [   0.0000021327286959,  0.0000019762665033,  0.0000043166801333 ]
  - [  -0.0000020917505026,  0.0000016279518604, -0.0000003045424819 ]
  - [  -0.0000036274714148,  0.0000021141022444,  0.0000016745179892 ]
  - [  -0.0000071078538895,  0.0000213179737329, -0.0000182073563337 ]
  - [   0.0000159554183483, -0.0000086538493633,  0.0000078883022070 ]
  - [  -0.0000013429671526,  0.0000030361115932,  0.0000006584450603 ]

force_constants:
  format: "full"
  shape: [ 108, 108 ]
  elements:
  - # (1, 1)
    - [     1.594185123477046,     0.505587107228364,     0.505587111909852 ]
    - [     0.505587107228364,     1.594185140892136,    -0.505587102823741 ]
    - [     0.505587111909852,    -0.505587102823741,     1.594185131811372 ]
  - # (1, 2)
    - [     0.129219931917457,     0.010760670617832,    -0.003147142333456 ]
    - [    -0.003147141868339,    -0.015841524127063,    -0.002937979139267 ]
    - [     0.010760670887376,    -0.003750232008072,    -0.015841524784387 ]
  - # (1, 3)
    - [     0.129219931144574,    -0.003147142202130,     0.010760670162366 ]
    - [     0.010760671089190,    -0.015841524815540,    -0.003750232020798 ]
    - [    -0.003147141875853,    -0.002937979289774,    -0.015841524348296 ]
  - # (1, 4)
    - [    -0.015841524442890,    -0.003147143313994,     0.002937979161131 ]
    - [     0.010760668788980,     0.129219928898733,     0.003147143661930 ]
    - [     0.003750232241875,    -0.010760668698647,    -0.015841524559731 ]
  - # (1, 5)
    - [     0.004966270709106,     0.002685963402441,     0.001244834595659 ]
    - [     0.002685963134974,     0.004966270633813,    -0.001244834538032 ]
    - [     0.001022691061189,    -0.001022690888207,    -0.001681836044781 ]
  - # (1, 6)
    - [     0.004045891159709,    -0.005746650334845,     0.000021030434642 ]
    - [     0.004609237274136,     0.004045890703905,    -0.000343011514572 ]
    - [     0.000343011831449,    -0.000021030287772,     0.000557669096441 ]
  - # (1, 7)
    - [    -0.015841524542104,     0.010760668896169,     0.003750232473348 ]
    - [    -0.003147143309903,     0.129219929116865,    -0.010760668515668 ]
    - [     0.002937979070056,     0.003147143657401,    -0.015841524795874 ]
  - # (1, 8)
    - [     0.004045891321405,     0.004609237575258,     0.000343012012851 ]
    - [    -0.005746650270704,     0.004045890904698,    -0.000021029903961 ]
    - [     0.000021030356275,    -0.000343011594721,     0.000557668654323 ]
  - # (1, 9)
    - [     0.004966270519409,     0.002685963349584,     0.001022691156342 ]
    - [     0.002685963162054,     0.004966270349157,    -0.001022690925237 ]
    - [     0.001244834817133,    -0.001244834753330,    -0.001681835749852 ]
  - # (1, 10)
    - [    -0.015841525271018,     0.003750232257926,     0.010760670081061 ]
    - [     0.002937979042210,    -0.015841524057033,     0.003147143326493 ]
    - [    -0.003147143427029,    -0.010760670065023,     0.129219929443496 ]
  - # (1, 11)
    - [     0.004966270370303,     0.001022691141780,     0.002685963473798 ]
    - [     0.001244834542846,    -0.001681835978518,    -0.001244834557977 ]
    - [     0.002685963270385,    -0.001022690863775,     0.004966270738413 ]
  - # (1, 12)
    - [     0.004045890936806,     0.000343011891262,     0.004609237519101 ]
    - [     0.000021030281044,     0.000557669099168,    -0.000343011562776 ]
    - [    -0.005746650357741,    -0.000021030317995,     0.004045891015923 ]
  - # (1, 13)
    - [     0.000557669011478,     0.000343011822676,     0.000021030342699 ]
    - [     0.000021030544792,     0.004045890846896,     0.005746650548985 ]
    - [     0.000343011639859,    -0.004609237223360,     0.004045891198342 ]
  - # (1, 14)
    - [    -0.001528959334243,    -0.002152839328933,    -0.000868685695983 ]
    - [    -0.000868685420396,    -0.000738405978362,    -0.000173953433025 ]
    - [    -0.002152839777584,    -0.002856115799702,    -0.000738406206853 ]
  - # (1, 15)
    - [    -0.002975117295176,     0.004046811964750,     0.003891746664418 ]
    - [     0.003891746511613,    -0.002975117154720,    -0.004046811642596 ]
    - [     0.004046811913685,    -0.003891746460436,    -0.002975116711284 ]
  - # (1, 16)
    - [    -0.001681835889073,     0.001022691079338,     0.001022691167977 ]
    - [     0.001244834992977,     0.004966270452078,    -0.002685962941477 ]
    - [     0.001244834706459,    -0.002685962900811,     0.004966270547257 ]
  - # (1, 17)
    - [    -0.000738405945309,     0.002856115884881,    -0.002152839511136 ]
    - [     0.000173953522749,    -0.000738406196394,     0.000868685633199 ]
    - [    -0.000868685297011,     0.002152839763695,    -0.001528959589046 ]
  - # (1, 18)
    - [    -0.000738406390521,    -0.002152839482355,     0.002856115945556 ]
    - [    -0.000868685617610,    -0.001528959562162,     0.002152839380638 ]
    - [     0.000173953559810,     0.000868685510775,    -0.000738405865697 ]
  - # (1, 19)
    - [    -0.015841524649632,     0.002937979303583,    -0.003147143125968 ]
    - [     0.003750232309598,    -0.015841524881629,    -0.010760669745741 ]