# Thermal properties / unit cell (natom)

unit:
  temperature:   K
  free_energy:   kJ/mol
  entropy:       J/K/mol
  heat_capacity: J/K/mol

natom: 7    
cutoff_frequency: 0.00000
num_modes: 369096
num_integrated_modes: 369093

zero_point_energy:      29.0369328

thermal_properties:
- temperature:         0.0000000
  free_energy:        29.0369328
  entropy:             0.0000000
  heat_capacity:       0.0000000
  energy:             29.0369328

- temperature:        10.0000000
  free_energy:        29.0365712
  entropy:             0.1631101
  heat_capacity:       0.6100673
  energy:             29.0382023

- temperature:        20.0000000
  free_energy:        29.0271412
  entropy:             2.2902588
  heat_capacity:       7.7495485
  energy:             29.0729463

- temperature:        30.0000000
  free_energy:        28.9802093
  entropy:             7.4749235
  heat_capacity:      18.4837543
  energy:             29.2044570

- temperature:        40.0000000
  free_energy:        28.8728349
  entropy:            14.1439049
  heat_capacity:      28.1646199
  energy:             29.4385911

- temperature:        50.0000000
  free_energy:        28.6954163
  entropy:            21.4065528
  heat_capacity:      37.2315474
  energy:             29.7657439

- temperature:        60.0000000
  free_energy:        28.4436382
  entropy:            28.9937666
  heat_capacity:      46.2934976
  energy:             30.1832642

- temperature:        70.0000000
  free_energy:        28.1147524
  entropy:            36.8182018
  heat_capacity:      55.4709948
  energy:             30.6920266

- temperature:        80.0000000
  free_energy:        27.7066681
  entropy:            44.8242792
  heat_capacity:      64.6243976
  energy:             31.2926105

- temperature:        90.0000000
  free_energy:        27.2178538
  entropy:            52.9541476
  heat_capacity:      73.5426357
  energy:             31.9837271

- temperature:       100.0000000
  free_energy:        26.6473764
  entropy:            61.1467442
  heat_capacity:      82.0392252
  energy:             32.7620508

- temperature:       110.0000000
  free_energy:        25.9949064
  entropy:            69.3433270
  heat_capacity:      89.9860879
  energy:             33.6226724

- temperature:       120.0000000
  free_energy:        25.2606707
  entropy:            77.4919646
  heat_capacity:      97.3147091
  energy:             34.5597064

- temperature:       130.0000000
  free_energy:        24.4453712
  entropy:            85.5497038
  heat_capacity:     104.0042574
  energy:             35.5668327

- temperature:       140.0000000
  free_energy:        23.5500927
  entropy:            93.4829125
  heat_capacity:     110.0671328
  energy:             36.6377004

- temperature:       150.0000000
  free_energy:        22.5762123
  entropy:           101.2665539
  heat_capacity:     115.5363871
  energy:             37.7661954

- temperature:       160.0000000
  free_energy:        21.5253196
  entropy:           108.8829796
  heat_capacity:     120.4562568
  energy:             38.9465964

- temperature:       170.0000000
  free_energy:        20.3991493
  entropy:           116.3206058
  heat_capacity:     124.8756508
  energy:             40.1736522

- temperature:       180.0000000
  free_energy:        19.1995265
  entropy:           123.5726644
  heat_capacity:     128.8439777
  energy:             41.4426061

- temperature:       190.0000000
  free_energy:        17.9283250
  entropy:           130.6361143
  heat_capacity:     132.4086588
  energy:             42.7491867

- temperature:       200.0000000
  free_energy:        16.5874339
  entropy:           137.5107366
  heat_capacity:     135.6137850
  energy:             44.0895812

- temperature:       210.0000000
  free_energy:        15.1787336
  entropy:           144.1984028
  heat_capacity:     138.4995120
  energy:             45.4603982

- temperature:       220.0000000
  free_energy:        13.7040778
  entropy:           150.7024982
  heat_capacity:     141.1019119
  energy:             46.8586274

- temperature:       230.0000000
  free_energy:        12.1652808
  entropy:           157.0274724
  heat_capacity:     143.4530917
  energy:             48.2815994

- temperature:       240.0000000
  free_energy:        10.5641083
  entropy:           163.1784944
  heat_capacity:     145.5814553
  energy:             49.7269469

- temperature:       250.0000000
  free_energy:         8.9022720
  entropy:           169.1611904
  heat_capacity:     147.5120333
  energy:             51.1925696

- temperature:       260.0000000
  free_energy:         7.1814259
  entropy:           174.9814462
  heat_capacity:     149.2668325
  energy:             52.6766020

- temperature:       270.0000000
  free_energy:         5.4031646
  entropy:           180.6452609
  heat_capacity:     150.8651789
  energy:             54.1773850

- temperature:       280.0000000
  free_energy:         3.5690222
  entropy:           186.1586380
  heat_capacity:     152.3240385
  energy:             55.6934408

- temperature:       290.0000000
  free_energy:         1.6804735
  entropy:           191.5275076
  heat_capacity:     153.6583108
  energy:             57.2234507

- temperature:       300.0000000
  free_energy:        -0.2610656
  entropy:           196.7576707
  heat_capacity:     154.8810905
  energy:             58.7662356

- temperature:       310.0000000
  free_energy:        -2.2542364
  entropy:           201.8547606
  heat_capacity:     156.0038991
  energy:             60.3207394

- temperature:       320.0000000
  free_energy:        -4.2977354
  entropy:           206.8242179
  heat_capacity:     157.0368882
  energy:             61.8860143

- temperature:       330.0000000
  free_energy:        -6.3903128
  entropy:           211.6712743
  heat_capacity:     157.9890163
  energy:             63.4612077

- temperature:       340.0000000
  free_energy:        -8.5307697
  entropy:           216.4009448
  heat_capacity:     158.8682030
  energy:             65.0455516

- temperature:       350.0000000
  free_energy:       -10.7179564
  entropy:           221.0180243
  heat_capacity:     159.6814613
  energy:             66.6383521

- temperature:       360.0000000
  free_energy:       -12.9507701
  entropy:           225.5270888
  heat_capacity:     160.4350139
  energy:             68.2389819

- temperature:       370.0000000
  free_energy:       -15.2281527
  entropy:           229.9324988
  heat_capacity:     161.1343922
  energy:             69.8468719

- temperature:       380.0000000
  free_energy:       -17.5490884
  entropy:           234.2384053
  heat_capacity:     161.7845226
  energy:             71.4615056

- temperature:       390.0000000
  free_energy:       -19.9126023
  entropy:           238.4487568
  heat_capacity:     162.3898013
  energy:             73.0824129

- temperature:       400.0000000
  free_energy:       -22.3177576
  entropy:           242.5673071
  heat_capacity:     162.9541590
  energy:             74.7091653

- temperature:       410.0000000
  free_energy:       -24.7636543
  entropy:           246.5976238
  heat_capacity:     163.4811164
  energy:             76.3413714

- temperature:       420.0000000
  free_energy:       -27.2494273
  entropy:           250.5430971
  heat_capacity:     163.9738333
  energy:             77.9786735

- temperature:       430.0000000
  free_energy:       -29.7742442
  entropy:           254.4069481
  heat_capacity:     164.4351507
  energy:             79.6207435

- temperature:       440.0000000
  free_energy:       -32.3373044
  entropy:           258.1922381
  heat_capacity:     164.8676276
  energy:             81.2672804

- temperature:       450.0000000
  free_energy:       -34.9378368
  entropy:           261.9018765
  heat_capacity:     165.2735730
  energy:             82.9180076

- temperature:       460.0000000
  free_energy:       -37.5750990
  entropy:           265.5386291
  heat_capacity:     165.6550742
  energy:             84.5726704

- temperature:       470.0000000
  free_energy:       -40.2483752
  entropy:           269.1051259
  heat_capacity:     166.0140211
  energy:             86.2310339

- temperature:       480.0000000
  free_energy:       -42.9569757
  entropy:           272.6038688
  heat_capacity:     166.3521276
  energy:             87.8928814

- temperature:       490.0000000
  free_energy:       -45.7002347
  entropy:           276.0372386
  heat_capacity:     166.6709509
  energy:             89.5580122

- temperature:       500.0000000
  free_energy:       -48.4775101
  entropy:           279.4075019
  heat_capacity:     166.9719078
  energy:             91.2262409

- temperature:       510.0000000
  free_energy:       -51.2881816
  entropy:           282.7168171
  heat_capacity:     167.2562891
  energy:             92.8973951

- temperature:       520.0000000
  free_energy:       -54.1316501
  entropy:           285.9672413
  heat_capacity:     167.5252733
  energy:             94.5713153

- temperature:       530.0000000
  free_energy:       -57.0073367
  entropy:           289.1607350
  heat_capacity:     167.7799372
  energy:             96.2478529

- temperature:       540.0000000
  free_energy:       -59.9146813
  entropy:           292.2991684
  heat_capacity:     168.0212666
  energy:             97.9268696

- temperature:       550.0000000
  free_energy:       -62.8531425
  entropy:           295.3843259
  heat_capacity:     168.2501649
  energy:             99.6082368

- temperature:       560.0000000
  free_energy:       -65.8221959
  entropy:           298.4179111
  heat_capacity:     168.4674612
  energy:            101.2918343

- temperature:       570.0000000
  free_energy:       -68.8213342
  entropy:           301.4015510
  heat_capacity:     168.6739176
  energy:            102.9775499

- temperature:       580.0000000
  free_energy:       -71.8500657
  entropy:           304.3368008
  heat_capacity:     168.8702354
  energy:            104.6652788

- temperature:       590.0000000
  free_energy:       -74.9079139
  entropy:           307.2251472
  heat_capacity:     169.0570605
  energy:            106.3549230

- temperature:       600.0000000
  free_energy:       -77.9944170
  entropy:           310.0680123
  heat_capacity:     169.2349890
  energy:            108.0463904

- temperature:       610.0000000
  free_energy:       -81.1091271
  entropy:           312.8667574
  heat_capacity:     169.4045713
  energy:            109.7395949

- temperature:       620.0000000
  free_energy:       -84.2516094
  entropy:           315.6226857
  heat_capacity:     169.5663163
  energy:            111.4344557

- temperature:       630.0000000
  free_energy:       -87.4214422
  entropy:           318.3370459
  heat_capacity:     169.7206952
  energy:            113.1308967

- temperature:       640.0000000
  free_energy:       -90.6182158
  entropy:           321.0110348
  heat_capacity:     169.8681444
  energy:            114.8288465

- temperature:       650.0000000
  free_energy:       -93.8415322
  entropy:           323.6458000
  heat_capacity:     170.0090691
  energy:            116.5282378

- temperature:       660.0000000
  free_energy:       -97.0910047
  entropy:           326.2424426
  heat_capacity:     170.1438452
  energy:            118.2290074

- temperature:       670.0000000
  free_energy:      -100.3662575
  entropy:           328.8020193
  heat_capacity:     170.2728225
  energy:            119.9310954

- temperature:       680.0000000
  free_energy:      -103.6669249
  entropy:           331.3255449
  heat_capacity:     170.3963261
  energy:            121.6344456

- temperature:       690.0000000
  free_energy:      -106.9926515
  entropy:           333.8139945
  heat_capacity:     170.5146593
  energy:            123.3390047

- temperature:       700.0000000
  free_energy:      -110.3430910
  entropy:           336.2683050
  heat_capacity:     170.6281043
  energy:            125.0447225

- temperature:       710.0000000
  free_energy:      -113.7179068
  entropy:           338.6893777
  heat_capacity:     170.7369249
  energy:            126.7515514

- temperature:       720.0000000
  free_energy:      -117.1167707
  entropy:           341.0780793
  heat_capacity:     170.8413672
  energy:            128.4594464

- temperature:       730.0000000
  free_energy:      -120.5393632
  entropy:           343.4352440
  heat_capacity:     170.9416614
  energy:            130.1683649

- temperature:       740.0000000
  free_energy:      -123.9853731
  entropy:           345.7616752
  heat_capacity:     171.0380229
  energy:            131.8782665

- temperature:       750.0000000
  free_energy:      -127.4544969
  entropy:           348.0581464
  heat_capacity:     171.1306532
  energy:            133.5891129

- temperature:       760.0000000
  free_energy:      -130.9464387
  entropy:           350.3254032
  heat_capacity:     171.2197412
  energy:            135.3008678

- temperature:       770.0000000
  free_energy:      -134.4609100
  entropy:           352.5641643
  heat_capacity:     171.3054643
  energy:            137.0134965

- temperature:       780.0000000
  free_energy:      -137.9976293
  entropy:           354.7751227
  heat_capacity:     171.3879888
  energy:            138.7269664

- temperature:       790.0000000
  free_energy:      -141.5563220
  entropy:           356.9589470
  heat_capacity:     171.4674709
  energy:            140.4412462

- temperature:       800.0000000
  free_energy:      -145.1367199
  entropy:           359.1162826
  heat_capacity:     171.5440574
  energy:            142.1563062

- temperature:       810.0000000
  free_energy:      -148.7385614
  entropy:           361.2477525
  heat_capacity:     171.6178867
  energy:            143.8721181

- temperature:       820.0000000
  free_energy:      -152.3615908
  entropy:           363.3539584
  heat_capacity:     171.6890887
  energy:            145.5886551

- temperature:       830.0000000
  free_energy:      -156.0055583
  entropy:           365.4354818
  heat_capacity:     171.7577860
  energy:            147.3058915

- temperature:       840.0000000
  free_energy:      -159.6702200
  entropy:           367.4928844
  heat_capacity:     171.8240940
  energy:            149.0238029

- temperature:       850.0000000
  free_energy:      -163.3553374
  entropy:           369.5267097
  heat_capacity:     171.8881219
  energy:            150.7423658

- temperature:       860.0000000
  free_energy:      -167.0606774
  entropy:           371.5374831
  heat_capacity:     171.9499723
  energy:            152.4615581

- temperature:       870.0000000
  free_energy:      -170.7860119
  entropy:           373.5257130
  heat_capacity:     172.0097425
  energy:            154.1813583

- temperature:       880.0000000
  free_energy:      -174.5311181
  entropy:           375.4918914
  heat_capacity:     172.0675243
  energy:            155.9017463

- temperature:       890.0000000
  free_energy:      -178.2957778
  entropy:           377.4364948
  heat_capacity:     172.1234045
  energy:            157.6227025

- temperature:       900.0000000
  free_energy:      -182.0797776
  entropy:           379.3599844
  heat_capacity:     172.1774653
  energy:            159.3442083

- temperature:       910.0000000
  free_energy:      -185.8829086
  entropy:           381.2628073
  heat_capacity:     172.2297844
  energy:            161.0662460

- temperature:       920.0000000
  free_energy:      -189.7049663
  entropy:           383.1453965
  heat_capacity:     172.2804356
  energy:            162.7887985

- temperature:       930.0000000
  free_energy:      -193.5457505
  entropy:           385.0081719
  heat_capacity:     172.3294887
  energy:            164.5118494

- temperature:       940.0000000
  free_energy:      -197.4050651
  entropy:           386.8515407
  heat_capacity:     172.3770100
  energy:            166.2353831

- temperature:       950.0000000
  free_energy:      -201.2827180
  entropy:           388.6758975
  heat_capacity:     172.4230622
  energy:            167.9593847

- temperature:       960.0000000
  free_energy:      -205.1785210
  entropy:           390.4816256
  heat_capacity:     172.4677053
  energy:            169.6838397

- temperature:       970.0000000
  free_energy:      -209.0922896
  entropy:           392.2690968
  heat_capacity:     172.5109957
  energy:            171.4087343

- temperature:       980.0000000
  free_energy:      -213.0238432
  entropy:           394.0386719
  heat_capacity:     172.5529875
  energy:            173.1340553

- temperature:       990.0000000
  free_energy:      -216.9730046
  entropy:           395.7907015
  heat_capacity:     172.5937318
  energy:            174.8597899

- temperature:      1000.0000000
  free_energy:      -220.9395999
  entropy:           397.5255258
  heat_capacity:     172.6332774
  energy:            176.5859259
