# Thermal properties / unit cell (natom)

unit:
  temperature:   K
  free_energy:   kJ/mol
  entropy:       J/K/mol
  heat_capacity: J/K/mol

natom: 5    
cutoff_frequency: 0.00000
num_modes: 207360
num_integrated_modes: 186126

zero_point_energy:      14.7930013

thermal_properties:
- temperature:         0.0000000
  free_energy:        14.7930013
  entropy:             0.0000000
  heat_capacity:       0.0000000
  energy:             14.7930013

- temperature:        10.0000000
  free_energy:        14.7851621
  entropy:             2.2531252
  heat_capacity:       3.9993639
  energy:             14.8076933

- temperature:        20.0000000
  free_energy:        14.7393793
  entropy:             7.1853485
  heat_capacity:      11.4308045
  energy:             14.8830863

- temperature:        30.0000000
  free_energy:        14.6370427
  entropy:            13.4400407
  heat_capacity:      19.9958758
  energy:             15.0402439

- temperature:        40.0000000
  free_energy:        14.4685888
  entropy:            20.3032577
  heat_capacity:      27.9484824
  energy:             15.2807191

- temperature:        50.0000000
  free_energy:        14.2304880
  entropy:            27.3233020
  heat_capacity:      35.1431628
  energy:             15.5966531

- temperature:        60.0000000
  free_energy:        13.9221651
  entropy:            34.3340678
  heat_capacity:      41.9161793
  energy:             15.9822091

- temperature:        70.0000000
  free_energy:        13.5440050
  entropy:            41.2858526
  heat_capacity:      48.3945743
  energy:             16.4340147

- temperature:        80.0000000
  free_energy:        13.0967306
  entropy:            48.1527637
  heat_capacity:      54.5273183
  energy:             16.9489517

- temperature:        90.0000000
  free_energy:        12.5813197
  entropy:            54.9086741
  heat_capacity:      60.2230172
  energy:             17.5231004

- temperature:       100.0000000
  free_energy:        11.9990154
  entropy:            61.5272500
  heat_capacity:      65.4186765
  energy:             18.1517404

- temperature:       110.0000000
  free_energy:        11.3513092
  entropy:            67.9856750
  heat_capacity:      70.0933247
  energy:             18.8297334

- temperature:       120.0000000
  free_energy:        10.6398935
  entropy:            74.2668010
  heat_capacity:      74.2594962
  energy:             19.5519097

- temperature:       130.0000000
  free_energy:         9.8666018
  entropy:            80.3595122
  heat_capacity:      77.9505110
  energy:             20.3133384

- temperature:       140.0000000
  free_energy:         9.0333510
  entropy:            86.2580721
  heat_capacity:      81.2099699
  energy:             21.1094810

- temperature:       150.0000000
  free_energy:         8.1420926
  entropy:            91.9610855
  heat_capacity:      84.0846593
  energy:             21.9362554

- temperature:       160.0000000
  free_energy:         7.1947751
  entropy:            97.4704342
  heat_capacity:      86.6203218
  energy:             22.7900445

- temperature:       170.0000000
  free_energy:         6.1933155
  entropy:           102.7903426
  heat_capacity:      88.8594229
  energy:             23.6676738

- temperature:       180.0000000
  free_energy:         5.1395804
  entropy:           107.9266218
  heat_capacity:      90.8401774
  energy:             24.5663723

- temperature:       190.0000000
  free_energy:         4.0353725
  entropy:           112.8860871
  heat_capacity:      92.5963141
  energy:             25.4837291

- temperature:       200.0000000
  free_energy:         2.8824235
  entropy:           117.6761245
  heat_capacity:      94.1572424
  energy:             26.4176484

- temperature:       210.0000000
  free_energy:         1.6823893
  entropy:           122.3043768
  heat_capacity:      95.5484131
  energy:             27.3663085

- temperature:       220.0000000
  free_energy:         0.4368496
  entropy:           126.7785209
  heat_capacity:      96.7917555
  energy:             28.3281242

- temperature:       230.0000000
  free_energy:        -0.8526926
  entropy:           131.1061155
  heat_capacity:      97.9061222
  energy:             29.3017139

- temperature:       240.0000000
  free_energy:        -2.1848087
  entropy:           135.2944987
  heat_capacity:      98.9077095
  energy:             30.2858710

- temperature:       250.0000000
  free_energy:        -3.5581421
  entropy:           139.3507237
  heat_capacity:      99.8104360
  energy:             31.2795388

- temperature:       260.0000000
  free_energy:        -4.9714051
  entropy:           143.2815207
  heat_capacity:     100.6262758
  energy:             32.2817903

- temperature:       270.0000000
  free_energy:        -6.4233757
  entropy:           147.0932778
  heat_capacity:     101.3655474
  energy:             33.2918093

- temperature:       280.0000000
  free_energy:        -7.9128941
  entropy:           150.7920352
  heat_capacity:     102.0371596
  energy:             34.3088758

- temperature:       290.0000000
  free_energy:        -9.4388588
  entropy:           154.3834881
  heat_capacity:     102.6488219
  energy:             35.3323527

- temperature:       300.0000000
  free_energy:       -11.0002240
  entropy:           157.8729961
  heat_capacity:     103.2072218
  energy:             36.3616748

- temperature:       310.0000000
  free_energy:       -12.5959957
  entropy:           161.2655962
  heat_capacity:     103.7181750
  energy:             37.3963391

- temperature:       320.0000000
  free_energy:       -14.2252287
  entropy:           164.5660183
  heat_capacity:     104.1867521
  energy:             38.4358971

- temperature:       330.0000000
  free_energy:       -15.8870237
  entropy:           167.7787012
  heat_capacity:     104.6173858
  energy:             39.4799477

- temperature:       340.0000000
  free_energy:       -17.5805242
  entropy:           170.9078105
  heat_capacity:     105.0139609
  energy:             40.5281313

- temperature:       350.0000000
  free_energy:       -19.3049144
  entropy:           173.9572548
  heat_capacity:     105.3798913
  energy:             41.5801248

- temperature:       360.0000000
  free_energy:       -21.0594160
  entropy:           176.9307031
  heat_capacity:     105.7181845
  energy:             42.6356371

- temperature:       370.0000000
  free_energy:       -22.8432866
  entropy:           179.8315997
  heat_capacity:     106.0314966
  energy:             43.6944053

- temperature:       380.0000000
  free_energy:       -24.6558170
  entropy:           182.6631805
  heat_capacity:     106.3221792
  energy:             44.7561916

- temperature:       390.0000000
  free_energy:       -26.4963293
  entropy:           185.4284865
  heat_capacity:     106.5923196
  energy:             45.8207804

- temperature:       400.0000000
  free_energy:       -28.3641753
  entropy:           188.1303777
  heat_capacity:     106.8437743
  energy:             46.8879757

- temperature:       410.0000000
  free_energy:       -30.2587345
  entropy:           190.7715455
  heat_capacity:     107.0781988
  energy:             47.9575992

- temperature:       420.0000000
  free_energy:       -32.1794123
  entropy:           193.3545243
  heat_capacity:     107.2970724
  energy:             49.0294879

- temperature:       430.0000000
  free_energy:       -34.1256390
  entropy:           195.8817028
  heat_capacity:     107.5017199
  energy:             50.1034932

- temperature:       440.0000000
  free_energy:       -36.0968679
  entropy:           198.3553335
  heat_capacity:     107.6933301
  energy:             51.1794789

- temperature:       450.0000000
  free_energy:       -38.0925743
  entropy:           200.7775426
  heat_capacity:     107.8729721
  energy:             52.2573199

- temperature:       460.0000000
  free_energy:       -40.1122540
  entropy:           203.1503384
  heat_capacity:     108.0416091
  energy:             53.3369016

- temperature:       470.0000000
  free_energy:       -42.1554227
  entropy:           205.4756191
  heat_capacity:     108.2001107
  energy:             54.4181183

- temperature:       480.0000000
  free_energy:       -44.2216140
  entropy:           207.7551807
  heat_capacity:     108.3492634
  energy:             55.5008727

- temperature:       490.0000000
  free_energy:       -46.3103795
  entropy:           209.9907232
  heat_capacity:     108.4897797
  energy:             56.5850748

- temperature:       500.0000000
  free_energy:       -48.4212871
  entropy:           212.1838576
  heat_capacity:     108.6223064
  energy:             57.6706417

- temperature:       510.0000000
  free_energy:       -50.5539204
  entropy:           214.3361112
  heat_capacity:     108.7474315
  energy:             58.7574963

- temperature:       520.0000000
  free_energy:       -52.7078779
  entropy:           216.4489333
  heat_capacity:     108.8656904
  energy:             59.8455674

- temperature:       530.0000000
  free_energy:       -54.8827723
  entropy:           218.5237002
  heat_capacity:     108.9775716
  energy:             60.9347888

- temperature:       540.0000000
  free_energy:       -57.0782295
  entropy:           220.5617195
  heat_capacity:     109.0835212
  energy:             62.0250991

- temperature:       550.0000000
  free_energy:       -59.2938883
  entropy:           222.5642348
  heat_capacity:     109.1839475
  energy:             63.1164409

- temperature:       560.0000000
  free_energy:       -61.5293998
  entropy:           224.5324297
  heat_capacity:     109.2792244
  energy:             64.2087609

- temperature:       570.0000000
  free_energy:       -63.7844263
  entropy:           226.4674309
  heat_capacity:     109.3696950
  energy:             65.3020093

- temperature:       580.0000000
  free_energy:       -66.0586413
  entropy:           228.3703122
  heat_capacity:     109.4556748
  energy:             66.3961398

- temperature:       590.0000000
  free_energy:       -68.3517289
  entropy:           230.2420978
  heat_capacity:     109.5374537
  energy:             67.4911088

- temperature:       600.0000000
  free_energy:       -70.6633829
  entropy:           232.0837644
  heat_capacity:     109.6152990
  energy:             68.5868758

- temperature:       610.0000000
  free_energy:       -72.9933069
  entropy:           233.8962449
  heat_capacity:     109.6894570
  energy:             69.6834025

- temperature:       620.0000000
  free_energy:       -75.3412135
  entropy:           235.6804304
  heat_capacity:     109.7601554
  energy:             70.7806534

- temperature:       630.0000000
  free_energy:       -77.7068240
  entropy:           237.4371727
  heat_capacity:     109.8276046
  energy:             71.8785948

- temperature:       640.0000000
  free_energy:       -80.0898682
  entropy:           239.1672866
  heat_capacity:     109.8919993
  energy:             72.9771953

- temperature:       650.0000000
  free_energy:       -82.4900836
  entropy:           240.8715520
  heat_capacity:     109.9535202
  energy:             74.0764252

- temperature:       660.0000000
  free_energy:       -84.9072155
  entropy:           242.5507154
  heat_capacity:     110.0123345
  energy:             75.1762567

- temperature:       670.0000000
  free_energy:       -87.3410166
  entropy:           244.2054925
  heat_capacity:     110.0685978
  energy:             76.2766634

- temperature:       680.0000000
  free_energy:       -89.7912464
  entropy:           245.8365691
  heat_capacity:     110.1224547
  energy:             77.3776206

- temperature:       690.0000000
  free_energy:       -92.2576712
  entropy:           247.4446030
  heat_capacity:     110.1740397
  energy:             78.4791049

- temperature:       700.0000000
  free_energy:       -94.7400637
  entropy:           249.0302257
  heat_capacity:     110.2234781
  energy:             79.5810942

- temperature:       710.0000000
  free_energy:       -97.2382030
  entropy:           250.5940432
  heat_capacity:     110.2708866
  energy:             80.6835677

- temperature:       720.0000000
  free_energy:       -99.7518739
  entropy:           252.1366381
  heat_capacity:     110.3163745
  energy:             81.7865056

- temperature:       730.0000000
  free_energy:      -102.2808669
  entropy:           253.6585699
  heat_capacity:     110.3600434
  energy:             82.8898891

- temperature:       740.0000000
  free_energy:      -104.8249782
  entropy:           255.1603768
  heat_capacity:     110.4019886
  energy:             83.9937007

- temperature:       750.0000000
  free_energy:      -107.3840091
  entropy:           256.6425767
  heat_capacity:     110.4422993
  energy:             85.0979235

- temperature:       760.0000000
  free_energy:      -109.9577660
  entropy:           258.1056678
  heat_capacity:     110.4810588
  energy:             86.2025415

- temperature:       770.0000000
  free_energy:      -112.5460603
  entropy:           259.5501299
  heat_capacity:     110.5183453
  energy:             87.3075397

- temperature:       780.0000000
  free_energy:      -115.1487081
  entropy:           260.9764254
  heat_capacity:     110.5542324
  energy:             88.4129037

- temperature:       790.0000000
  free_energy:      -117.7655298
  entropy:           262.3849996
  heat_capacity:     110.5887887
  energy:             89.5186199

- temperature:       800.0000000
  free_energy:      -120.3963504
  entropy:           263.7762821
  heat_capacity:     110.6220790
  energy:             90.6246753

- temperature:       810.0000000
  free_energy:      -123.0409992
  entropy:           265.1506872
  heat_capacity:     110.6541642
  energy:             91.7310575

- temperature:       820.0000000
  free_energy:      -125.6993092
  entropy:           266.5086146
  heat_capacity:     110.6851015
  energy:             92.8377548

- temperature:       830.0000000
  free_energy:      -128.3711178
  entropy:           267.8504502
  heat_capacity:     110.7149448
  energy:             93.9447559

- temperature:       840.0000000
  free_energy:      -131.0562658
  entropy:           269.1765667
  heat_capacity:     110.7437448
  energy:             95.0520502

- temperature:       850.0000000
  free_energy:      -133.7545980
  entropy:           270.4873240
  heat_capacity:     110.7715495
  energy:             96.1596275

- temperature:       860.0000000
  free_energy:      -136.4659623
  entropy:           271.7830701
  heat_capacity:     110.7984041
  energy:             97.2674780

- temperature:       870.0000000
  free_energy:      -139.1902104
  entropy:           273.0641413
  heat_capacity:     110.8243511
  energy:             98.3755925

- temperature:       880.0000000
  free_energy:      -141.9271973
  entropy:           274.3308630
  heat_capacity:     110.8494309
  energy:             99.4839621

- temperature:       890.0000000
  free_energy:      -144.6767809
  entropy:           275.5835498
  heat_capacity:     110.8736816
  energy:            100.5925784

- temperature:       900.0000000
  free_energy:      -147.4388225
  entropy:           276.8225063
  heat_capacity:     110.8971392
  energy:            101.7014331

- temperature:       910.0000000
  free_energy:      -150.2131863
  entropy:           278.0480273
  heat_capacity:     110.9198377
  energy:            102.8105186

- temperature:       920.0000000
  free_energy:      -152.9997392
  entropy:           279.2603986
  heat_capacity:     110.9418096
  energy:            103.9198275

- temperature:       930.0000000
  free_energy:      -155.7983513
  entropy:           280.4598966
  heat_capacity:     110.9630853
  energy:            105.0293525

- temperature:       940.0000000
  free_energy:      -158.6088951
  entropy:           281.6467894
  heat_capacity:     110.9836939
  energy:            106.1390869

- temperature:       950.0000000
  free_energy:      -161.4312460
  entropy:           282.8213371
  heat_capacity:     111.0036629
  energy:            107.2490242

- temperature:       960.0000000
  free_energy:      -164.2652816
  entropy:           283.9837914
  heat_capacity:     111.0230184
  energy:            108.3591581

- temperature:       970.0000000
  free_energy:      -167.1108823
  entropy:           285.1343968
  heat_capacity:     111.0417853
  energy:            109.4694826

- temperature:       980.0000000
  free_energy:      -169.9679308
  entropy:           286.2733906
  heat_capacity:     111.0599871
  energy:            110.5799920

- temperature:       990.0000000
  free_energy:      -172.8363122
  entropy:           287.4010028
  heat_capacity:     111.0776461
  energy:            111.6906806

- temperature:      1000.0000000
  free_energy:      -175.7159137
  entropy:           288.5174568
  heat_capacity:     111.0947837
  energy:            112.8015432
