phonopy:
  version: "2.37.1"
  frequency_unit_conversion_factor: 15.633302
  symmetry_tolerance: 1.00000e-05

space_group:
  type: "P2/m"
  number: 10
  Hall_symbol: "-P 2y"

primitive_matrix:
- [  1.000000000000000,  0.000000000000000,  0.000000000000000 ]
- [  0.000000000000000,  1.000000000000000, -0.000000000000000 ]
- [  0.000000000000000,  0.000000000000000,  1.000000000000000 ]

supercell_matrix:
- [   2,   0,   0 ]
- [   0,   4,   0 ]
- [   0,   0,   2 ]

primitive_cell:
  lattice:
  - [     5.147210142409008,     0.000000000000000,     0.000000000000000 ] # a
  - [    -0.000000157558363,     3.227757152053838,     0.000000000000000 ] # b
  - [    -1.905867391093000,    -0.000000300570502,     7.566474333257773 ] # c
  points:
  - symbol: Li # 1
    coordinates: [  0.263931468447338,  0.499999997943933,  0.329612508948546 ]
    mass: 6.940000
  - symbol: Li # 2
    coordinates: [  0.736068537554372,  0.500000004197154,  0.670387492090135 ]
    mass: 6.940000
  - symbol: Li # 3
    coordinates: [  0.499999992581972,  0.500000000072706,  0.000000000337799 ]
    mass: 6.940000
  - symbol: Sn # 4
    coordinates: [  0.241367308476845,  0.999999995760751,  0.662782508522610 ]
    mass: 118.710000
  - symbol: Sn # 5
    coordinates: [  0.758632699279208,  0.999999999399770,  0.337217494757705 ]
    mass: 118.710000
  - symbol: Sn # 6
    coordinates: [  0.999999993838855,  0.000000002544813,  0.999999995324762 ]
    mass: 118.710000
  reciprocal_lattice: # without 2pi
  - [     0.194280002629148,     0.000000009483501,     0.048935859086293 ] # a*
  - [     0.000000000000000,     0.309812650980789,     0.000000012306993 ] # b*
  - [     0.000000000000000,     0.000000000000000,     0.132161949668499 ] # c*

unit_cell:
  lattice:
  - [     5.147210142409008,     0.000000000000000,     0.000000000000000 ] # a
  - [    -0.000000157558363,     3.227757152053838,     0.000000000000000 ] # b
  - [    -1.905867391093000,    -0.000000300570502,     7.566474333257773 ] # c
  points:
  - symbol: Li # 1
    coordinates: [  0.263931468447338,  0.499999997943933,  0.329612508948546 ]
    mass: 6.940000
    reduced_to: 1
  - symbol: Li # 2
    coordinates: [  0.736068537554372,  0.500000004197154,  0.670387492090135 ]
    mass: 6.940000
    reduced_to: 2
  - symbol: Li # 3
    coordinates: [  0.499999992581972,  0.500000000072706,  0.000000000337799 ]
    mass: 6.940000
    reduced_to: 3
  - symbol: Sn # 4
    coordinates: [  0.241367308476845,  0.999999995760751,  0.662782508522610 ]
    mass: 118.710000
    reduced_to: 4
  - symbol: Sn # 5
    coordinates: [  0.758632699279208,  0.999999999399770,  0.337217494757705 ]
    mass: 118.710000
    reduced_to: 5
  - symbol: Sn # 6
    coordinates: [  0.999999993838855,  0.000000002544813,  0.999999995324762 ]
    mass: 118.710000
    reduced_to: 6

supercell:
  lattice:
  - [    10.294420284818015,     0.000000000000000,     0.000000000000000 ] # a
  - [    -0.000000630233451,    12.911028608215350,     0.000000000000000 ] # b
  - [    -3.811734782185999,    -0.000000601141005,    15.132948666515546 ] # c
  points:
  - symbol: Li # 1
    coordinates: [  0.131965734223669,  0.124999999485983,  0.164806254474273 ]
    mass: 6.940000
    reduced_to: 1
  - symbol: Li # 2
    coordinates: [  0.631965734223669,  0.124999999485983,  0.164806254474273 ]
    mass: 6.940000
    reduced_to: 1
  - symbol: Li # 3
    coordinates: [  0.131965734223669,  0.374999999485983,  0.164806254474273 ]
    mass: 6.940000
    reduced_to: 1
  - symbol: Li # 4
    coordinates: [  0.631965734223669,  0.374999999485983,  0.164806254474273 ]
    mass: 6.940000
    reduced_to: 1
  - symbol: Li # 5
    coordinates: [  0.131965734223669,  0.624999999485983,  0.164806254474273 ]
    mass: 6.940000
    reduced_to: 1
  - symbol: Li # 6
    coordinates: [  0.631965734223669,  0.624999999485983,  0.164806254474273 ]
    mass: 6.940000
    reduced_to: 1
  - symbol: Li # 7
    coordinates: [  0.131965734223669,  0.874999999485983,  0.164806254474273 ]
    mass: 6.940000
    reduced_to: 1
  - symbol: Li # 8
    coordinates: [  0.631965734223669,  0.874999999485983,  0.164806254474273 ]
    mass: 6.940000
    reduced_to: 1
  - symbol: Li # 9
    coordinates: [  0.131965734223669,  0.124999999485983,  0.664806254474273 ]
    mass: 6.940000
    reduced_to: 1
  - symbol: Li # 10
    coordinates: [  0.631965734223669,  0.124999999485983,  0.664806254474273 ]
    mass: 6.940000
    reduced_to: 1
  - symbol: Li # 11
    coordinates: [  0.131965734223669,  0.374999999485983,  0.664806254474273 ]
    mass: 6.940000
    reduced_to: 1
  - symbol: Li # 12
    coordinates: [  0.631965734223669,  0.374999999485983,  0.664806254474273 ]
    mass: 6.940000
    reduced_to: 1
  - symbol: Li # 13
    coordinates: [  0.131965734223669,  0.624999999485983,  0.664806254474273 ]
    mass: 6.940000
    reduced_to: 1
  - symbol: Li # 14
    coordinates: [  0.631965734223669,  0.624999999485983,  0.664806254474273 ]
    mass: 6.940000
    reduced_to: 1
  - symbol: Li # 15
    coordinates: [  0.131965734223669,  0.874999999485983,  0.664806254474273 ]
    mass: 6.940000
    reduced_to: 1
  - symbol: Li # 16
    coordinates: [  0.631965734223669,  0.874999999485983,  0.664806254474273 ]
    mass: 6.940000
    reduced_to: 1
  - symbol: Li # 17
    coordinates: [  0.368034268777186,  0.125000001049288,  0.335193746045068 ]
    mass: 6.940000
    reduced_to: 17
  - symbol: Li # 18
    coordinates: [  0.868034268777186,  0.125000001049288,  0.335193746045068 ]
    mass: 6.940000
    reduced_to: 17
  - symbol: Li # 19
    coordinates: [  0.368034268777186,  0.375000001049288,  0.335193746045068 ]
    mass: 6.940000
    reduced_to: 17
  - symbol: Li # 20
    coordinates: [  0.868034268777186,  0.375000001049288,  0.335193746045068 ]
    mass: 6.940000
    reduced_to: 17
  - symbol: Li # 21
    coordinates: [  0.368034268777186,  0.625000001049288,  0.335193746045068 ]
    mass: 6.940000
    reduced_to: 17
  - symbol: Li # 22
    coordinates: [  0.868034268777186,  0.625000001049288,  0.335193746045068 ]
    mass: 6.940000
    reduced_to: 17
  - symbol: Li # 23
    coordinates: [  0.368034268777186,  0.875000001049288,  0.335193746045068 ]
    mass: 6.940000
    reduced_to: 17
  - symbol: Li # 24
    coordinates: [  0.868034268777186,  0.875000001049288,  0.335193746045068 ]
    mass: 6.940000
    reduced_to: 17
  - symbol: Li # 25
    coordinates: [  0.368034268777186,  0.125000001049288,  0.835193746045068 ]
    mass: 6.940000
    reduced_to: 17
  - symbol: Li # 26
    coordinates: [  0.868034268777186,  0.125000001049288,  0.835193746045068 ]
    mass: 6.940000
    reduced_to: 17
  - symbol: Li # 27
    coordinates: [  0.368034268777186,  0.375000001049288,  0.835193746045068 ]
    mass: 6.940000
    reduced_to: 17
  - symbol: Li # 28
    coordinates: [  0.868034268777186,  0.375000001049288,  0.835193746045068 ]
    mass: 6.940000
    reduced_to: 17
  - symbol: Li # 29
    coordinates: [  0.368034268777186,  0.625000001049288,  0.835193746045068 ]
    mass: 6.940000
    reduced_to: 17
  - symbol: Li # 30
    coordinates: [  0.868034268777186,  0.625000001049288,  0.835193746045068 ]
    mass: 6.940000
    reduced_to: 17
  - symbol: Li # 31
    coordinates: [  0.368034268777186,  0.875000001049288,  0.835193746045068 ]
    mass: 6.940000
    reduced_to: 17
  - symbol: Li # 32
    coordinates: [  0.868034268777186,  0.875000001049288,  0.835193746045068 ]
    mass: 6.940000
    reduced_to: 17
  - symbol: Li # 33
    coordinates: [  0.249999996290986,  0.125000000018177,  0.000000000168899 ]
    mass: 6.940000
    reduced_to: 33
  - symbol: Li # 34
    coordinates: [  0.749999996290986,  0.125000000018177,  0.000000000168899 ]
    mass: 6.940000
    reduced_to: 33
  - symbol: Li # 35
    coordinates: [  0.249999996290986,  0.375000000018177,  0.000000000168899 ]
    mass: 6.940000
    reduced_to: 33
  - symbol: Li # 36
    coordinates: [  0.749999996290986,  0.375000000018177,  0.000000000168899 ]
    mass: 6.940000
    reduced_to: 33
  - symbol: Li # 37
    coordinates: [  0.249999996290986,  0.625000000018177,  0.000000000168899 ]
    mass: 6.940000
    reduced_to: 33
  - symbol: Li # 38
    coordinates: [  0.749999996290986,  0.625000000018177,  0.000000000168899 ]
    mass: 6.940000
    reduced_to: 33
  - symbol: Li # 39
    coordinates: [  0.249999996290986,  0.875000000018177,  0.000000000168899 ]
    mass: 6.940000
    reduced_to: 33
  - symbol: Li # 40
    coordinates: [  0.749999996290986,  0.875000000018177,  0.000000000168899 ]
    mass: 6.940000
    reduced_to: 33
  - symbol: Li # 41
    coordinates: [  0.249999996290986,  0.125000000018177,  0.500000000168899 ]
    mass: 6.940000
    reduced_to: 33
  - symbol: Li # 42
    coordinates: [  0.749999996290986,  0.125000000018177,  0.500000000168899 ]
    mass: 6.940000
    reduced_to: 33
  - symbol: Li # 43
    coordinates: [  0.249999996290986,  0.375000000018177,  0.500000000168899 ]
    mass: 6.940000
    reduced_to: 33
  - symbol: Li # 44
    coordinates: [  0.749999996290986,  0.375000000018177,  0.500000000168899 ]
    mass: 6.940000
    reduced_to: 33
  - symbol: Li # 45
    coordinates: [  0.249999996290986,  0.625000000018177,  0.500000000168899 ]
    mass: 6.940000
    reduced_to: 33
  - symbol: Li # 46
    coordinates: [  0.749999996290986,  0.625000000018177,  0.500000000168899 ]
    mass: 6.940000
    reduced_to: 33
  - symbol: Li # 47
    coordinates: [  0.249999996290986,  0.875000000018177,  0.500000000168899 ]
    mass: 6.940000
    reduced_to: 33
  - symbol: Li # 48
    coordinates: [  0.749999996290986,  0.875000000018177,  0.500000000168899 ]
    mass: 6.940000
    reduced_to: 33
  - symbol: Sn # 49
    coordinates: [  0.120683654238422,  0.249999998940188,  0.331391254261305 ]
    mass: 118.710000
    reduced_to: 49
  - symbol: Sn # 50
    coordinates: [  0.620683654238422,  0.249999998940188,  0.331391254261305 ]
    mass: 118.710000
    reduced_to: 49
  - symbol: Sn # 51
    coordinates: [  0.120683654238422,  0.499999998940188,  0.331391254261305 ]
    mass: 118.710000
    reduced_to: 49
  - symbol: Sn # 52
    coordinates: [  0.620683654238422,  0.499999998940188,  0.331391254261305 ]
    mass: 118.710000
    reduced_to: 49
  - symbol: Sn # 53
    coordinates: [  0.120683654238422,  0.749999998940188,  0.331391254261305 ]
    mass: 118.710000
    reduced_to: 49
  - symbol: Sn # 54
    coordinates: [  0.620683654238422,  0.749999998940188,  0.331391254261305 ]
    mass: 118.710000
    reduced_to: 49
  - symbol: Sn # 55
    coordinates: [  0.120683654238422,  0.999999998940188,  0.331391254261305 ]
    mass: 118.710000
    reduced_to: 49
  - symbol: Sn # 56
    coordinates: [  0.620683654238422,  0.999999998940188,  0.331391254261305 ]
    mass: 118.710000
    reduced_to: 49
  - symbol: Sn # 57
    coordinates: [  0.120683654238422,  0.249999998940188,  0.831391254261305 ]
    mass: 118.710000
    reduced_to: 49
  - symbol: Sn # 58
    coordinates: [  0.620683654238422,  0.249999998940188,  0.831391254261305 ]
    mass: 118.710000
    reduced_to: 49
  - symbol: Sn # 59
    coordinates: [  0.120683654238422,  0.499999998940188,  0.831391254261305 ]
    mass: 118.710000
    reduced_to: 49
  - symbol: Sn # 60
    coordinates: [  0.620683654238422,  0.499999998940188,  0.831391254261305 ]
    mass: 118.710000
    reduced_to: 49
  - symbol: Sn # 61
    coordinates: [  0.120683654238422,  0.749999998940188,  0.831391254261305 ]
    mass: 118.710000
    reduced_to: 49
  - symbol: Sn # 62
    coordinates: [  0.620683654238422,  0.749999998940188,  0.831391254261305 ]
    mass: 118.710000
    reduced_to: 49
  - symbol: Sn # 63
    coordinates: [  0.120683654238422,  0.999999998940188,  0.831391254261305 ]
    mass: 118.710000
    reduced_to: 49
  - symbol: Sn # 64
    coordinates: [  0.620683654238422,  0.999999998940188,  0.831391254261305 ]
    mass: 118.710000
    reduced_to: 49
  - symbol: Sn # 65
    coordinates: [  0.379316349639604,  0.249999999849943,  0.168608747378852 ]
    mass: 118.710000
    reduced_to: 65
  - symbol: Sn # 66
    coordinates: [  0.879316349639604,  0.249999999849943,  0.168608747378852 ]
    mass: 118.710000
    reduced_to: 65
  - symbol: Sn # 67
    coordinates: [  0.379316349639604,  0.499999999849943,  0.168608747378852 ]
    mass: 118.710000
    reduced_to: 65
  - symbol: Sn # 68
    coordinates: [  0.879316349639604,  0.499999999849943,  0.168608747378852 ]
    mass: 118.710000
    reduced_to: 65
  - symbol: Sn # 69
    coordinates: [  0.379316349639604,  0.749999999849942,  0.168608747378852 ]
    mass: 118.710000
    reduced_to: 65
  - symbol: Sn # 70
    coordinates: [  0.879316349639604,  0.749999999849942,  0.168608747378852 ]
    mass: 118.710000
    reduced_to: 65
  - symbol: Sn # 71
    coordinates: [  0.379316349639604,  0.999999999849942,  0.168608747378852 ]
    mass: 118.710000
    reduced_to: 65
  - symbol: Sn # 72
    coordinates: [  0.879316349639604,  0.999999999849942,  0.168608747378852 ]
    mass: 118.710000
    reduced_to: 65
  - symbol: Sn # 73
    coordinates: [  0.379316349639604,  0.249999999849943,  0.668608747378852 ]
    mass: 118.710000
    reduced_to: 65
  - symbol: Sn # 74
    coordinates: [  0.879316349639604,  0.249999999849943,  0.668608747378852 ]
    mass: 118.710000
    reduced_to: 65
  - symbol: Sn # 75
    coordinates: [  0.379316349639604,  0.499999999849943,  0.668608747378852 ]
    mass: 118.710000
    reduced_to: 65
  - symbol: Sn # 76
    coordinates: [  0.879316349639604,  0.499999999849943,  0.668608747378852 ]
    mass: 118.710000
    reduced_to: 65
  - symbol: Sn # 77
    coordinates: [  0.379316349639604,  0.749999999849942,  0.668608747378852 ]
    mass: 118.710000
    reduced_to: 65
  - symbol: Sn # 78
    coordinates: [  0.879316349639604,  0.749999999849942,  0.668608747378852 ]
    mass: 118.710000
    reduced_to: 65
  - symbol: Sn # 79
    coordinates: [  0.379316349639604,  0.999999999849942,  0.668608747378852 ]
    mass: 118.710000
    reduced_to: 65
  - symbol: Sn # 80
    coordinates: [  0.879316349639604,  0.999999999849942,  0.668608747378852 ]
    mass: 118.710000
    reduced_to: 65
  - symbol: Sn # 81
    coordinates: [  0.499999996919427,  0.000000000636203,  0.499999997662381 ]
    mass: 118.710000
    reduced_to: 81
  - symbol: Sn # 82
    coordinates: [  0.999999996919427,  0.000000000636203,  0.499999997662381 ]
    mass: 118.710000
    reduced_to: 81
  - symbol: Sn # 83
    coordinates: [  0.499999996919427,  0.250000000636203,  0.499999997662381 ]
    mass: 118.710000
    reduced_to: 81
  - symbol: Sn # 84
    coordinates: [  0.999999996919427,  0.250000000636203,  0.499999997662381 ]
    mass: 118.710000
    reduced_to: 81
  - symbol: Sn # 85
    coordinates: [  0.499999996919427,  0.500000000636203,  0.499999997662381 ]
    mass: 118.710000
    reduced_to: 81
  - symbol: Sn # 86
    coordinates: [  0.999999996919427,  0.500000000636203,  0.499999997662381 ]
    mass: 118.710000
    reduced_to: 81
  - symbol: Sn # 87
    coordinates: [  0.499999996919427,  0.750000000636203,  0.499999997662381 ]
    mass: 118.710000
    reduced_to: 81
  - symbol: Sn # 88
    coordinates: [  0.999999996919427,  0.750000000636203,  0.499999997662381 ]
    mass: 118.710000
    reduced_to: 81
  - symbol: Sn # 89
    coordinates: [  0.499999996919427,  0.000000000636203,  0.999999997662381 ]
    mass: 118.710000
    reduced_to: 81
  - symbol: Sn # 90
    coordinates: [  0.999999996919427,  0.000000000636203,  0.999999997662381 ]
    mass: 118.710000
    reduced_to: 81
  - symbol: Sn # 91
    coordinates: [  0.499999996919427,  0.250000000636203,  0.999999997662381 ]
    mass: 118.710000
    reduced_to: 81
  - symbol: Sn # 92
    coordinates: [  0.999999996919427,  0.250000000636203,  0.999999997662381 ]
    mass: 118.710000
    reduced_to: 81
  - symbol: Sn # 93
    coordinates: [  0.499999996919427,  0.500000000636203,  0.999999997662381 ]
    mass: 118.710000
    reduced_to: 81
  - symbol: Sn # 94
    coordinates: [  0.999999996919427,  0.500000000636203,  0.999999997662381 ]
    mass: 118.710000
    reduced_to: 81
  - symbol: Sn # 95
    coordinates: [  0.499999996919427,  0.750000000636203,  0.999999997662381 ]
    mass: 118.710000
    reduced_to: 81
  - symbol: Sn # 96
    coordinates: [  0.999999996919427,  0.750000000636203,  0.999999997662381 ]
    mass: 118.710000
    reduced_to: 81

displacements:
- atom:    1
  displacement:
    [   0.0062342383124615,  0.0078188408772297,  0.0000000000000000 ]
  forces:
  - [  -0.0219788439571857, -0.0099743604660034, -0.0425025299191475 ]
  - [  -0.0088902637362480,  0.0005383433308452, -0.0422550477087498 ]
  - [  -0.0092699155211449,  0.0014645692426711, -0.0421309545636177 ]
  - [  -0.0097678825259209, -0.0005863870028406, -0.0422175973653793 ]
  - [  -0.0088064894080162, -0.0006030700169504, -0.0422461479902267 ]
  - [  -0.0087289363145828, -0.0000272800680250, -0.0422451309859753 ]
  - [  -0.0089686885476112,  0.0011915843933821, -0.0423949435353279 ]
  - [  -0.0098918303847313, -0.0004721879959106, -0.0422718971967697 ]
  - [  -0.0087479129433632, -0.0000344263389707, -0.0422439426183701 ]
  - [  -0.0087532922625542,  0.0000124117359519, -0.0422514565289021 ]
  - [  -0.0087435021996498,  0.0000175847671926, -0.0422401279211044 ]
  - [  -0.0087454020977020, -0.0000074948184192, -0.0422463938593864 ]
  - [  -0.0087462291121483, -0.0000047143548727, -0.0422457158565521 ]
  - [  -0.0087460279464722, -0.0000026696361601, -0.0422469638288021 ]
  - [  -0.0087501779198647,  0.0000226341398957, -0.0422506071627140 ]
  - [  -0.0087539404630661, -0.0000016809835870, -0.0422465801239014 ]
  - [   0.0091453567147255, -0.0002064425498247,  0.0428907610476017 ]
  - [   0.0087101757526398, -0.0003931494429708,  0.0421505123376846 ]
  - [   0.0087647065520287, -0.0000143684446812,  0.0421882532536983 ]
  - [   0.0087808370590210,  0.0001007430255413,  0.0422995202243328 ]
  - [   0.0087504163384438, -0.0000036567757888,  0.0422540642321110 ]
  - [   0.0087328106164932, -0.0000349637120962,  0.0422497764229774 ]
  - [   0.0088272243738174,  0.0000351034104824,  0.0422941893339157 ]
  - [   0.0087998881936073,  0.0001160521060228,  0.0423321351408958 ]
  - [   0.0086226165294647, -0.0000559478576179,  0.0424268916249275 ]
  - [   0.0087186768651009,  0.0002989950007759,  0.0422010049223900 ]
  - [   0.0087474808096886,  0.0000251857563853,  0.0422463342547417 ]
  - [   0.0088095888495445, -0.0001950301229954,  0.0425595566630363 ]
  - [   0.0087535008788109, -0.0000010412186384,  0.0422523170709610 ]
  - [   0.0087422430515289, -0.0000078398734331,  0.0422431863844395 ]
  - [   0.0087419301271439,  0.0000196737855731,  0.0422532483935356 ]
  - [   0.0086299031972885, -0.0003388844779693,  0.0416900105774403 ]
  - [   0.0005354997701943, -0.0003055036067963, -0.0007620099931955 ]
  - [  -0.0001343786716461, -0.0003026770427823,  0.0000430587679148 ]
  - [   0.0001244363375008,  0.0000272309407592,  0.0000321064144373 ]
  - [   0.0000968398526311,  0.0000333683565259, -0.0000965800136328 ]
  - [   0.0000065376516432,  0.0000067753717303, -0.0000090859830379 ]
  - [  -0.0000098031014204, -0.0000348626635969, -0.0000041481107473 ]
  - [  -0.0000684652477503,  0.0001530442386866, -0.0000099288299680 ]
  - [  -0.0000218702480197,  0.0000773789361119,  0.0000192020088434 ]
  - [  -0.0000123903155327, -0.0000312044758175,  0.0000527817755938 ]
  - [   0.0000057714059949, -0.0000466197270725,  0.0000182436779141 ]
  - [  -0.0000307881273329, -0.0000182474032044, -0.0001142860855907 ]
  - [  -0.0000027967616916,  0.0000364445149899,  0.0000288467854261 ]
  - [  -0.0000027851201594, -0.0000145500525832,  0.0000055087730289 ]
  - [  -0.0000018225982785, -0.0000119432806969, -0.0000077001750469 ]
  - [   0.0000877161510289, -0.0001159319654107,  0.0002901228144765 ]
  - [  -0.0000011594966054,  0.0000235158950090, -0.0000167675316334 ]
  - [  -0.0078690126538277,  0.0006099205929786,  0.0010055825114250 ]
  - [  -0.0077047199010849, -0.0000475437846035,  0.0000698268413544 ]
  - [  -0.0076774954795837, -0.0000350340560544,  0.0001880601048470 ]
  - [  -0.0076036229729652,  0.0001198393583763,  0.0003095306456089 ]
  - [  -0.0076427720487118, -0.0001556103234179,  0.0002204328775406 ]
  - [  -0.0076107569038868,  0.0000195669126697,  0.0002030916512012 ]
  - [  -0.0076593160629272,  0.0020175953395665, -0.0029002167284489 ]
  - [  -0.0077001936733723, -0.0001320147421211,  0.0000505149364471 ]
  - [  -0.0076072216033936, -0.0000362184364349,  0.0001915544271469 ]
  - [  -0.0076019093394279,  0.0000012766104192,  0.0000464804470539 ]
  - [  -0.0076314695179462,  0.0000152922621055,  0.0002006590366364 ]
  - [  -0.0076686516404152, -0.0000244754446612,  0.0002409555017948 ]
  - [  -0.0076580233871937,  0.0000624540916760,  0.0002242252230644 ]
  - [  -0.0076158829033375,  0.0000005751558092,  0.0002026557922363 ]
  - [  -0.0077723525464535, -0.0000782241113484,  0.0001332610845566 ]
  - [  -0.0076233372092247,  0.0000222770031542,  0.0002522021532059 ]
  - [   0.0153269767761230,  0.0038865669630468, -0.0001647062599659 ]
  - [   0.0088449195027351, -0.0008667572983541, -0.0003078319132328 ]
  - [   0.0075614266097546, -0.0001857834722614, -0.0002157352864742 ]
  - [   0.0076051205396652,  0.0000323136337101, -0.0002019368112087 ]
  - [   0.0075417309999466,  0.0000352046336047, -0.0002141408622265 ]
  - [   0.0075990781188011, -0.0001903348602355, -0.0002104900777340 ]
  - [   0.0090202167630196, -0.0006615246529691, -0.0001788213849068 ]
  - [   0.0131280086934566,  0.0031133731827140, -0.0002461075782776 ]
  - [   0.0076460465788841,  0.0000009350478649, -0.0002218484878540 ]
  - [   0.0075905323028564,  0.0000190208083950, -0.0001814477145672 ]
  - [   0.0076341107487679,  0.0000066766515374, -0.0002098232507706 ]
  - [   0.0076486691832542, -0.0000044298358262, -0.0002237968146801 ]
  - [   0.0076323747634888,  0.0000022103195079, -0.0002271942794323 ]
  - [   0.0076150819659233, -0.0000161132193170, -0.0001952499151230 ]
  - [   0.0076619945466518, -0.0000099585158750, -0.0002209022641182 ]
  - [   0.0077375136315823,  0.0000010731746443, -0.0002059638500214 ]
  - [  -0.0000076599844760,  0.0000971783083514, -0.0001283402089030 ]
  - [  -0.0000079417941379, -0.0001097075510188,  0.0001819987082854 ]
  - [  -0.0000086407235358, -0.0000411316286772,  0.0001109667937271 ]
  - [  -0.0000763844000176, -0.0000927709043026,  0.0000168010592461 ]
  - [   0.0000377412034140, -0.0000231424346566, -0.0000123702338897 ]
  - [  -0.0000009691575542,  0.0000116629526019, -0.0000014317338355 ]
  - [  -0.0000223136376007,  0.0000018961727619,  0.0000002982560545 ]
  - [   0.0000230573077715,  0.0000557871535420, -0.0000139501644298 ]
  - [  -0.0000282058026642, -0.0000954484567046,  0.0001632153289393 ]
  - [   0.0011609747307375,  0.0020733829587698,  0.0035280422307551 ]
  - [  -0.0001667471078690, -0.0000392911024392,  0.0001548242289573 ]
  - [  -0.0006340597174130,  0.0003773393109441, -0.0009087387006730 ]
  - [   0.0000355883021257,  0.0000871261581779, -0.0000920586753637 ]
  - [  -0.0000112858833745, -0.0000436082482338,  0.0000179831404239 ]
  - [   0.0000133382272907,  0.0000170990824699,  0.0000121613265947 ]
  - [  -0.0000121069024317, -0.0001520374789834, -0.0000072445254773 ]
- atom:    1
  displacement:
    [  -0.0062342383124615, -0.0078188408772297,  0.0000000000000000 ]
  forces:
  - [   0.0044080466032028,  0.0099878571927547, -0.0419740937650204 ]
  - [  -0.0086032599210739, -0.0005412199534476, -0.0422353260219097 ]
  - [  -0.0082261189818382, -0.0014255098067224, -0.0423587486147881 ]
  - [  -0.0077332556247711,  0.0005857388023287, -0.0422721989452839 ]
  - [  -0.0086871534585953,  0.0006031803786755, -0.0422432050108910 ]
  - [  -0.0087645351886749,  0.0000270670279860, -0.0422449782490730 ]
  - [  -0.0085242167115211, -0.0012209559790790, -0.0420952662825584 ]
  - [  -0.0075795277953148,  0.0004786208737642, -0.0422173440456390 ]
  - [  -0.0087471455335617,  0.0000334633514285, -0.0422473885118961 ]
  - [  -0.0087415054440498, -0.0000141197815537, -0.0422397404909134 ]
  - [  -0.0087517201900482, -0.0000162795186043, -0.0422508008778095 ]
  - [  -0.0087500289082527,  0.0000092526897788, -0.0422447770833969 ]
  - [  -0.0087468922138214,  0.0000071036629379, -0.0422466583549976 ]
  - [  -0.0087472721934319,  0.0000048140063882, -0.0422452613711357 ]
  - [  -0.0087434798479080, -0.0000231210869970, -0.0422421917319298 ]
  - [  -0.0087402313947678,  0.0000005730826160, -0.0422460362315178 ]
  - [   0.0083551332354546,  0.0002081282436848,  0.0416015163064003 ]
  - [   0.0087844356894493,  0.0003972332924604,  0.0423394963145256 ]
  - [   0.0087313875555992,  0.0000164210796356,  0.0422974117100239 ]
  - [   0.0087140426039696, -0.0000991635024548,  0.0421915352344513 ]
  - [   0.0087425634264946,  0.0000031018316804,  0.0422361716628075 ]
  - [   0.0087606310844421,  0.0000346582382917,  0.0422399900853634 ]
  - [   0.0086647644639015, -0.0000371560454369,  0.0421973913908005 ]
  - [   0.0086883381009102, -0.0001193368807435,  0.0421551577746868 ]
  - [   0.0088728219270706,  0.0000542834823136,  0.0420633070170879 ]
  - [   0.0087783262133598, -0.0003003511228599,  0.0422938540577888 ]
  - [   0.0087463706731796, -0.0000243159011006,  0.0422462336719036 ]
  - [   0.0086846426129341,  0.0001958878710866,  0.0419318750500679 ]
  - [   0.0087391138076782,  0.0000023851171136,  0.0422406047582626 ]
  - [   0.0087503641843796,  0.0000091614201665,  0.0422502458095551 ]
  - [   0.0087516829371452, -0.0000213016137423,  0.0422397218644619 ]
  - [   0.0088658332824707,  0.0003396110259928,  0.0428069382905960 ]
  - [  -0.0005277390591800,  0.0003070803359151,  0.0007591545581818 ]
  - [   0.0001357737928629,  0.0003050928935409, -0.0000420752912760 ]
  - [  -0.0001234211958945, -0.0000270660966635, -0.0000285245478153 ]
  - [  -0.0000945213250816, -0.0000320076942444,  0.0000955797731876 ]
  - [  -0.0000063232146204, -0.0000071516260505,  0.0000084033235908 ]
  - [   0.0000105625949800,  0.0000349991023540,  0.0000046375207603 ]
  - [   0.0000683180987835, -0.0001543592661619,  0.0000100331380963 ]
  - [   0.0000168918631971, -0.0000814609229565, -0.0000163298100233 ]
  - [   0.0000124331563711,  0.0000307098489429, -0.0000552795827389 ]
  - [  -0.0000051725655794,  0.0000467267345812, -0.0000180331990123 ]
  - [   0.0000314651988447,  0.0000200429931283,  0.0001150678726844 ]
  - [   0.0000030230730772, -0.0000352794304490, -0.0000285999849439 ]
  - [   0.0000031152740121,  0.0000160438939929, -0.0000052144750953 ]
  - [   0.0000004461035132,  0.0000135442242026,  0.0000071879476309 ]
  - [  -0.0000907424837351,  0.0001190472394228, -0.0002955803647637 ]
  - [   0.0000008624047041, -0.0000235205516219,  0.0000167312100530 ]
  - [  -0.0074021592736244, -0.0006280581001192, -0.0005971305072308 ]
  - [  -0.0075612850487232,  0.0000458795111626,  0.0003582872450352 ]
  - [  -0.0075940974056721,  0.0000373703369405,  0.0002368092536926 ]
  - [  -0.0076650828123093, -0.0001161331019830,  0.0001182071864605 ]
  - [  -0.0076296702027321,  0.0001554735354148,  0.0002096034586430 ]
  - [  -0.0076632238924503, -0.0000216525513679,  0.0002232305705547 ]
  - [  -0.0075939036905766, -0.0020369431003928,  0.0033884644508362 ]
  - [  -0.0075679123401642,  0.0001292095985264,  0.0003729388117790 ]
  - [  -0.0076608061790466,  0.0000375444069505,  0.0002398155629635 ]
  - [  -0.0076627172529697, -0.0000022409949452,  0.0003808885812759 ]
  - [  -0.0076382383704185, -0.0000157543072419,  0.0002276711165905 ]
  - [  -0.0076003000140190,  0.0000232527418120,  0.0001880526542664 ]
  - [  -0.0076128914952278, -0.0000664868275635,  0.0002052858471870 ]
  - [  -0.0076552107930183, -0.0000041504358705,  0.0002262182533741 ]
  - [  -0.0074912793934345,  0.0000826783943921,  0.0002986788749695 ]
  - [  -0.0076416023075581, -0.0000167984981090,  0.0001799799501896 ]
  - [   0.0002073869109154, -0.0037245289422572, -0.0002545490860939 ]
  - [   0.0064501054584980,  0.0008591522346251, -0.0001202262938023 ]
  - [   0.0077102594077587,  0.0001786216162145, -0.0002098642289639 ]
  - [   0.0076664835214615, -0.0000311207695631, -0.0002226270735264 ]
  - [   0.0077323317527771, -0.0000336086377501, -0.0002117156982422 ]
  - [   0.0076663903892040,  0.0001927537377924, -0.0002166554331779 ]
  - [   0.0062175989151001,  0.0006698205252178, -0.0002477616071701 ]
  - [   0.0019203051924706, -0.0032279090955853, -0.0001825802028179 ]
  - [   0.0076217651367188, -0.0000019930885173, -0.0002063959836960 ]
  - [   0.0076758600771427, -0.0000194157473743, -0.0002472773194313 ]
  - [   0.0076365843415260, -0.0000068407971412, -0.0002185180783272 ]
  - [   0.0076218657195568,  0.0000039094593376, -0.0002031922340393 ]
  - [   0.0076383985579014, -0.0000063864281401, -0.0002017393708229 ]
  - [   0.0076551176607609,  0.0000124138896354, -0.0002335831522942 ]
  - [   0.0076025128364563,  0.0000151377171278, -0.0002077184617519 ]
  - [   0.0075253397226334,  0.0000027974601835, -0.0002231113612652 ]
  - [   0.0000084804796643, -0.0000967752057477,  0.0001238784170710 ]
  - [   0.0000121063822007,  0.0001074153988156, -0.0001853820867836 ]
  - [   0.0000081645721366,  0.0000389877241105, -0.0001081017544493 ]
  - [   0.0000776234373916,  0.0000924691557884, -0.0000163878430612 ]
  - [  -0.0000360898338840,  0.0000231834128499,  0.0000117245363072 ]
  - [   0.0000018970458768, -0.0000106599181890,  0.0000010669464245 ]
  - [   0.0000232954535022, -0.0000034132972360,  0.0000006731133908 ]
  - [  -0.0000236841660808, -0.0000576823949814,  0.0000132778659463 ]
  - [   0.0000288614537567,  0.0000923667103052, -0.0001623567659408 ]
  - [  -0.0011651177192107, -0.0021064458414912, -0.0036001764237881 ]
  - [   0.0001652840001043,  0.0000386927276850, -0.0001603859709576 ]