phonopy:
  version: "2.37.1"
  frequency_unit_conversion_factor: 15.633302
  symmetry_tolerance: 1.00000e-05

space_group:
  type: "R-3m"
  number: 166
  Hall_symbol: "-R 3 2\""

primitive_matrix:
- [  0.000000000000000, -1.000000000000000,  0.000000000000000 ]
- [ -0.000000000000000, -0.000000000000000, -1.000000000000000 ]
- [  1.000000000000000,  1.000000000000000,  1.000000000000000 ]

supercell_matrix:
- [   3,   0,   0 ]
- [   0,   3,   0 ]
- [   0,   0,   2 ]

primitive_cell:
  lattice:
  - [     2.346279038010689,     1.354625272236434,     6.692347040132312 ] # a
  - [    -2.346278828716288,     1.354625272236434,     6.692347040132312 ] # b
  - [     0.000000079982493,    -2.709249122814017,     6.692347040132312 ] # c
  points:
  - symbol: Li # 1
    coordinates: [  0.499999993392256,  0.500000000376753,  0.500000000352467 ]
    mass: 6.940000
  - symbol: Li # 2
    coordinates: [  0.646663078187688,  0.646663077763550,  0.646663075742354 ]
    mass: 6.940000
  - symbol: Li # 3
    coordinates: [  0.353336924591850,  0.353336916505742,  0.353336918805927 ]
    mass: 6.940000
  - symbol: Li # 4
    coordinates: [  0.786550448159830,  0.786550436025632,  0.786550434533288 ]
    mass: 6.940000
  - symbol: Li # 5
    coordinates: [  0.213449565352335,  0.213449556491389,  0.213449562728718 ]
    mass: 6.940000
  - symbol: Sn # 6
    coordinates: [  0.927213853529261,  0.927213862455249,  0.927213857116151 ]
    mass: 118.710000
  - symbol: Sn # 7
    coordinates: [  0.072786136925720,  0.072786150481073,  0.072786150428620 ]
    mass: 118.710000
  reciprocal_lattice: # without 2pi
  - [     0.213103392307763,     0.123035297388334,     0.049808124486230 ] # a*
  - [    -0.213103392307763,     0.123035299975093,     0.049808130627164 ] # b*
  - [     0.000000000000000,    -0.246070597363427,     0.049808153693151 ] # c*

unit_cell:
  lattice:
  - [     4.692557866726978,     0.000000000000000,     0.000000000000000 ] # a
  - [     2.346278958028197,     4.063874395050450,     0.000000000000000 ] # b
  - [     2.346279038010689,     1.354625272236434,     6.692347040132312 ] # c
  points:
  - symbol: Li # 1
    coordinates: [  0.499999999623247,  0.499999999647533,  0.499999994121475 ]
    mass: 6.940000
    reduced_to: 1
  - symbol: Li # 2
    coordinates: [  0.353336922236450,  0.353336924257646,  0.939989231693591 ]
    mass: 6.940000
    reduced_to: 2
  - symbol: Li # 3
    coordinates: [  0.646663083494258,  0.646663081194073,  0.060010759903519 ]
    mass: 6.940000
    reduced_to: 3
  - symbol: Li # 4
    coordinates: [  0.213449563974368,  0.213449565466712,  0.359651318718751 ]
    mass: 6.940000
    reduced_to: 4
  - symbol: Li # 5
    coordinates: [  0.786550443508611,  0.786550437271282,  0.640348684572441 ]
    mass: 6.940000
    reduced_to: 5
  - symbol: Sn # 6
    coordinates: [  0.072786137544751,  0.072786142883849,  0.781641573100661 ]
    mass: 118.710000
    reduced_to: 6
  - symbol: Sn # 7
    coordinates: [  0.927213849518927,  0.927213849571380,  0.218358437835412 ]
    mass: 118.710000
    reduced_to: 7

supercell:
  lattice:
  - [    14.077673600180933,     0.000000000000000,     0.000000000000000 ] # a
  - [     7.038836874084589,    12.191623185151350,     0.000000000000000 ] # b
  - [     4.692558076021378,     2.709250544472868,    13.384694080264623 ] # c
  points:
  - symbol: Li # 1
    coordinates: [  0.166666666541082,  0.166666666549178,  0.249999997060737 ]
    mass: 6.940000
    reduced_to: 1
  - symbol: Li # 2
    coordinates: [  0.499999999874416,  0.166666666549178,  0.249999997060737 ]
    mass: 6.940000
    reduced_to: 1
  - symbol: Li # 3
    coordinates: [  0.833333333207749,  0.166666666549178,  0.249999997060737 ]
    mass: 6.940000
    reduced_to: 1
  - symbol: Li # 4
    coordinates: [  0.166666666541082,  0.499999999882511,  0.249999997060737 ]
    mass: 6.940000
    reduced_to: 1
  - symbol: Li # 5
    coordinates: [  0.499999999874416,  0.499999999882511,  0.249999997060737 ]
    mass: 6.940000
    reduced_to: 1
  - symbol: Li # 6
    coordinates: [  0.833333333207749,  0.499999999882511,  0.249999997060737 ]
    mass: 6.940000
    reduced_to: 1
  - symbol: Li # 7
    coordinates: [  0.166666666541082,  0.833333333215844,  0.249999997060737 ]
    mass: 6.940000
    reduced_to: 1
  - symbol: Li # 8
    coordinates: [  0.499999999874416,  0.833333333215844,  0.249999997060737 ]
    mass: 6.940000
    reduced_to: 1
  - symbol: Li # 9
    coordinates: [  0.833333333207749,  0.833333333215844,  0.249999997060737 ]
    mass: 6.940000
    reduced_to: 1
  - symbol: Li # 10
    coordinates: [  0.166666666541082,  0.166666666549178,  0.749999997060737 ]
    mass: 6.940000
    reduced_to: 1
  - symbol: Li # 11
    coordinates: [  0.499999999874416,  0.166666666549178,  0.749999997060737 ]
    mass: 6.940000
    reduced_to: 1
  - symbol: Li # 12
    coordinates: [  0.833333333207749,  0.166666666549178,  0.749999997060737 ]
    mass: 6.940000
    reduced_to: 1
  - symbol: Li # 13
    coordinates: [  0.166666666541082,  0.499999999882511,  0.749999997060737 ]
    mass: 6.940000
    reduced_to: 1
  - symbol: Li # 14
    coordinates: [  0.499999999874416,  0.499999999882511,  0.749999997060737 ]
    mass: 6.940000
    reduced_to: 1
  - symbol: Li # 15
    coordinates: [  0.833333333207749,  0.499999999882511,  0.749999997060737 ]
    mass: 6.940000
    reduced_to: 1
  - symbol: Li # 16
    coordinates: [  0.166666666541082,  0.833333333215844,  0.749999997060737 ]
    mass: 6.940000
    reduced_to: 1
  - symbol: Li # 17
    coordinates: [  0.499999999874416,  0.833333333215844,  0.749999997060737 ]
    mass: 6.940000
    reduced_to: 1
  - symbol: Li # 18
    coordinates: [  0.833333333207749,  0.833333333215844,  0.749999997060737 ]
    mass: 6.940000
    reduced_to: 1
  - symbol: Li # 19
    coordinates: [  0.117778974078817,  0.117778974752549,  0.469994615846796 ]
    mass: 6.940000
    reduced_to: 19
  - symbol: Li # 20
    coordinates: [  0.451112307412150,  0.117778974752549,  0.469994615846796 ]
    mass: 6.940000
    reduced_to: 19
  - symbol: Li # 21
    coordinates: [  0.784445640745483,  0.117778974752549,  0.469994615846796 ]
    mass: 6.940000
    reduced_to: 19
  - symbol: Li # 22
    coordinates: [  0.117778974078817,  0.451112308085882,  0.469994615846796 ]
    mass: 6.940000
    reduced_to: 19
  - symbol: Li # 23
    coordinates: [  0.451112307412150,  0.451112308085882,  0.469994615846796 ]
    mass: 6.940000
    reduced_to: 19
  - symbol: Li # 24
    coordinates: [  0.784445640745483,  0.451112308085882,  0.469994615846796 ]
    mass: 6.940000
    reduced_to: 19
  - symbol: Li # 25
    coordinates: [  0.117778974078817,  0.784445641419215,  0.469994615846796 ]
    mass: 6.940000
    reduced_to: 19
  - symbol: Li # 26
    coordinates: [  0.451112307412150,  0.784445641419215,  0.469994615846796 ]
    mass: 6.940000
    reduced_to: 19
  - symbol: Li # 27
    coordinates: [  0.784445640745483,  0.784445641419215,  0.469994615846796 ]
    mass: 6.940000
    reduced_to: 19
  - symbol: Li # 28
    coordinates: [  0.117778974078817,  0.117778974752549,  0.969994615846796 ]
    mass: 6.940000
    reduced_to: 19
  - symbol: Li # 29
    coordinates: [  0.451112307412150,  0.117778974752549,  0.969994615846796 ]
    mass: 6.940000
    reduced_to: 19
  - symbol: Li # 30
    coordinates: [  0.784445640745483,  0.117778974752549,  0.969994615846796 ]
    mass: 6.940000
    reduced_to: 19
  - symbol: Li # 31
    coordinates: [  0.117778974078817,  0.451112308085882,  0.969994615846796 ]
    mass: 6.940000
    reduced_to: 19
  - symbol: Li # 32
    coordinates: [  0.451112307412150,  0.451112308085882,  0.969994615846796 ]
    mass: 6.940000
    reduced_to: 19
  - symbol: Li # 33
    coordinates: [  0.784445640745483,  0.451112308085882,  0.969994615846796 ]
    mass: 6.940000
    reduced_to: 19
  - symbol: Li # 34
    coordinates: [  0.117778974078817,  0.784445641419215,  0.969994615846796 ]
    mass: 6.940000
    reduced_to: 19
  - symbol: Li # 35
    coordinates: [  0.451112307412150,  0.784445641419215,  0.969994615846796 ]
    mass: 6.940000
    reduced_to: 19
  - symbol: Li # 36
    coordinates: [  0.784445640745483,  0.784445641419215,  0.969994615846796 ]
    mass: 6.940000
    reduced_to: 19
  - symbol: Li # 37
    coordinates: [  0.215554361164753,  0.215554360398024,  0.030005379951760 ]
    mass: 6.940000
    reduced_to: 37
  - symbol: Li # 38
    coordinates: [  0.548887694498086,  0.215554360398024,  0.030005379951760 ]
    mass: 6.940000
    reduced_to: 37
  - symbol: Li # 39
    coordinates: [  0.882221027831419,  0.215554360398024,  0.030005379951760 ]
    mass: 6.940000
    reduced_to: 37
  - symbol: Li # 40
    coordinates: [  0.215554361164753,  0.548887693731358,  0.030005379951760 ]
    mass: 6.940000
    reduced_to: 37
  - symbol: Li # 41
    coordinates: [  0.548887694498086,  0.548887693731358,  0.030005379951760 ]
    mass: 6.940000
    reduced_to: 37
  - symbol: Li # 42
    coordinates: [  0.882221027831419,  0.548887693731358,  0.030005379951760 ]
    mass: 6.940000
    reduced_to: 37
  - symbol: Li # 43
    coordinates: [  0.215554361164753,  0.882221027064691,  0.030005379951760 ]
    mass: 6.940000
    reduced_to: 37
  - symbol: Li # 44
    coordinates: [  0.548887694498086,  0.882221027064691,  0.030005379951760 ]
    mass: 6.940000
    reduced_to: 37
  - symbol: Li # 45
    coordinates: [  0.882221027831419,  0.882221027064691,  0.030005379951760 ]
    mass: 6.940000
    reduced_to: 37
  - symbol: Li # 46
    coordinates: [  0.215554361164753,  0.215554360398024,  0.530005379951760 ]
    mass: 6.940000
    reduced_to: 37
  - symbol: Li # 47
    coordinates: [  0.548887694498086,  0.215554360398024,  0.530005379951760 ]
    mass: 6.940000
    reduced_to: 37
  - symbol: Li # 48
    coordinates: [  0.882221027831419,  0.215554360398024,  0.530005379951760 ]
    mass: 6.940000
    reduced_to: 37
  - symbol: Li # 49
    coordinates: [  0.215554361164753,  0.548887693731358,  0.530005379951760 ]
    mass: 6.940000
    reduced_to: 37
  - symbol: Li # 50
    coordinates: [  0.548887694498086,  0.548887693731358,  0.530005379951760 ]
    mass: 6.940000
    reduced_to: 37
  - symbol: Li # 51
    coordinates: [  0.882221027831419,  0.548887693731358,  0.530005379951760 ]
    mass: 6.940000
    reduced_to: 37
  - symbol: Li # 52
    coordinates: [  0.215554361164753,  0.882221027064691,  0.530005379951760 ]
    mass: 6.940000
    reduced_to: 37
  - symbol: Li # 53
    coordinates: [  0.548887694498086,  0.882221027064691,  0.530005379951760 ]
    mass: 6.940000
    reduced_to: 37
  - symbol: Li # 54
    coordinates: [  0.882221027831419,  0.882221027064691,  0.530005379951760 ]
    mass: 6.940000
    reduced_to: 37
  - symbol: Li # 55
    coordinates: [  0.071149854658123,  0.071149855155571,  0.179825659359375 ]
    mass: 6.940000
    reduced_to: 55
  - symbol: Li # 56
    coordinates: [  0.404483187991456,  0.071149855155571,  0.179825659359375 ]
    mass: 6.940000
    reduced_to: 55
  - symbol: Li # 57
    coordinates: [  0.737816521324789,  0.071149855155571,  0.179825659359375 ]
    mass: 6.940000
    reduced_to: 55
  - symbol: Li # 58
    coordinates: [  0.071149854658123,  0.404483188488904,  0.179825659359375 ]
    mass: 6.940000
    reduced_to: 55
  - symbol: Li # 59
    coordinates: [  0.404483187991456,  0.404483188488904,  0.179825659359375 ]
    mass: 6.940000
    reduced_to: 55
  - symbol: Li # 60
    coordinates: [  0.737816521324789,  0.404483188488904,  0.179825659359375 ]
    mass: 6.940000
    reduced_to: 55
  - symbol: Li # 61
    coordinates: [  0.071149854658123,  0.737816521822237,  0.179825659359375 ]
    mass: 6.940000
    reduced_to: 55
  - symbol: Li # 62
    coordinates: [  0.404483187991456,  0.737816521822237,  0.179825659359375 ]
    mass: 6.940000
    reduced_to: 55
  - symbol: Li # 63
    coordinates: [  0.737816521324789,  0.737816521822237,  0.179825659359375 ]
    mass: 6.940000
    reduced_to: 55
  - symbol: Li # 64
    coordinates: [  0.071149854658123,  0.071149855155571,  0.679825659359375 ]
    mass: 6.940000
    reduced_to: 55
  - symbol: Li # 65
    coordinates: [  0.404483187991456,  0.071149855155571,  0.679825659359375 ]
    mass: 6.940000
    reduced_to: 55
  - symbol: Li # 66
    coordinates: [  0.737816521324789,  0.071149855155571,  0.679825659359375 ]
    mass: 6.940000
    reduced_to: 55
  - symbol: Li # 67
    coordinates: [  0.071149854658123,  0.404483188488904,  0.679825659359375 ]
    mass: 6.940000
    reduced_to: 55
  - symbol: Li # 68
    coordinates: [  0.404483187991456,  0.404483188488904,  0.679825659359375 ]
    mass: 6.940000
    reduced_to: 55
  - symbol: Li # 69
    coordinates: [  0.737816521324789,  0.404483188488904,  0.679825659359375 ]
    mass: 6.940000
    reduced_to: 55
  - symbol: Li # 70
    coordinates: [  0.071149854658123,  0.737816521822237,  0.679825659359375 ]
    mass: 6.940000
    reduced_to: 55
  - symbol: Li # 71
    coordinates: [  0.404483187991456,  0.737816521822237,  0.679825659359375 ]
    mass: 6.940000
    reduced_to: 55
  - symbol: Li # 72
    coordinates: [  0.737816521324789,  0.737816521822237,  0.679825659359375 ]
    mass: 6.940000
    reduced_to: 55
  - symbol: Li # 73
    coordinates: [  0.262183481169537,  0.262183479090427,  0.320174342286220 ]
    mass: 6.940000
    reduced_to: 73
  - symbol: Li # 74
    coordinates: [  0.595516814502870,  0.262183479090427,  0.320174342286220 ]
    mass: 6.940000
    reduced_to: 73
  - symbol: Li # 75
    coordinates: [  0.928850147836204,  0.262183479090427,  0.320174342286220 ]
    mass: 6.940000
    reduced_to: 73
  - symbol: Li # 76
    coordinates: [  0.262183481169537,  0.595516812423761,  0.320174342286220 ]
    mass: 6.940000
    reduced_to: 73
  - symbol: Li # 77
    coordinates: [  0.595516814502870,  0.595516812423761,  0.320174342286220 ]
    mass: 6.940000
    reduced_to: 73
  - symbol: Li # 78
    coordinates: [  0.928850147836204,  0.595516812423761,  0.320174342286220 ]
    mass: 6.940000
    reduced_to: 73
  - symbol: Li # 79
    coordinates: [  0.262183481169537,  0.928850145757094,  0.320174342286220 ]
    mass: 6.940000
    reduced_to: 73
  - symbol: Li # 80
    coordinates: [  0.595516814502870,  0.928850145757094,  0.320174342286220 ]
    mass: 6.940000
    reduced_to: 73
  - symbol: Li # 81
    coordinates: [  0.928850147836204,  0.928850145757094,  0.320174342286220 ]
    mass: 6.940000
    reduced_to: 73
  - symbol: Li # 82
    coordinates: [  0.262183481169537,  0.262183479090427,  0.820174342286220 ]
    mass: 6.940000
    reduced_to: 73
  - symbol: Li # 83
    coordinates: [  0.595516814502870,  0.262183479090427,  0.820174342286220 ]
    mass: 6.940000
    reduced_to: 73
  - symbol: Li # 84
    coordinates: [  0.928850147836204,  0.262183479090427,  0.820174342286220 ]
    mass: 6.940000
    reduced_to: 73
  - symbol: Li # 85
    coordinates: [  0.262183481169537,  0.595516812423761,  0.820174342286220 ]
    mass: 6.940000
    reduced_to: 73
  - symbol: Li # 86
    coordinates: [  0.595516814502870,  0.595516812423761,  0.820174342286220 ]
    mass: 6.940000
    reduced_to: 73
  - symbol: Li # 87
    coordinates: [  0.928850147836204,  0.595516812423761,  0.820174342286220 ]
    mass: 6.940000
    reduced_to: 73
  - symbol: Li # 88
    coordinates: [  0.262183481169537,  0.928850145757094,  0.820174342286220 ]
    mass: 6.940000
    reduced_to: 73
  - symbol: Li # 89
    coordinates: [  0.595516814502870,  0.928850145757094,  0.820174342286220 ]
    mass: 6.940000
    reduced_to: 73
  - symbol: Li # 90
    coordinates: [  0.928850147836204,  0.928850145757094,  0.820174342286220 ]
    mass: 6.940000
    reduced_to: 73
  - symbol: Sn # 91
    coordinates: [  0.024262045848250,  0.024262047627950,  0.390820786550331 ]
    mass: 118.710000
    reduced_to: 91
  - symbol: Sn # 92
    coordinates: [  0.357595379181584,  0.024262047627950,  0.390820786550331 ]
    mass: 118.710000
    reduced_to: 91
  - symbol: Sn # 93
    coordinates: [  0.690928712514917,  0.024262047627950,  0.390820786550331 ]
    mass: 118.710000
    reduced_to: 91
  - symbol: Sn # 94
    coordinates: [  0.024262045848250,  0.357595380961283,  0.390820786550331 ]
    mass: 118.710000
    reduced_to: 91
  - symbol: Sn # 95
    coordinates: [  0.357595379181584,  0.357595380961283,  0.390820786550331 ]
    mass: 118.710000
    reduced_to: 91
  - symbol: Sn # 96
    coordinates: [  0.690928712514917,  0.357595380961283,  0.390820786550331 ]
    mass: 118.710000
    reduced_to: 91
  - symbol: Sn # 97
    coordinates: [  0.024262045848250,  0.690928714294616,  0.390820786550331 ]
    mass: 118.710000
    reduced_to: 91
  - symbol: Sn # 98
    coordinates: [  0.357595379181584,  0.690928714294616,  0.390820786550331 ]
    mass: 118.710000
    reduced_to: 91
  - symbol: Sn # 99
    coordinates: [  0.690928712514917,  0.690928714294616,  0.390820786550331 ]
    mass: 118.710000
    reduced_to: 91
  - symbol: Sn # 100
    coordinates: [  0.024262045848250,  0.024262047627950,  0.890820786550331 ]
    mass: 118.710000
    reduced_to: 91
  - symbol: Sn # 101
    coordinates: [  0.357595379181584,  0.024262047627950,  0.890820786550331 ]
    mass: 118.710000
    reduced_to: 91
  - symbol: Sn # 102
    coordinates: [  0.690928712514917,  0.024262047627950,  0.890820786550331 ]
    mass: 118.710000
    reduced_to: 91
  - symbol: Sn # 103
    coordinates: [  0.024262045848250,  0.357595380961283,  0.890820786550331 ]
    mass: 118.710000
    reduced_to: 91
  - symbol: Sn # 104
    coordinates: [  0.357595379181584,  0.357595380961283,  0.890820786550331 ]
    mass: 118.710000
    reduced_to: 91
  - symbol: Sn # 105
    coordinates: [  0.690928712514917,  0.357595380961283,  0.890820786550331 ]
    mass: 118.710000
    reduced_to: 91
  - symbol: Sn # 106
    coordinates: [  0.024262045848250,  0.690928714294616,  0.890820786550331 ]
    mass: 118.710000
    reduced_to: 91
  - symbol: Sn # 107
    coordinates: [  0.357595379181584,  0.690928714294616,  0.890820786550331 ]
    mass: 118.710000
    reduced_to: 91
  - symbol: Sn # 108
    coordinates: [  0.690928712514917,  0.690928714294616,  0.890820786550331 ]
    mass: 118.710000
    reduced_to: 91
  - symbol: Sn # 109
    coordinates: [  0.309071283172976,  0.309071283190460,  0.109179218917706 ]
    mass: 118.710000
    reduced_to: 109
  - symbol: Sn # 110
    coordinates: [  0.642404616506309,  0.309071283190460,  0.109179218917706 ]
    mass: 118.710000
    reduced_to: 109
  - symbol: Sn # 111
    coordinates: [  0.975737949839642,  0.309071283190460,  0.109179218917706 ]
    mass: 118.710000
    reduced_to: 109
  - symbol: Sn # 112
    coordinates: [  0.309071283172976,  0.642404616523793,  0.109179218917706 ]
    mass: 118.710000
    reduced_to: 109
  - symbol: Sn # 113
    coordinates: [  0.642404616506309,  0.642404616523793,  0.109179218917706 ]
    mass: 118.710000
    reduced_to: 109
  - symbol: Sn # 114
    coordinates: [  0.975737949839642,  0.642404616523793,  0.109179218917706 ]
    mass: 118.710000
    reduced_to: 109
  - symbol: Sn # 115
    coordinates: [  0.309071283172976,  0.975737949857127,  0.109179218917706 ]
    mass: 118.710000
    reduced_to: 109
  - symbol: Sn # 116
    coordinates: [  0.642404616506309,  0.975737949857127,  0.109179218917706 ]
    mass: 118.710000
    reduced_to: 109
  - symbol: Sn # 117
    coordinates: [  0.975737949839642,  0.975737949857127,  0.109179218917706 ]
    mass: 118.710000
    reduced_to: 109
  - symbol: Sn # 118
    coordinates: [  0.309071283172976,  0.309071283190460,  0.609179218917706 ]
    mass: 118.710000
    reduced_to: 109
  - symbol: Sn # 119
    coordinates: [  0.642404616506309,  0.309071283190460,  0.609179218917706 ]
    mass: 118.710000
    reduced_to: 109
  - symbol: Sn # 120
    coordinates: [  0.975737949839642,  0.309071283190460,  0.609179218917706 ]
    mass: 118.710000
    reduced_to: 109
  - symbol: Sn # 121
    coordinates: [  0.309071283172976,  0.642404616523793,  0.609179218917706 ]
    mass: 118.710000
    reduced_to: 109
  - symbol: Sn # 122
    coordinates: [  0.642404616506309,  0.642404616523793,  0.609179218917706 ]
    mass: 118.710000
    reduced_to: 109
  - symbol: Sn # 123
    coordinates: [  0.975737949839642,  0.642404616523793,  0.609179218917706 ]
    mass: 118.710000
    reduced_to: 109
  - symbol: Sn # 124
    coordinates: [  0.309071283172976,  0.975737949857127,  0.609179218917706 ]
    mass: 118.710000
    reduced_to: 109
  - symbol: Sn # 125
    coordinates: [  0.642404616506309,  0.975737949857127,  0.609179218917706 ]
    mass: 118.710000
    reduced_to: 109
  - symbol: Sn # 126
    coordinates: [  0.975737949839642,  0.975737949857127,  0.609179218917706 ]
    mass: 118.710000
    reduced_to: 109

displacements:
- atom:    1
  displacement:
    [   0.0100000000000000,  0.0000000000000000,  0.0000000000000000 ]
  forces:
  - [  -0.0125624183565378,  0.0000007227063179,  0.0000000678119250 ]
  - [   0.0003906884812750,  0.0000007075723261, -0.0000000335276127 ]
  - [   0.0003611842985265,  0.0000006605405360, -0.0000001899898052 ]
  - [   0.0000390223576687,  0.0001984752016142,  0.0001895161694847 ]
  - [   0.0000302519765683,  0.0000002903689165,  0.0000002980814315 ]
  - [   0.0000373102375306, -0.0001922894152813, -0.0001874911249615 ]
  - [   0.0000366624444723,  0.0001922405790538,  0.0001878330949694 ]
  - [   0.0000388766638935, -0.0001985036360566, -0.0001890591811389 ]
  - [   0.0000305245630443, -0.0000007773342077,  0.0000004741596058 ]
  - [  -0.0000127930870804, -0.0000837976112962, -0.0000855587422848 ]
  - [   0.0000066157590481,  0.0000429458450526,  0.0000418610870838 ]
  - [   0.0000067583023338,  0.0000424159225076,  0.0000424925237894 ]
  - [   0.0000680342782289,  0.0000064952764660,  0.0000001955777407 ]
  - [  -0.0000329567119479, -0.0000238977372646,  0.0000391770154238 ]
  - [  -0.0000359767582268,  0.0000180338975042, -0.0000407975167036 ]
  - [   0.0000681430101395,  0.0000065322965384,  0.0000008624047041 ]
  - [  -0.0000353455543518,  0.0000173114240170, -0.0000408794730902 ]
  - [  -0.0000317692756653, -0.0000236928462982,  0.0000399332493544 ]
  - [  -0.0001820895122364,  0.0000016236444935,  0.0253515858203173 ]
  - [   0.0000633593881503, -0.0000332773197442,  0.0254738330841064 ]
  - [   0.0000636240001768,  0.0000335341319442,  0.0252400226891041 ]
  - [   0.0000392248912249,  0.0000103287165985,  0.0253749340772629 ]
  - [   0.0000021761304652,  0.0000004691537470,  0.0253549423068762 ]
  - [   0.0000405961509387, -0.0000110118417069,  0.0253383200615644 ]
  - [   0.0000709982632543, -0.0000000000000000,  0.0252574179321527 ]
  - [   0.0000710978056304,  0.0000016241101548,  0.0254558473825455 ]
  - [  -0.0000119577998703, -0.0000004278263077,  0.0253561772406101 ]
  - [  -0.0000175650930032,  0.0001099754590541,  0.0254266187548637 ]
  - [  -0.0000152887078002, -0.0001099600922316,  0.0252873897552490 ]
  - [   0.0000532906269655,  0.0000005096662790,  0.0253563113510609 ]
  - [  -0.0002055217482848,  0.0000008287606761,  0.0253567788749933 ]
  - [  -0.0001077757915482, -0.0000520185567439,  0.0253452565521002 ]
  - [  -0.0001063613308361,  0.0000528125092387,  0.0253686606884003 ]
  - [   0.0000063790939748,  0.0000264289556071,  0.0253562089055777 ]
  - [  -0.0000148170292960,  0.0000000674044713,  0.0253570117056370 ]
  - [   0.0000078480807133, -0.0000253251055256,  0.0253569707274437 ]
  - [  -0.0001825763611123, -0.0000004132743925, -0.0253519639372826 ]
  - [   0.0000644203973934,  0.0000336712691933, -0.0254746619611979 ]
  - [   0.0000621092040092, -0.0000335635850206, -0.0252408087253571 ]
  - [   0.0000701271928847, -0.0000025096815079, -0.0254560410976410 ]
  - [  -0.0000131956767291, -0.0000009080395103, -0.0253568589687347 ]
  - [   0.0000718889641576, -0.0000012605451047, -0.0252579450607300 ]
  - [   0.0000393784139305,  0.0000114771537483, -0.0253369919955730 ]
  - [   0.0000383895821869, -0.0000099976896308, -0.0253736209124327 ]
  - [   0.0000021827872843,  0.0000003069289960, -0.0253581218421459 ]
  - [  -0.0000162807700690,  0.0001118336804211, -0.0252863205969334 ]
  - [   0.0000522083137184,  0.0000007650814950, -0.0253567267209291 ]
  - [  -0.0000165122037288, -0.0001077038468793, -0.0254252515733242 ]
  - [   0.0000065668718889,  0.0000263472320512, -0.0253568943589926 ]
  - [   0.0000064449850470, -0.0000252841273323, -0.0253561697900295 ]
  - [  -0.0000160593772307,  0.0000007898779586, -0.0253555364906788 ]
  - [  -0.0002064221771434,  0.0000002219458111, -0.0253554508090019 ]
  - [  -0.0001071704900824,  0.0000529083772562, -0.0253451727330685 ]
  - [  -0.0001066005206667, -0.0000521789770573, -0.0253688171505928 ]
  - [   0.0028338348492980,  0.0019027774687856,  0.0250041857361794 ]
  - [   0.0028875293210149, -0.0019465854857117,  0.0217265840619802 ]
  - [   0.0000095035647973,  0.0000012652017176,  0.0233812388032675 ]
  - [  -0.0004729710053653, -0.0000071556423791,  0.0233863629400730 ]
  - [   0.0001140866079368,  0.0000705132260919,  0.0233191903680563 ]
  - [   0.0001107444986701, -0.0000709263840690,  0.0234421491622925 ]
  - [  -0.0000039151636884,  0.0000071635004133,  0.0233753006905317 ]
  - [  -0.0000096496660262,  0.0000001662410796,  0.0233803596347570 ]
  - [  -0.0000015703262761, -0.0000074366107583,  0.0233841575682163 ]
  - [   0.0001378774177283,  0.0000026763882488,  0.0233936905860901 ]
  - [  -0.0000762536656111, -0.0000506064388901,  0.0233662799000740 ]
  - [  -0.0000742133706808,  0.0000498173758388,  0.0233838222920895 ]
  - [  -0.0000095102586783, -0.0000001438893378,  0.0233903955668211 ]
  - [   0.0000109550892375, -0.0000000926083885,  0.0233787447214127 ]
  - [  -0.0000009064679034,  0.0000000645522960,  0.0233748275786638 ]
  - [   0.0000018168939278, -0.0000852951779962,  0.0234020520001650 ]
  - [   0.0000041581806727,  0.0000855751568452,  0.0233578644692898 ]
  - [  -0.0000077558215708, -0.0000028658541851,  0.0233828257769346 ]
  - [   0.0028873505070806,  0.0019467102829367, -0.0217269510030746 ]
  - [   0.0000101039186120, -0.0000008065253496, -0.0233815833926201 ]
  - [   0.0028347270563245, -0.0019029323011637, -0.0250046774744987 ]
  - [  -0.0000022260937840,  0.0000068973749876, -0.0233850348740816 ]
  - [  -0.0000038612633944, -0.0000077006407082, -0.0233764015138149 ]
  - [  -0.0000097735319287, -0.0000002873130143, -0.0233811736106873 ]
  - [  -0.0004724506288767,  0.0000055946875364, -0.0233859885483980 ]
  - [   0.0001150947064161, -0.0000725872814655, -0.0233188234269619 ]
  - [   0.0001120273955166,  0.0000691683962941, -0.0234420076012611 ]
  - [   0.0001379321911372,  0.0000023010652512, -0.0233681276440620 ]
  - [  -0.0000743535929359,  0.0000488385558128, -0.0233761891722679 ]
  - [  -0.0000767004094087, -0.0000521057518199, -0.0233943853527308 ]
  - [   0.0000019436120056, -0.0000853949459270, -0.0233584977686405 ]
  - [  -0.0000058293226175, -0.0000022530439310, -0.0233772583305836 ]
  - [   0.0000053939875215,  0.0000859336578287, -0.0234021749347448 ]
  - [  -0.0000099937315099, -0.0000007610069588, -0.0233702100813389 ]
  - [  -0.0000013198587112, -0.0000010881340131, -0.0233854465186596 ]
  - [   0.0000110929831862, -0.0000010327203199, -0.0233815908432007 ]
  - [  -0.0001231464557350, -0.0007458350737579, -0.3585699200630188 ]
  - [  -0.0000784048461355,  0.0007267626351677, -0.3611176013946533 ]
  - [  -0.0001387018855894,  0.0000013928147382, -0.3598589897155762 ]
  - [   0.0011749716941267, -0.0000003561143558, -0.3598585724830627 ]
  - [  -0.0001706962939352, -0.0001172043412225, -0.3599574267864227 ]
  - [  -0.0001733393874019,  0.0001187783345813, -0.3597598373889923 ]
  - [  -0.0000312115298584, -0.0000619536294835, -0.3598513007164001 ]
  - [   0.0000339964171872, -0.0000002550586942, -0.3598578870296478 ]
  - [  -0.0000309660536004,  0.0000628051129752, -0.3598629236221313 ]
  - [  -0.0000334708020091, -0.0000099076423794, -0.3598431646823883 ]
  - [   0.0000323425047100,  0.0000060517340899, -0.3598570823669434 ]
  - [  -0.0000095777213573,  0.0000039914157242, -0.3598830699920654 ]
  - [   0.0000781565904617, -0.0000295366626233, -0.3594629168510437 ]
  - [   0.0000742976553738,  0.0000305657740682, -0.3602577149868011 ]
  - [  -0.0000180462375283, -0.0000014596153051, -0.3598580956459045 ]
  - [  -0.0000011990778148,  0.0000083385966718, -0.3598651885986328 ]
  - [  -0.0000019907020032, -0.0000195179600269, -0.3598523736000061 ]
  - [   0.0000024689361453,  0.0000115127768368, -0.3598605692386627 ]
  - [  -0.0000783684663475, -0.0007272372022271,  0.3611192405223846 ]
  - [  -0.0001376550644636, -0.0000012451782823,  0.3598601222038269 ]
  - [  -0.0001223231665790,  0.0007457965984941,  0.3585721850395203 ]
  - [  -0.0000300630927086, -0.0000614244490862,  0.3598668575286865 ]
  - [  -0.0000312337651849,  0.0000622821971774,  0.3598553240299225 ]
  - [   0.0000336021184921,  0.0000005541369319,  0.3598596155643463 ]
  - [   0.0011754017323256,  0.0000005271285772,  0.3598626255989075 ]
  - [  -0.0001705596223474,  0.0001177070662379,  0.3599583506584167 ]
  - [  -0.0001718164421618, -0.0001186560839415,  0.3597607612609863 ]
  - [  -0.0000327653251588, -0.0000114957801998,  0.3598743677139282 ]
  - [  -0.0000088191591203,  0.0000026447232813,  0.3598351180553436 ]
  - [   0.0000325054861605,  0.0000042698811740,  0.3598612248897552 ]
  - [  -0.0000003534369171,  0.0000088587403297,  0.3598500192165375 ]
  - [   0.0000030952505767,  0.0000114003196359,  0.3598546981811523 ]
  - [  -0.0000018710270524, -0.0000198846682906,  0.3598633408546448 ]
  - [   0.0000773258507252, -0.0000296253710985,  0.3602537512779236 ]
  - [  -0.0000186031684279, -0.0000012805685401,  0.3598573207855225 ]
  - [   0.0000751866027713,  0.0000306814908981,  0.3594565987586975 ]
- atom:    1
  displacement: