# Thermal properties / unit cell (natom)

unit:
  temperature:   K
  free_energy:   kJ/mol
  entropy:       J/K/mol
  heat_capacity: J/K/mol

natom: 7    
cutoff_frequency: 0.00000
num_modes: 328125
num_integrated_modes: 328124

zero_point_energy:      25.7546516

thermal_properties:
- temperature:         0.0000000
  free_energy:        25.7546516
  entropy:             0.0000000
  heat_capacity:       0.0000000
  energy:             25.7546516

- temperature:        10.0000000
  free_energy:        25.7508913
  entropy:             1.5801740
  heat_capacity:       4.9605343
  energy:             25.7666931

- temperature:        20.0000000
  free_energy:        25.6988698
  entropy:             9.6295846
  heat_capacity:      19.7001785
  energy:             25.8914615

- temperature:        30.0000000
  free_energy:        25.5521873
  entropy:            19.7287945
  heat_capacity:      30.1394652
  energy:             26.1440511

- temperature:        40.0000000
  free_energy:        25.3054529
  entropy:            29.5395000
  heat_capacity:      38.3377226
  energy:             26.4870329

- temperature:        50.0000000
  free_energy:        24.9626960
  entropy:            38.9657564
  heat_capacity:      46.5346383
  energy:             26.9109839

- temperature:        60.0000000
  free_energy:        24.5267092
  entropy:            48.2173206
  heat_capacity:      55.3159629
  energy:             27.4197484

- temperature:        70.0000000
  free_energy:        23.9984572
  entropy:            57.4333341
  heat_capacity:      64.5371314
  energy:             28.0187906

- temperature:        80.0000000
  free_energy:        23.3780034
  entropy:            66.6590987
  heat_capacity:      73.8315161
  energy:             28.7107313

- temperature:        90.0000000
  free_energy:        22.6652887
  entropy:            75.8799578
  heat_capacity:      82.8487862
  energy:             29.4944849

- temperature:       100.0000000
  free_energy:        21.8605603
  entropy:            85.0538198
  heat_capacity:      91.3403664
  energy:             30.3659423

- temperature:       110.0000000
  free_energy:        20.9645315
  entropy:            94.1321135
  heat_capacity:      99.1663158
  energy:             31.3190640

- temperature:       120.0000000
  free_energy:        19.9783850
  entropy:           103.0706431
  heat_capacity:     106.2722043
  energy:             32.3468621

- temperature:       130.0000000
  free_energy:        18.9037038
  entropy:           111.8339259
  heat_capacity:     112.6610503
  energy:             33.4421142

- temperature:       140.0000000
  free_energy:        17.7423782
  entropy:           120.3959762
  heat_capacity:     118.3699684
  energy:             34.5978149

- temperature:       150.0000000
  free_energy:        16.4965138
  entropy:           128.7394313
  heat_capacity:     123.4535574
  energy:             35.8074285

- temperature:       160.0000000
  free_energy:        15.1683529
  entropy:           136.8540824
  heat_capacity:     127.9731592
  energy:             37.0650060

- temperature:       170.0000000
  free_energy:        13.7602106
  entropy:           144.7353353
  heat_capacity:     131.9904255
  energy:             38.3652176

- temperature:       180.0000000
  free_energy:        12.2744257
  entropy:           152.3828317
  heat_capacity:     135.5637734
  energy:             39.7033354

- temperature:       190.0000000
  free_energy:        10.7133243
  entropy:           159.7993047
  heat_capacity:     138.7466657
  energy:             41.0751922

- temperature:       200.0000000
  free_energy:         9.0791935
  entropy:           166.9896699
  heat_capacity:     141.5869852
  energy:             42.4771274

- temperature:       210.0000000
  free_energy:         7.3742633
  entropy:           173.9603247
  heat_capacity:     144.1270326
  energy:             43.9059315

- temperature:       220.0000000
  free_energy:         5.6006949
  entropy:           180.7186195
  heat_capacity:     146.4038531
  energy:             45.3587912

- temperature:       230.0000000
  free_energy:         3.7605725
  entropy:           187.2724640
  heat_capacity:     148.4497160
  energy:             46.8332392

- temperature:       240.0000000
  free_energy:         1.8558998
  entropy:           193.6300401
  heat_capacity:     150.2926445
  energy:             48.3271095

- temperature:       250.0000000
  free_energy:        -0.1114016
  entropy:           199.7995944
  heat_capacity:     151.9569386
  energy:             49.8384970

- temperature:       260.0000000
  free_energy:        -2.1394925
  entropy:           205.7892918
  heat_capacity:     153.4636634
  energy:             51.3657233

- temperature:       270.0000000
  free_energy:        -4.2266145
  entropy:           211.6071139
  heat_capacity:     154.8310886
  energy:             52.9073062

- temperature:       280.0000000
  free_energy:        -6.3710877
  entropy:           217.2607913
  heat_capacity:     156.0750768
  energy:             54.4619339

- temperature:       290.0000000
  free_energy:        -8.5713080
  entropy:           222.7577604
  heat_capacity:     157.2094214
  energy:             56.0284425

- temperature:       300.0000000
  free_energy:       -10.8257443
  entropy:           228.1051378
  heat_capacity:     158.2461382
  energy:             57.6057970

- temperature:       310.0000000
  free_energy:       -13.1329348
  entropy:           233.3097088
  heat_capacity:     159.1957156
  energy:             59.1930749

- temperature:       320.0000000
  free_energy:       -15.4914840
  entropy:           238.3779237
  heat_capacity:     160.0673284
  energy:             60.7894516

- temperature:       330.0000000
  free_energy:       -17.9000592
  entropy:           243.3159022
  heat_capacity:     160.8690205
  energy:             62.3941885

- temperature:       340.0000000
  free_energy:       -20.3573873
  entropy:           248.1294408
  heat_capacity:     161.6078605
  energy:             64.0066226

- temperature:       350.0000000
  free_energy:       -22.8622515
  entropy:           252.8240246
  heat_capacity:     162.2900742
  energy:             65.6261571

- temperature:       360.0000000
  free_energy:       -25.4134886
  entropy:           257.4048397
  heat_capacity:     162.9211583
  energy:             67.2522537

- temperature:       370.0000000
  free_energy:       -28.0099855
  entropy:           261.8767879
  heat_capacity:     163.5059764
  energy:             68.8844261

- temperature:       380.0000000
  free_energy:       -30.6506769
  entropy:           266.2445010
  heat_capacity:     164.0488424
  energy:             70.5222335

- temperature:       390.0000000
  free_energy:       -33.3345427
  entropy:           270.5123553
  heat_capacity:     164.5535907
  energy:             72.1652759

- temperature:       400.0000000
  free_energy:       -36.0606050
  entropy:           274.6844865
  heat_capacity:     165.0236374
  energy:             73.8131896

- temperature:       410.0000000
  free_energy:       -38.8279264
  entropy:           278.7648037
  heat_capacity:     165.4620325
  energy:             75.4656432

- temperature:       420.0000000
  free_energy:       -41.6356073
  entropy:           282.7570030
  heat_capacity:     165.8715046
  energy:             77.1223339

- temperature:       430.0000000
  free_energy:       -44.4827844
  entropy:           286.6645800
  heat_capacity:     166.2545001
  energy:             78.7829850

- temperature:       440.0000000
  free_energy:       -47.3686279
  entropy:           290.4908430
  heat_capacity:     166.6132168
  energy:             80.4473430

- temperature:       450.0000000
  free_energy:       -50.2923406
  entropy:           294.2389238
  heat_capacity:     166.9496328
  energy:             82.1151751

- temperature:       460.0000000
  free_energy:       -53.2531557
  entropy:           297.9117891
  heat_capacity:     167.2655321
  energy:             83.7862673

- temperature:       470.0000000
  free_energy:       -56.2503351
  entropy:           301.5122506
  heat_capacity:     167.5625265
  energy:             85.4604227

- temperature:       480.0000000
  free_energy:       -59.2831683
  entropy:           305.0429749
  heat_capacity:     167.8420748
  energy:             87.1374597

- temperature:       490.0000000
  free_energy:       -62.3509706
  entropy:           308.5064919
  heat_capacity:     168.1054997
  energy:             88.8172105

- temperature:       500.0000000
  free_energy:       -65.4530821
  entropy:           311.9052041
  heat_capacity:     168.3540027
  energy:             90.4995199

- temperature:       510.0000000
  free_energy:       -68.5888663
  entropy:           315.2413935
  heat_capacity:     168.5886765
  energy:             92.1842444

- temperature:       520.0000000
  free_energy:       -71.7577088
  entropy:           318.5172298
  heat_capacity:     168.8105172
  energy:             93.8712507

- temperature:       530.0000000
  free_energy:       -74.9590166
  entropy:           321.7347766
  heat_capacity:     169.0204336
  energy:             95.5604150

- temperature:       540.0000000
  free_energy:       -78.1922166
  entropy:           324.8959981
  heat_capacity:     169.2192563
  energy:             97.2516224

- temperature:       550.0000000
  free_energy:       -81.4567550
  entropy:           328.0027650
  heat_capacity:     169.4077457
  energy:             98.9447657

- temperature:       560.0000000
  free_energy:       -84.7520963
  entropy:           331.0568599
  heat_capacity:     169.5865987
  energy:            100.6397452

- temperature:       570.0000000
  free_energy:       -88.0777223
  entropy:           334.0599825
  heat_capacity:     169.7564552
  energy:            102.3364677

- temperature:       580.0000000
  free_energy:       -91.4331315
  entropy:           337.0137548
  heat_capacity:     169.9179032
  energy:            104.0348463

- temperature:       590.0000000
  free_energy:       -94.8178381
  entropy:           339.9197248
  heat_capacity:     170.0714838
  energy:            105.7347996

- temperature:       600.0000000
  free_energy:       -98.2313716
  entropy:           342.7793716
  heat_capacity:     170.2176959
  energy:            107.4362514

- temperature:       610.0000000
  free_energy:      -101.6732758
  entropy:           345.5941087
  heat_capacity:     170.3569995
  energy:            109.1391305

- temperature:       620.0000000
  free_energy:      -105.1431086
  entropy:           348.3652877
  heat_capacity:     170.4898198
  energy:            110.8433698

- temperature:       630.0000000
  free_energy:      -108.6404407
  entropy:           351.0942020
  heat_capacity:     170.6165499
  energy:            112.5489066

- temperature:       640.0000000
  free_energy:      -112.1648559
  entropy:           353.7820899
  heat_capacity:     170.7375538
  energy:            114.2556817

- temperature:       650.0000000
  free_energy:      -115.7159497
  entropy:           356.4301375
  heat_capacity:     170.8531689
  energy:            115.9636397

- temperature:       660.0000000
  free_energy:      -119.2933296
  entropy:           359.0394815
  heat_capacity:     170.9637084
  energy:            117.6727282

- temperature:       670.0000000
  free_energy:      -122.8966140
  entropy:           361.6112117
  heat_capacity:     171.0694631
  energy:            119.3828979

- temperature:       680.0000000
  free_energy:      -126.5254319
  entropy:           364.1463740
  heat_capacity:     171.1707035
  energy:            121.0941024

- temperature:       690.0000000
  free_energy:      -130.1794229
  entropy:           366.6459720
  heat_capacity:     171.2676812
  energy:            122.8062978

- temperature:       700.0000000
  free_energy:      -133.8582361
  entropy:           369.1109695
  heat_capacity:     171.3606308
  energy:            124.5194426

- temperature:       710.0000000
  free_energy:      -137.5615300
  entropy:           371.5422926
  heat_capacity:     171.4497711
  energy:            126.2334977

- temperature:       720.0000000
  free_energy:      -141.2889726
  entropy:           373.9408314
  heat_capacity:     171.5353061
  energy:            127.9484260

- temperature:       730.0000000
  free_energy:      -145.0402403
  entropy:           376.3074420
  heat_capacity:     171.6174267
  energy:            129.6641924

- temperature:       740.0000000
  free_energy:      -148.8150178
  entropy:           378.6429480
  heat_capacity:     171.6963112
  energy:            131.3807637

- temperature:       750.0000000
  free_energy:      -152.6129982
  entropy:           380.9481421
  heat_capacity:     171.7721265
  energy:            133.0981084

- temperature:       760.0000000
  free_energy:      -156.4338821
  entropy:           383.2237878
  heat_capacity:     171.8450291
  energy:            134.8161966

- temperature:       770.0000000
  free_energy:      -160.2773779
  entropy:           385.4706203
  heat_capacity:     171.9151654
  energy:            136.5349998

- temperature:       780.0000000
  free_energy:      -164.1432009
  entropy:           387.6893487
  heat_capacity:     171.9826730
  energy:            138.2544911

- temperature:       790.0000000
  free_energy:      -168.0310735
  entropy:           389.8806562
  heat_capacity:     172.0476810
  energy:            139.9746449

- temperature:       800.0000000
  free_energy:      -171.9407248
  entropy:           392.0452020
  heat_capacity:     172.1103108
  energy:            141.6954368

- temperature:       810.0000000
  free_energy:      -175.8718904
  entropy:           394.1836222
  heat_capacity:     172.1706765
  energy:            143.4168436

- temperature:       820.0000000
  free_energy:      -179.8243122
  entropy:           396.2965309
  heat_capacity:     172.2288853
  energy:            145.1388431

- temperature:       830.0000000
  free_energy:      -183.7977380
  entropy:           398.3845210
  heat_capacity:     172.2850384
  energy:            146.8614144

- temperature:       840.0000000
  free_energy:      -187.7919215
  entropy:           400.4481653
  heat_capacity:     172.3392311
  energy:            148.5845374

- temperature:       850.0000000
  free_energy:      -191.8066220
  entropy:           402.4880174
  heat_capacity:     172.3915531
  energy:            150.3081928

- temperature:       860.0000000
  free_energy:      -195.8416043
  entropy:           404.5046125
  heat_capacity:     172.4420894
  energy:            152.0323625

- temperature:       870.0000000
  free_energy:      -199.8966384
  entropy:           406.4984682
  heat_capacity:     172.4909198
  energy:            153.7570289

- temperature:       880.0000000
  free_energy:      -203.9714995
  entropy:           408.4700852
  heat_capacity:     172.5381201
  energy:            155.4821754

- temperature:       890.0000000
  free_energy:      -208.0659676
  entropy:           410.4199480
  heat_capacity:     172.5837617
  energy:            157.2077861

- temperature:       900.0000000
  free_energy:      -212.1798275
  entropy:           412.3485258
  heat_capacity:     172.6279123
  energy:            158.9338457

- temperature:       910.0000000
  free_energy:      -216.3128687
  entropy:           414.2562729
  heat_capacity:     172.6706359
  energy:            160.6603396

- temperature:       920.0000000
  free_energy:      -220.4648850
  entropy:           416.1436292
  heat_capacity:     172.7119930
  energy:            162.3872539

- temperature:       930.0000000
  free_energy:      -224.6356747
  entropy:           418.0110214
  heat_capacity:     172.7520412
  energy:            164.1145751

- temperature:       940.0000000
  free_energy:      -228.8250403
  entropy:           419.8588626
  heat_capacity:     172.7908349
  energy:            165.8422905

- temperature:       950.0000000
  free_energy:      -233.0327882
  entropy:           421.6875536
  heat_capacity:     172.8284259
  energy:            167.5703878

- temperature:       960.0000000
  free_energy:      -237.2587288
  entropy:           423.4974833
  heat_capacity:     172.8648631
  energy:            169.2988552

- temperature:       970.0000000
  free_energy:      -241.5026766
  entropy:           425.2890288
  heat_capacity:     172.9001932
  energy:            171.0276814

- temperature:       980.0000000
  free_energy:      -245.7644493
  entropy:           427.0625560
  heat_capacity:     172.9344604
  energy:            172.7568555

- temperature:       990.0000000
  free_energy:      -250.0438688
  entropy:           428.8184202
  heat_capacity:     172.9677068
  energy:            174.4863672

- temperature:      1000.0000000
  free_energy:      -254.3407600
  entropy:           430.5569664
  heat_capacity:     172.9999725
  energy:            176.2162064
