# Thermal properties / unit cell (natom)

unit:
  temperature:   K
  free_energy:   kJ/mol
  entropy:       J/K/mol
  heat_capacity: J/K/mol

natom: 9    
cutoff_frequency: 0.00000
num_modes: 190512
num_integrated_modes: 190509

zero_point_energy:      33.1573893

thermal_properties:
- temperature:         0.0000000
  free_energy:        33.1573893
  entropy:             0.0000000
  heat_capacity:       0.0000000
  energy:             33.1573893

- temperature:        10.0000000
  free_energy:        33.1548387
  entropy:             1.1115810
  heat_capacity:       3.6417925
  energy:             33.1659545

- temperature:        20.0000000
  free_energy:        33.1138394
  entropy:             8.1118969
  heat_capacity:      19.3952129
  energy:             33.2760774

- temperature:        30.0000000
  free_energy:        32.9794137
  entropy:            19.1239667
  heat_capacity:      35.5557052
  energy:             33.5531327

- temperature:        40.0000000
  free_energy:        32.7278099
  entropy:            31.2685761
  heat_capacity:      49.2072589
  energy:             33.9785529

- temperature:        50.0000000
  free_energy:        32.3535079
  entropy:            43.5949832
  heat_capacity:      61.6289696
  energy:             34.5332570

- temperature:        60.0000000
  free_energy:        31.8559883
  entropy:            55.9025426
  heat_capacity:      73.7287151
  energy:             35.2101409

- temperature:        70.0000000
  free_energy:        31.2355890
  entropy:            68.1703454
  heat_capacity:      85.7212277
  energy:             36.0075132

- temperature:        80.0000000
  free_energy:        30.4927493
  entropy:            80.3869602
  heat_capacity:      97.4534511
  energy:             36.9237061

- temperature:        90.0000000
  free_energy:        29.6281283
  entropy:            92.5195611
  heat_capacity:     108.6794351
  energy:             37.9548888

- temperature:       100.0000000
  free_energy:        28.6427943
  entropy:           104.5212509
  heat_capacity:     119.1956727
  energy:             39.0949193

- temperature:       110.0000000
  free_energy:        27.5383041
  entropy:           116.3428916
  heat_capacity:     128.8804725
  energy:             40.3360222

- temperature:       120.0000000
  free_energy:        26.3166827
  entropy:           127.9409652
  heat_capacity:     137.6880412
  energy:             41.6695985

- temperature:       130.0000000
  free_energy:        24.9803457
  entropy:           139.2810924
  heat_capacity:     145.6281782
  energy:             43.0868878

- temperature:       140.0000000
  free_energy:        23.5320037
  entropy:           150.3386739
  heat_capacity:     152.7457026
  energy:             44.5794180

- temperature:       150.0000000
  free_energy:        21.9745672
  entropy:           161.0980278
  heat_capacity:     159.1043365
  energy:             46.1392714

- temperature:       160.0000000
  free_energy:        20.3110653
  entropy:           171.5509259
  heat_capacity:     164.7755911
  energy:             47.7592134

- temperature:       170.0000000
  free_energy:        18.5445785
  entropy:           181.6950283
  heat_capacity:     169.8317595
  energy:             49.4327333

- temperature:       180.0000000
  free_energy:        16.6781873
  entropy:           191.5324538
  heat_capacity:     174.3418598
  energy:             51.1540290

- temperature:       190.0000000
  free_energy:        14.7149340
  entropy:           201.0685743
  heat_capacity:     178.3695422
  energy:             52.9179631

- temperature:       200.0000000
  free_energy:        12.6577948
  entropy:           210.3110453
  heat_capacity:     181.9722291
  energy:             54.7200039

- temperature:       210.0000000
  free_energy:        10.5096614
  entropy:           219.2690502
  heat_capacity:     185.2009895
  energy:             56.5561620

- temperature:       220.0000000
  free_energy:         8.2733283
  entropy:           227.9527253
  heat_capacity:     188.1008206
  energy:             58.4229279

- temperature:       230.0000000
  free_energy:         5.9514858
  entropy:           236.3727306
  heat_capacity:     190.7111350
  energy:             60.3172139

- temperature:       240.0000000
  free_energy:         3.5467164
  entropy:           244.5399346
  heat_capacity:     193.0663298
  energy:             62.2363007

- temperature:       250.0000000
  free_energy:         1.0614936
  entropy:           252.4651870
  heat_capacity:     195.1963665
  energy:             64.1777904

- temperature:       260.0000000
  free_energy:        -1.5018164
  entropy:           260.1591586
  heat_capacity:     197.1273233
  energy:             66.1395648

- temperature:       270.0000000
  free_energy:        -4.1409532
  entropy:           267.6322314
  heat_capacity:     198.8819009
  energy:             68.1197492

- temperature:       280.0000000
  free_energy:        -6.8537582
  entropy:           274.8944260
  heat_capacity:     200.4798751
  energy:             70.1166811

- temperature:       290.0000000
  free_energy:        -9.6381709
  entropy:           281.9553566
  heat_capacity:     201.9384936
  energy:             72.1288825

- temperature:       300.0000000
  free_energy:       -12.4922251
  entropy:           288.8242066
  heat_capacity:     203.2728231
  energy:             74.1550369

- temperature:       310.0000000
  free_energy:       -15.4140440
  entropy:           295.5097185
  heat_capacity:     204.4960478
  energy:             76.1939688

- temperature:       320.0000000
  free_energy:       -18.4018361
  entropy:           302.0201945
  heat_capacity:     205.6197273
  energy:             78.2446262

- temperature:       330.0000000
  free_energy:       -21.4538907
  entropy:           308.3635036
  heat_capacity:     206.6540177
  energy:             80.3060655

- temperature:       340.0000000
  free_energy:       -24.5685738
  entropy:           314.5470949
  heat_capacity:     207.6078606
  energy:             82.3774385

- temperature:       350.0000000
  free_energy:       -27.7443237
  entropy:           320.5780133
  heat_capacity:     208.4891459
  energy:             84.4579809

- temperature:       360.0000000
  free_energy:       -30.9796474
  entropy:           326.4629174
  heat_capacity:     209.3048505
  energy:             86.5470029

- temperature:       370.0000000
  free_energy:       -34.2731164
  entropy:           332.2080984
  heat_capacity:     210.0611574
  energy:             88.6438800

- temperature:       380.0000000
  free_energy:       -37.6233635
  entropy:           337.8194996
  heat_capacity:     210.7635580
  energy:             90.7480464

- temperature:       390.0000000
  free_energy:       -41.0290792
  entropy:           343.3027360
  heat_capacity:     211.4169402
  energy:             92.8589878

- temperature:       400.0000000
  free_energy:       -44.4890087
  entropy:           348.6631127
  heat_capacity:     212.0256633
  energy:             94.9762364

- temperature:       410.0000000
  free_energy:       -48.0019487
  entropy:           353.9056438
  heat_capacity:     212.5936242
  energy:             97.0993653

- temperature:       420.0000000
  free_energy:       -51.5667446
  entropy:           359.0350696
  heat_capacity:     213.1243125
  energy:             99.2279847

- temperature:       430.0000000
  free_energy:       -55.1822880
  entropy:           364.0558739
  heat_capacity:     213.6208603
  energy:            101.3617378

- temperature:       440.0000000
  free_energy:       -58.8475141
  entropy:           368.9722992
  heat_capacity:     214.0860835
  energy:            103.5002975

- temperature:       450.0000000
  free_energy:       -62.5613995
  entropy:           373.7883622
  heat_capacity:     214.5225190
  energy:            105.6433635

- temperature:       460.0000000
  free_energy:       -66.3229595
  entropy:           378.5078677
  heat_capacity:     214.9324564
  energy:            107.7906596

- temperature:       470.0000000
  free_energy:       -70.1312470
  entropy:           383.1344218
  heat_capacity:     215.3179659
  energy:            109.9419312

- temperature:       480.0000000
  free_energy:       -73.9853496
  entropy:           387.6714444
  heat_capacity:     215.6809226
  energy:            112.0969437

- temperature:       490.0000000
  free_energy:       -77.8843883
  entropy:           392.1221806
  heat_capacity:     216.0230277
  energy:            114.2554802

- temperature:       500.0000000
  free_energy:       -81.8275158
  entropy:           396.4897116
  heat_capacity:     216.3458272
  energy:            116.4173400

- temperature:       510.0000000
  free_energy:       -85.8139149
  entropy:           400.7769648
  heat_capacity:     216.6507286
  energy:            118.5823371

- temperature:       520.0000000
  free_energy:       -89.8427968
  entropy:           404.9867231
  heat_capacity:     216.9390148
  energy:            120.7502992

- temperature:       530.0000000
  free_energy:       -93.9133999
  entropy:           409.1216337
  heat_capacity:     217.2118576
  energy:            122.9210659

- temperature:       540.0000000
  free_energy:       -98.0249884
  entropy:           413.1842164
  heat_capacity:     217.4703282
  energy:            125.0944884

- temperature:       550.0000000
  free_energy:      -102.1768512
  entropy:           417.1768710
  heat_capacity:     217.7154077
  energy:            127.2704279

- temperature:       560.0000000
  free_energy:      -106.3683004
  entropy:           421.1018845
  heat_capacity:     217.9479958
  energy:            129.4487549

- temperature:       570.0000000
  free_energy:      -110.5986707
  entropy:           424.9614378
  heat_capacity:     218.1689187
  energy:            131.6293489

- temperature:       580.0000000
  free_energy:      -114.8673179
  entropy:           428.7576118
  heat_capacity:     218.3789362
  energy:            133.8120970

- temperature:       590.0000000
  free_energy:      -119.1736183
  entropy:           432.4923930
  heat_capacity:     218.5787476
  energy:            135.9968936

- temperature:       600.0000000
  free_energy:      -123.5169674
  entropy:           436.1676792
  heat_capacity:     218.7689977
  energy:            138.1836400

- temperature:       610.0000000
  free_energy:      -127.8967796
  entropy:           439.7852841
  heat_capacity:     218.9502818
  energy:            140.3722437

- temperature:       620.0000000
  free_energy:      -132.3124866
  entropy:           443.3469424
  heat_capacity:     219.1231497
  energy:            142.5626176

- temperature:       630.0000000
  free_energy:      -136.7635375
  entropy:           446.8543140
  heat_capacity:     219.2881102
  energy:            144.7546803

- temperature:       640.0000000
  free_energy:      -141.2493973
  entropy:           450.3089880
  heat_capacity:     219.4456345
  energy:            146.9483551

- temperature:       650.0000000
  free_energy:      -145.7695467
  entropy:           453.7124867
  heat_capacity:     219.5961597
  energy:            149.1435697

- temperature:       660.0000000
  free_energy:      -150.3234813
  entropy:           457.0662690
  heat_capacity:     219.7400911
  energy:            151.3402563

- temperature:       670.0000000
  free_energy:      -154.9107110
  entropy:           460.3717340
  heat_capacity:     219.8778056
  energy:            153.5383508

- temperature:       680.0000000
  free_energy:      -159.5307594
  entropy:           463.6302239
  heat_capacity:     220.0096537
  energy:            155.7377928

- temperature:       690.0000000
  free_energy:      -164.1831632
  entropy:           466.8430270
  heat_capacity:     220.1359616
  energy:            157.9385254

- temperature:       700.0000000
  free_energy:      -168.8674718
  entropy:           470.0113806
  heat_capacity:     220.2570335
  energy:            160.1404946

- temperature:       710.0000000
  free_energy:      -173.5832466
  entropy:           473.1364735
  heat_capacity:     220.3731529
  energy:            162.3436496

- temperature:       720.0000000
  free_energy:      -178.3300609
  entropy:           476.2194485
  heat_capacity:     220.4845847
  energy:            164.5479420

- temperature:       730.0000000
  free_energy:      -183.1074989
  entropy:           479.2614045
  heat_capacity:     220.5915763
  energy:            166.7533265

- temperature:       740.0000000
  free_energy:      -187.9151557
  entropy:           482.2633990
  heat_capacity:     220.6943591
  energy:            168.9597595

- temperature:       750.0000000
  free_energy:      -192.7526370
  entropy:           485.2264498
  heat_capacity:     220.7931497
  energy:            171.1672003

- temperature:       760.0000000
  free_energy:      -197.6195582
  entropy:           488.1515370
  heat_capacity:     220.8881512
  energy:            173.3756099

- temperature:       770.0000000
  free_energy:      -202.5155444
  entropy:           491.0396049
  heat_capacity:     220.9795538
  energy:            175.5849514

- temperature:       780.0000000
  free_energy:      -207.4402299
  entropy:           493.8915635
  heat_capacity:     221.0675361
  energy:            177.7951896

- temperature:       790.0000000
  free_energy:      -212.3932582
  entropy:           496.7082904
  heat_capacity:     221.1522657
  energy:            180.0062912

- temperature:       800.0000000
  free_energy:      -217.3742811
  entropy:           499.4906322
  heat_capacity:     221.2339002
  energy:            182.2182246

- temperature:       810.0000000
  free_energy:      -222.3829590
  entropy:           502.2394054
  heat_capacity:     221.3125879
  energy:            184.4309594

- temperature:       820.0000000
  free_energy:      -227.4189600
  entropy:           504.9553987
  heat_capacity:     221.3884681
  energy:            186.6444670

- temperature:       830.0000000
  free_energy:      -232.4819602
  entropy:           507.6393736
  heat_capacity:     221.4616723
  energy:            188.8587199

- temperature:       840.0000000
  free_energy:      -237.5716432
  entropy:           510.2920656
  heat_capacity:     221.5323243
  energy:            191.0736919

- temperature:       850.0000000
  free_energy:      -242.6876996
  entropy:           512.9141857
  heat_capacity:     221.6005408
  energy:            193.2893582

- temperature:       860.0000000
  free_energy:      -247.8298273
  entropy:           515.5064212
  heat_capacity:     221.6664320
  energy:            195.5056950

- temperature:       870.0000000
  free_energy:      -252.9977307
  entropy:           518.0694369
  heat_capacity:     221.7301019
  energy:            197.7226795

- temperature:       880.0000000
  free_energy:      -258.1911208
  entropy:           520.6038758
  heat_capacity:     221.7916489
  energy:            199.9402900

- temperature:       890.0000000
  free_energy:      -263.4097150
  entropy:           523.1103603
  heat_capacity:     221.8511660
  energy:            202.1585057

- temperature:       900.0000000
  free_energy:      -268.6532368
  entropy:           525.5894929
  heat_capacity:     221.9087410
  energy:            204.3773068

- temperature:       910.0000000
  free_energy:      -273.9214156
  entropy:           528.0418571
  heat_capacity:     221.9644573
  energy:            206.5966743

- temperature:       920.0000000
  free_energy:      -279.2139866
  entropy:           530.4680181
  heat_capacity:     222.0183937
  energy:            208.8165900

- temperature:       930.0000000
  free_energy:      -284.5306905
  entropy:           532.8685236
  heat_capacity:     222.0706249
  energy:            211.0370365

- temperature:       940.0000000
  free_energy:      -289.8712733
  entropy:           535.2439047
  heat_capacity:     222.1212219
  energy:            213.2579971

- temperature:       950.0000000
  free_energy:      -295.2354865
  entropy:           537.5946760
  heat_capacity:     222.1702517
  energy:            215.4794557

- temperature:       960.0000000
  free_energy:      -300.6230865
  entropy:           539.9213371
  heat_capacity:     222.2177784
  energy:            217.7013971

- temperature:       970.0000000
  free_energy:      -306.0338345
  entropy:           542.2243722
  heat_capacity:     222.2638624
  energy:            219.9238065

- temperature:       980.0000000
  free_energy:      -311.4674967
  entropy:           544.5042515
  heat_capacity:     222.3085614
  energy:            222.1466697

- temperature:       990.0000000
  free_energy:      -316.9238439
  entropy:           546.7614315
  heat_capacity:     222.3519302
  energy:            224.3699733

- temperature:      1000.0000000
  free_energy:      -322.4026512
  entropy:           548.9963552
  heat_capacity:     222.3940209
  energy:            226.5937041
