phonopy:
  version: "2.37.1"
  frequency_unit_conversion_factor: 15.633302
  symmetry_tolerance: 1.00000e-05

space_group:
  type: "P1"
  number: 1
  Hall_symbol: "P 1"

primitive_matrix:
- [  1.000000000000000,  0.000000000000000,  0.000000000000000 ]
- [  0.000000000000000, -1.000000000000000,  1.000000000000000 ]
- [  0.000000000000000,  0.000000000000000, -1.000000000000000 ]

supercell_matrix:
- [   3,   0,   0 ]
- [   0,   2,   0 ]
- [   0,   0,   1 ]

primitive_cell:
  lattice:
  - [     4.759769205118795,     0.000000000000000,     0.000000000000000 ] # a
  - [    -0.032619938327419,    -5.740040604922751,     0.000000000000000 ] # b
  - [    -2.348603172785362,     2.168105444560388,    -9.310526588853856 ] # c
  points:
  - symbol: Li # 1
    coordinates: [  0.003345632691323,  0.128847147941355,  0.547370892192634 ]
    mass: 6.940000
  - symbol: Li # 2
    coordinates: [  0.846350047481855,  0.136230027772624,  0.255055921111332 ]
    mass: 6.940000
  - symbol: Li # 3
    coordinates: [  0.141236368034484,  0.516223976221032,  0.847655542697690 ]
    mass: 6.940000
  - symbol: Li # 4
    coordinates: [  0.283743676752196,  0.974147725094060,  0.129200198236744 ]
    mass: 6.940000
  - symbol: Li # 5
    coordinates: [  0.694141255416260,  0.232870599542754,  0.965159372689797 ]
    mass: 6.940000
  - symbol: Li # 6
    coordinates: [  0.556786898172565,  0.784449198735245,  0.688060430698440 ]
    mass: 6.940000
  - symbol: Li # 7
    coordinates: [  0.126672855452741,  0.981537566606172,  0.837017794196835 ]
    mass: 6.940000
  - symbol: Li # 8
    coordinates: [  0.573401528780585,  0.326026105123940,  0.696245795555076 ]
    mass: 6.940000
  - symbol: Li # 9
    coordinates: [  0.851282317588485,  0.627809502840802,  0.263421013102647 ]
    mass: 6.940000
  - symbol: Li # 10
    coordinates: [  0.988990710618094,  0.594154495984189,  0.536648840680449 ]
    mass: 6.940000
  - symbol: Li # 11
    coordinates: [  0.278746924841879,  0.482523875747007,  0.120828053905462 ]
    mass: 6.940000
  - symbol: Li # 12
    coordinates: [  0.435990979940143,  0.877529315766050,  0.419179790951794 ]
    mass: 6.940000
  - symbol: Sn # 13
    coordinates: [  0.421661917292044,  0.371720447286648,  0.401163126326623 ]
    mass: 118.710000
  - symbol: Sn # 14
    coordinates: [  0.708486610960228,  0.738664272028127,  0.983108830083070 ]
    mass: 118.710000
  reciprocal_lattice: # without 2pi
  - [     0.210094220308953,    -0.001193939377981,    -0.053274810413104 ] # a*
  - [     0.000000000000000,    -0.174214795474162,    -0.040568709297570 ] # b*
  - [     0.000000000000000,    -0.000000000000000,    -0.107405310586531 ] # c*

unit_cell:
  lattice:
  - [     4.759769205118794,     0.000000000000000,     0.000000000000000 ] # a
  - [     0.032619938327419,     5.740040604922750,     0.000000000000000 ] # b
  - [     2.381223111112782,     3.571935160362363,     9.310526588853856 ] # c
  points:
  - symbol: Li # 1
    coordinates: [  0.003345632691323,  0.418523744251278,  0.452629107807366 ]
    mass: 6.940000
    reduced_to: 1
  - symbol: Li # 2
    coordinates: [  0.846350047481855,  0.118825893338708,  0.744944078888668 ]
    mass: 6.940000
    reduced_to: 2
  - symbol: Li # 3
    coordinates: [  0.141236368034484,  0.331431566476658,  0.152344457302310 ]
    mass: 6.940000
    reduced_to: 3
  - symbol: Li # 4
    coordinates: [  0.283743676752196,  0.155052473142684,  0.870799801763256 ]
    mass: 6.940000
    reduced_to: 4
  - symbol: Li # 5
    coordinates: [  0.694141255416261,  0.732288773147043,  0.034840627310203 ]
    mass: 6.940000
    reduced_to: 5
  - symbol: Li # 6
    coordinates: [  0.556786898172565,  0.903611231963194,  0.311939569301560 ]
    mass: 6.940000
    reduced_to: 6
  - symbol: Li # 7
    coordinates: [  0.126672855452741,  0.855480227590663,  0.162982205803165 ]
    mass: 6.940000
    reduced_to: 7
  - symbol: Li # 8
    coordinates: [  0.573401528780585,  0.370219690431136,  0.303754204444924 ]
    mass: 6.940000
    reduced_to: 8
  - symbol: Li # 9
    coordinates: [  0.851282317588485,  0.635611510261845,  0.736578986897353 ]
    mass: 6.940000
    reduced_to: 9
  - symbol: Li # 10
    coordinates: [  0.988990710618094,  0.942494344696260,  0.463351159319551 ]
    mass: 6.940000
    reduced_to: 10
  - symbol: Li # 11
    coordinates: [  0.278746924841879,  0.638304178158455,  0.879171946094538 ]
    mass: 6.940000
    reduced_to: 11
  - symbol: Li # 12
    coordinates: [  0.435990979940143,  0.541650475185743,  0.580820209048206 ]
    mass: 6.940000
    reduced_to: 12
  - symbol: Sn # 13
    coordinates: [  0.421661917292044,  0.029442679039975,  0.598836873673377 ]
    mass: 118.710000
    reduced_to: 13
  - symbol: Sn # 14
    coordinates: [  0.708486610960228,  0.244444558054944,  0.016891169916930 ]
    mass: 118.710000
    reduced_to: 14

supercell:
  lattice:
  - [    14.279307615356384,     0.000000000000000,     0.000000000000000 ] # a
  - [     0.065239876654838,    11.480081209845499,     0.000000000000000 ] # b
  - [     2.381223111112782,     3.571935160362363,     9.310526588853856 ] # c
  points:
  - symbol: Li # 1
    coordinates: [  0.001115210897108,  0.209261872125639,  0.452629107807366 ]
    mass: 6.940000
    reduced_to: 1
  - symbol: Li # 2
    coordinates: [  0.334448544230441,  0.209261872125639,  0.452629107807366 ]
    mass: 6.940000
    reduced_to: 1
  - symbol: Li # 3
    coordinates: [  0.667781877563774,  0.209261872125639,  0.452629107807366 ]
    mass: 6.940000
    reduced_to: 1
  - symbol: Li # 4
    coordinates: [  0.001115210897108,  0.709261872125639,  0.452629107807366 ]
    mass: 6.940000
    reduced_to: 1
  - symbol: Li # 5
    coordinates: [  0.334448544230441,  0.709261872125639,  0.452629107807366 ]
    mass: 6.940000
    reduced_to: 1
  - symbol: Li # 6
    coordinates: [  0.667781877563774,  0.709261872125639,  0.452629107807366 ]
    mass: 6.940000
    reduced_to: 1
  - symbol: Li # 7
    coordinates: [  0.282116682493952,  0.059412946669354,  0.744944078888668 ]
    mass: 6.940000
    reduced_to: 7
  - symbol: Li # 8
    coordinates: [  0.615450015827285,  0.059412946669354,  0.744944078888668 ]
    mass: 6.940000
    reduced_to: 7
  - symbol: Li # 9
    coordinates: [  0.948783349160618,  0.059412946669354,  0.744944078888668 ]
    mass: 6.940000
    reduced_to: 7
  - symbol: Li # 10
    coordinates: [  0.282116682493952,  0.559412946669354,  0.744944078888668 ]
    mass: 6.940000
    reduced_to: 7
  - symbol: Li # 11
    coordinates: [  0.615450015827285,  0.559412946669354,  0.744944078888668 ]
    mass: 6.940000
    reduced_to: 7
  - symbol: Li # 12
    coordinates: [  0.948783349160618,  0.559412946669354,  0.744944078888668 ]
    mass: 6.940000
    reduced_to: 7
  - symbol: Li # 13
    coordinates: [  0.047078789344828,  0.165715783238329,  0.152344457302310 ]
    mass: 6.940000
    reduced_to: 13
  - symbol: Li # 14
    coordinates: [  0.380412122678161,  0.165715783238329,  0.152344457302310 ]
    mass: 6.940000
    reduced_to: 13
  - symbol: Li # 15
    coordinates: [  0.713745456011495,  0.165715783238329,  0.152344457302310 ]
    mass: 6.940000
    reduced_to: 13
  - symbol: Li # 16
    coordinates: [  0.047078789344828,  0.665715783238329,  0.152344457302310 ]
    mass: 6.940000
    reduced_to: 13
  - symbol: Li # 17
    coordinates: [  0.380412122678161,  0.665715783238329,  0.152344457302310 ]
    mass: 6.940000
    reduced_to: 13
  - symbol: Li # 18
    coordinates: [  0.713745456011495,  0.665715783238329,  0.152344457302310 ]
    mass: 6.940000
    reduced_to: 13
  - symbol: Li # 19
    coordinates: [  0.094581225584065,  0.077526236571342,  0.870799801763256 ]
    mass: 6.940000
    reduced_to: 19
  - symbol: Li # 20
    coordinates: [  0.427914558917399,  0.077526236571342,  0.870799801763256 ]
    mass: 6.940000
    reduced_to: 19
  - symbol: Li # 21
    coordinates: [  0.761247892250732,  0.077526236571342,  0.870799801763256 ]
    mass: 6.940000
    reduced_to: 19
  - symbol: Li # 22
    coordinates: [  0.094581225584065,  0.577526236571342,  0.870799801763256 ]
    mass: 6.940000
    reduced_to: 19
  - symbol: Li # 23
    coordinates: [  0.427914558917399,  0.577526236571342,  0.870799801763256 ]
    mass: 6.940000
    reduced_to: 19
  - symbol: Li # 24
    coordinates: [  0.761247892250732,  0.577526236571342,  0.870799801763256 ]
    mass: 6.940000
    reduced_to: 19
  - symbol: Li # 25
    coordinates: [  0.231380418472087,  0.366144386573522,  0.034840627310203 ]
    mass: 6.940000
    reduced_to: 25
  - symbol: Li # 26
    coordinates: [  0.564713751805420,  0.366144386573522,  0.034840627310203 ]
    mass: 6.940000
    reduced_to: 25
  - symbol: Li # 27
    coordinates: [  0.898047085138754,  0.366144386573522,  0.034840627310203 ]
    mass: 6.940000
    reduced_to: 25
  - symbol: Li # 28
    coordinates: [  0.231380418472087,  0.866144386573522,  0.034840627310203 ]
    mass: 6.940000
    reduced_to: 25
  - symbol: Li # 29
    coordinates: [  0.564713751805420,  0.866144386573522,  0.034840627310203 ]
    mass: 6.940000
    reduced_to: 25
  - symbol: Li # 30
    coordinates: [  0.898047085138754,  0.866144386573522,  0.034840627310203 ]
    mass: 6.940000
    reduced_to: 25
  - symbol: Li # 31
    coordinates: [  0.185595632724188,  0.451805615981597,  0.311939569301560 ]
    mass: 6.940000
    reduced_to: 31
  - symbol: Li # 32
    coordinates: [  0.518928966057522,  0.451805615981597,  0.311939569301560 ]
    mass: 6.940000
    reduced_to: 31
  - symbol: Li # 33
    coordinates: [  0.852262299390855,  0.451805615981597,  0.311939569301560 ]
    mass: 6.940000
    reduced_to: 31
  - symbol: Li # 34
    coordinates: [  0.185595632724188,  0.951805615981597,  0.311939569301560 ]
    mass: 6.940000
    reduced_to: 31
  - symbol: Li # 35
    coordinates: [  0.518928966057522,  0.951805615981597,  0.311939569301560 ]
    mass: 6.940000
    reduced_to: 31
  - symbol: Li # 36
    coordinates: [  0.852262299390855,  0.951805615981597,  0.311939569301560 ]
    mass: 6.940000
    reduced_to: 31
  - symbol: Li # 37
    coordinates: [  0.042224285150914,  0.427740113795332,  0.162982205803165 ]
    mass: 6.940000
    reduced_to: 37
  - symbol: Li # 38
    coordinates: [  0.375557618484247,  0.427740113795332,  0.162982205803165 ]
    mass: 6.940000
    reduced_to: 37
  - symbol: Li # 39
    coordinates: [  0.708890951817580,  0.427740113795332,  0.162982205803165 ]
    mass: 6.940000
    reduced_to: 37
  - symbol: Li # 40
    coordinates: [  0.042224285150914,  0.927740113795332,  0.162982205803165 ]
    mass: 6.940000
    reduced_to: 37
  - symbol: Li # 41
    coordinates: [  0.375557618484247,  0.927740113795332,  0.162982205803165 ]
    mass: 6.940000
    reduced_to: 37
  - symbol: Li # 42
    coordinates: [  0.708890951817580,  0.927740113795332,  0.162982205803165 ]
    mass: 6.940000
    reduced_to: 37
  - symbol: Li # 43
    coordinates: [  0.191133842926862,  0.185109845215568,  0.303754204444924 ]
    mass: 6.940000
    reduced_to: 43
  - symbol: Li # 44
    coordinates: [  0.524467176260195,  0.185109845215568,  0.303754204444924 ]
    mass: 6.940000
    reduced_to: 43
  - symbol: Li # 45
    coordinates: [  0.857800509593528,  0.185109845215568,  0.303754204444924 ]
    mass: 6.940000
    reduced_to: 43
  - symbol: Li # 46
    coordinates: [  0.191133842926862,  0.685109845215568,  0.303754204444924 ]
    mass: 6.940000
    reduced_to: 43
  - symbol: Li # 47
    coordinates: [  0.524467176260195,  0.685109845215568,  0.303754204444924 ]
    mass: 6.940000
    reduced_to: 43
  - symbol: Li # 48
    coordinates: [  0.857800509593528,  0.685109845215568,  0.303754204444924 ]
    mass: 6.940000
    reduced_to: 43
  - symbol: Li # 49
    coordinates: [  0.283760772529495,  0.317805755130923,  0.736578986897353 ]
    mass: 6.940000
    reduced_to: 49
  - symbol: Li # 50
    coordinates: [  0.617094105862828,  0.317805755130923,  0.736578986897353 ]
    mass: 6.940000
    reduced_to: 49
  - symbol: Li # 51
    coordinates: [  0.950427439196162,  0.317805755130923,  0.736578986897353 ]
    mass: 6.940000
    reduced_to: 49
  - symbol: Li # 52
    coordinates: [  0.283760772529495,  0.817805755130923,  0.736578986897353 ]
    mass: 6.940000
    reduced_to: 49
  - symbol: Li # 53
    coordinates: [  0.617094105862828,  0.817805755130923,  0.736578986897353 ]
    mass: 6.940000
    reduced_to: 49
  - symbol: Li # 54
    coordinates: [  0.950427439196162,  0.817805755130923,  0.736578986897353 ]
    mass: 6.940000
    reduced_to: 49
  - symbol: Li # 55
    coordinates: [  0.329663570206031,  0.471247172348130,  0.463351159319551 ]
    mass: 6.940000
    reduced_to: 55
  - symbol: Li # 56
    coordinates: [  0.662996903539364,  0.471247172348130,  0.463351159319551 ]
    mass: 6.940000
    reduced_to: 55
  - symbol: Li # 57
    coordinates: [  0.996330236872698,  0.471247172348130,  0.463351159319551 ]
    mass: 6.940000
    reduced_to: 55
  - symbol: Li # 58
    coordinates: [  0.329663570206031,  0.971247172348130,  0.463351159319551 ]
    mass: 6.940000
    reduced_to: 55
  - symbol: Li # 59
    coordinates: [  0.662996903539364,  0.971247172348130,  0.463351159319551 ]
    mass: 6.940000
    reduced_to: 55
  - symbol: Li # 60
    coordinates: [  0.996330236872698,  0.971247172348130,  0.463351159319551 ]
    mass: 6.940000
    reduced_to: 55
  - symbol: Li # 61
    coordinates: [  0.092915641613960,  0.319152089079227,  0.879171946094538 ]
    mass: 6.940000
    reduced_to: 61
  - symbol: Li # 62
    coordinates: [  0.426248974947293,  0.319152089079227,  0.879171946094538 ]
    mass: 6.940000
    reduced_to: 61
  - symbol: Li # 63
    coordinates: [  0.759582308280626,  0.319152089079227,  0.879171946094538 ]
    mass: 6.940000
    reduced_to: 61
  - symbol: Li # 64
    coordinates: [  0.092915641613960,  0.819152089079227,  0.879171946094538 ]
    mass: 6.940000
    reduced_to: 61
  - symbol: Li # 65
    coordinates: [  0.426248974947293,  0.819152089079227,  0.879171946094538 ]
    mass: 6.940000
    reduced_to: 61
  - symbol: Li # 66
    coordinates: [  0.759582308280626,  0.819152089079227,  0.879171946094538 ]
    mass: 6.940000
    reduced_to: 61
  - symbol: Li # 67
    coordinates: [  0.145330326646714,  0.270825237592872,  0.580820209048206 ]
    mass: 6.940000
    reduced_to: 67
  - symbol: Li # 68
    coordinates: [  0.478663659980048,  0.270825237592872,  0.580820209048206 ]
    mass: 6.940000
    reduced_to: 67
  - symbol: Li # 69
    coordinates: [  0.811996993313381,  0.270825237592872,  0.580820209048206 ]
    mass: 6.940000
    reduced_to: 67
  - symbol: Li # 70
    coordinates: [  0.145330326646714,  0.770825237592872,  0.580820209048206 ]
    mass: 6.940000
    reduced_to: 67
  - symbol: Li # 71
    coordinates: [  0.478663659980048,  0.770825237592872,  0.580820209048206 ]
    mass: 6.940000
    reduced_to: 67
  - symbol: Li # 72
    coordinates: [  0.811996993313381,  0.770825237592872,  0.580820209048206 ]
    mass: 6.940000
    reduced_to: 67
  - symbol: Sn # 73
    coordinates: [  0.140553972430681,  0.014721339519987,  0.598836873673377 ]
    mass: 118.710000
    reduced_to: 73
  - symbol: Sn # 74
    coordinates: [  0.473887305764015,  0.014721339519987,  0.598836873673377 ]
    mass: 118.710000
    reduced_to: 73
  - symbol: Sn # 75
    coordinates: [  0.807220639097348,  0.014721339519987,  0.598836873673377 ]
    mass: 118.710000
    reduced_to: 73
  - symbol: Sn # 76
    coordinates: [  0.140553972430681,  0.514721339519987,  0.598836873673377 ]
    mass: 118.710000
    reduced_to: 73
  - symbol: Sn # 77
    coordinates: [  0.473887305764015,  0.514721339519987,  0.598836873673377 ]
    mass: 118.710000
    reduced_to: 73
  - symbol: Sn # 78
    coordinates: [  0.807220639097348,  0.514721339519987,  0.598836873673377 ]
    mass: 118.710000
    reduced_to: 73
  - symbol: Sn # 79
    coordinates: [  0.236162203653409,  0.122222279027472,  0.016891169916930 ]
    mass: 118.710000
    reduced_to: 79
  - symbol: Sn # 80
    coordinates: [  0.569495536986743,  0.122222279027472,  0.016891169916930 ]
    mass: 118.710000
    reduced_to: 79
  - symbol: Sn # 81
    coordinates: [  0.902828870320076,  0.122222279027472,  0.016891169916930 ]
    mass: 118.710000
    reduced_to: 79
  - symbol: Sn # 82
    coordinates: [  0.236162203653409,  0.622222279027472,  0.016891169916930 ]
    mass: 118.710000
    reduced_to: 79
  - symbol: Sn # 83
    coordinates: [  0.569495536986743,  0.622222279027472,  0.016891169916930 ]
    mass: 118.710000
    reduced_to: 79
  - symbol: Sn # 84
    coordinates: [  0.902828870320076,  0.622222279027472,  0.016891169916930 ]
    mass: 118.710000
    reduced_to: 79

displacements:
- atom:    1
  displacement:
    [   0.0100000000000000,  0.0000000000000000,  0.0000000000000000 ]
  forces:
  - [  -0.0344948023557663, -0.0231293514370918,  0.0141515005379915 ]
  - [  -0.0215800851583481, -0.0231389608234167,  0.0141272582113743 ]
  - [  -0.0216261036694050, -0.0235962867736816,  0.0143401287496090 ]
  - [  -0.0215367618948221, -0.0233654137700796,  0.0142310652881861 ]
  - [  -0.0214711390435696, -0.0233565513044596,  0.0142329894006252 ]
  - [  -0.0214720033109188, -0.0233714208006859,  0.0142362825572491 ]
  - [   0.0143856704235077,  0.0288197603076696, -0.0040939459577203 ]
  - [   0.0143654402345419,  0.0292716417461634, -0.0041363891214132 ]
  - [   0.0136885521933436,  0.0290994085371494, -0.0043119001202285 ]
  - [   0.0143963620066643,  0.0290704369544983, -0.0041376017034054 ]
  - [   0.0143917798995972,  0.0290152672678232, -0.0041342736221850 ]
  - [   0.0144018204882741,  0.0290355756878853, -0.0041386429220438 ]
  - [   0.0119030121713877,  0.0107204094529152, -0.0260391533374786 ]
  - [   0.0118069443851709,  0.0106066605076194, -0.0262203961610794 ]
  - [   0.0117754749953747,  0.0107204671949148, -0.0260588489472866 ]
  - [   0.0116951204836369,  0.0106806335970759, -0.0261319614946842 ]
  - [   0.0117062367498875,  0.0106767509132624, -0.0261266566812992 ]
  - [   0.0117032602429390,  0.0106692770496011, -0.0261069387197495 ]
  - [  -0.0141201280057430, -0.0284440442919731,  0.0029374524019659 ]
  - [  -0.0140207922086120, -0.0285500567406416,  0.0031089819967747 ]
  - [  -0.0141494255512953, -0.0286795292049646,  0.0032249335199594 ]
  - [  -0.0140214096754789, -0.0285460464656353,  0.0031117498874664 ]
  - [  -0.0140366936102509, -0.0285474099218845,  0.0031064450740814 ]
  - [  -0.0140302591025829, -0.0285507068037987,  0.0031034648418427 ]
  - [   0.0148253301158547,  0.0273482035845518, -0.0009749233722687 ]
  - [   0.0150589160621166,  0.0273840967565775, -0.0013201273977757 ]
  - [   0.0148061942309141,  0.0274184606969357, -0.0015905760228634 ]
  - [   0.0150471888482571,  0.0273768305778503, -0.0013032220304012 ]
  - [   0.0150416810065508,  0.0273925159126520, -0.0013284273445606 ]
  - [   0.0150044187903404,  0.0273884590715170, -0.0013135522603989 ]
  - [   0.0097999544814229,  0.0039614513516426,  0.0000197142362595 ]
  - [   0.0095566781237721,  0.0037474669516087,  0.0001230277121067 ]
  - [   0.0098920017480850,  0.0035004708915949,  0.0002478808164597 ]
  - [   0.0093667870387435,  0.0040843952447176,  0.0000234986655414 ]
  - [   0.0095541691407561,  0.0037471167743206,  0.0001215655356646 ]
  - [   0.0093386601656675,  0.0034520952031016,  0.0002500656992197 ]
  - [   0.0227719433605671,  0.0231612138450146, -0.0131117608398199 ]
  - [   0.0226696953177452,  0.0232395529747009, -0.0132085755467415 ]
  - [   0.0226588025689125,  0.0232070777565241, -0.0131673943251371 ]
  - [   0.0226531121879816,  0.0232117157429457, -0.0131921190768480 ]
  - [   0.0226216185837984,  0.0232319273054600, -0.0131794996559620 ]
  - [   0.0226268693804741,  0.0232234820723534, -0.0131907928735018 ]
  - [  -0.0068351756781340, -0.0049636820331216, -0.0025924972724169 ]
  - [  -0.0101128686219454, -0.0035895388573408, -0.0002204766497016 ]
  - [  -0.0070703178644180, -0.0024299006909132,  0.0018855868838727 ]
  - [  -0.0101228477433324, -0.0035526901483536, -0.0002279970794916 ]
  - [  -0.0101235890761018, -0.0035896711051464, -0.0002206065692008 ]
  - [  -0.0101249646395445, -0.0036071315407753, -0.0002149166539311 ]
  - [   0.0004597115330398,  0.0344324558973312,  0.0007734857499599 ]
  - [   0.0004210853949189,  0.0343916192650795,  0.0006447751075029 ]
  - [   0.0005140509456396,  0.0344074517488480,  0.0006543826311827 ]
  - [  -0.0002435934729874,  0.0348060801625252,  0.0003966018557549 ]
  - [  -0.0001591243781149,  0.0340631529688835,  0.0009567216038704 ]
  - [   0.0000596279278398,  0.0344083644449711,  0.0006989389657974 ]
  - [  -0.0121901966631413, -0.0106471190229058,  0.0263813547790051 ]
  - [  -0.0121991261839867, -0.0106554655358195,  0.0264106057584286 ]
  - [  -0.0121356341987848, -0.0107059832662344,  0.0263824053108692 ]
  - [  -0.0122342240065336, -0.0107462536543608,  0.0266346447169781 ]
  - [  -0.0122485347092152, -0.0105735650286078,  0.0261387005448341 ]
  - [  -0.0133235398679972, -0.0104464907199144,  0.0263210311532021 ]
  - [  -0.0001749554648995, -0.0349466279149055, -0.0013463776558638 ]
  - [  -0.0001607579179108, -0.0349205210804939, -0.0013577211648226 ]
  - [  -0.0001806244254112, -0.0348986536264420, -0.0013570226728916 ]
  - [   0.0000633401796222, -0.0348436906933784, -0.0017439071089029 ]
  - [  -0.0001937346532941, -0.0349226817488670, -0.0013570226728916 ]
  - [   0.0000396631658077, -0.0349800027906895, -0.0010266434401274 ]
  - [  -0.0124405715614557, -0.0257796533405781,  0.0038093589246273 ]
  - [  -0.0154092274606228, -0.0276736840605736,  0.0022319331765175 ]
  - [  -0.0125417783856392, -0.0294584985822439,  0.0007813759148121 ]
  - [  -0.0152312749996781, -0.0274897348135710,  0.0023910440504551 ]
  - [  -0.0154325822368264, -0.0276733208447695,  0.0022330097854137 ]
  - [  -0.0152358775958419, -0.0277847871184349,  0.0020923465490341 ]
  - [  -0.0029271170496941, -0.0161567740142345,  0.0096028996631503 ]
  - [  -0.0046800449490547, -0.0152447707951069,  0.0088129360228777 ]
  - [  -0.0034667104482651, -0.0147852096706629,  0.0083920629695058 ]
  - [  -0.0046495720744133, -0.0153346471488476,  0.0088684791699052 ]
  - [  -0.0046283341944218, -0.0152480974793434,  0.0088157169520855 ]
  - [  -0.0046440586447716, -0.0151696596294641,  0.0087771443650126 ]
  - [   0.0044928379356861,  0.0154156796634197, -0.0093971183523536 ]
  - [   0.0043852329254150,  0.0155235975980759, -0.0092539982870221 ]
  - [   0.0044130831956863,  0.0156109537929296, -0.0091497646644711 ]
  - [   0.0044633410871029,  0.0156466197222471, -0.0093373721465468 ]
  - [   0.0043862760066986,  0.0155219621956348, -0.0092726340517402 ]
  - [   0.0044686645269394,  0.0154035296291113, -0.0091916974633932 ]
- atom:    1
  displacement:
    [  -0.0100000000000000,  0.0000000000000000,  0.0000000000000000 ]
  forces:
  - [  -0.0085126347839832, -0.0235826410353184,  0.0143182370811701 ]
  - [  -0.0213419832289219, -0.0235911831259727,  0.0143392961472273 ]
  - [  -0.0213880371302366, -0.0231329668313265,  0.0141253862529993 ]
  - [  -0.0214290544390678, -0.0233675129711628,  0.0142356660217047 ]
  - [  -0.0214937962591648, -0.0233766622841358,  0.0142335705459118 ]
  - [  -0.0214946474879980, -0.0233617238700390,  0.0142317023128271 ]
  - [   0.0144111672416329,  0.0292583703994751, -0.0041797049343586 ]
  - [   0.0144287282600999,  0.0288044661283493, -0.0041375481523573 ]
  - [   0.0151095576584339,  0.0289928875863552, -0.0039869258180261 ]
  - [   0.0143990721553564,  0.0290063004940748, -0.0041378750465810 ]
  - [   0.0144010428339243,  0.0290616862475872, -0.0041411863639951 ]
  - [   0.0143950637429953,  0.0290410742163658, -0.0041372459381819 ]
  - [   0.0115081695839763,  0.0106347501277924, -0.0261866301298141 ]
  - [   0.0116043128073215,  0.0107382275164127, -0.0260233320295811 ]
  - [   0.0116306170821190,  0.0106244124472141, -0.0261836498975754 ]
  - [   0.0117150563746691,  0.0106656849384308, -0.0261109545826912 ]
  - [   0.0117034092545509,  0.0106689436361194, -0.0261155739426613 ]
  - [   0.0117066660895944,  0.0106757301837206, -0.0261361449956894 ]
  - [  -0.0139330960810184, -0.0286618173122406,  0.0032760389149189 ]
  - [  -0.0140308123081923, -0.0285522826015949,  0.0031075524166226 ]
  - [  -0.0139018166810274, -0.0284251943230629,  0.0029875496402383 ]
  - [  -0.0140325911343098, -0.0285540446639061,  0.0031058453023434 ]
  - [  -0.0140174468979239, -0.0285533592104912,  0.0031089074909687 ]
  - [  -0.0140260960906744, -0.0285485349595547,  0.0031142216175795 ]
  - [   0.0152463354170322,  0.0274244640022516, -0.0016520507633686 ]
  - [   0.0150090763345361,  0.0273875612765551, -0.0013063065707684 ]
  - [   0.0152657665312290,  0.0273534357547760, -0.0010321848094463 ]
  - [   0.0150205288082361,  0.0273934192955494, -0.0013213306665421 ]
  - [   0.0150263234972954,  0.0273775123059750, -0.0012963935732841 ]
  - [   0.0150637561455369,  0.0273813996464014, -0.0013127252459526 ]
  - [   0.0092455595731735,  0.0035288836807013,  0.0002295300364494 ]
  - [   0.0094935102388263,  0.0037435572594404,  0.0001298189163208 ]
  - [   0.0091699436306953,  0.0039825439453125,  0.0000076182186604 ]
  - [   0.0096835782751441,  0.0034087561070919,  0.0002293423749506 ]
  - [   0.0094942767173052,  0.0037447167560458,  0.0001291185617447 ]
  - [   0.0097083905711770,  0.0040409071370959,  0.0000020186416805 ]
  - [   0.0225002653896809,  0.0232784375548363, -0.0132565498352051 ]
  - [   0.0225998889654875,  0.0232043117284775, -0.0131638478487730 ]
  - [   0.0226105134934187,  0.0232374817132950, -0.0132055245339870 ]
  - [   0.0226198770105839,  0.0232329703867435, -0.0131826829165220 ]
  - [   0.0226504784077406,  0.0232141111046076, -0.0131948590278625 ]
  - [   0.0226456467062235,  0.0232216082513332, -0.0131836589425802 ]
  - [  -0.0133684994652867, -0.0022463174536824,  0.0021031892392784 ]
  - [  -0.0101357176899910, -0.0035857595503330, -0.0002193744294345 ]
  - [  -0.0132229160517454, -0.0047756228595972, -0.0023720425087959 ]
  - [  -0.0101276785135269, -0.0036222236230969, -0.0002141827717423 ]
  - [  -0.0101273255422711, -0.0035847537219524, -0.0002198601141572 ]
  - [  -0.0101239364594221, -0.0035671629011631, -0.0002267602831125 ]
  - [   0.0002643023617566,  0.0343957208096981,  0.0006101224571466 ]
  - [   0.0002951808273792,  0.0344361253082752,  0.0007378254085779 ]
  - [   0.0002063279971480,  0.0344112068414688,  0.0007187481969595 ]
  - [   0.0009594988077879,  0.0340192541480064,  0.0009845867753029 ]
  - [   0.0008868565782905,  0.0347668454051018,  0.0004214085638523 ]
  - [   0.0006616981700063,  0.0344165973365307,  0.0006850343197584 ]
  - [  -0.0122611355036497, -0.0106556462123990,  0.0264013893902302 ]
  - [  -0.0122530758380890, -0.0106461253017187,  0.0263730622828007 ]
  - [  -0.0123172597959638, -0.0106107732281089,  0.0264008268713951 ]
  - [  -0.0122156906872988, -0.0105546182021499,  0.0261458754539490 ]
  - [  -0.0122041925787926, -0.0107277585193515,  0.0266440249979496 ]
  - [  -0.0111260600388050, -0.0108198896050453,  0.0264488458633423 ]
  - [  -0.0001549106091261, -0.0348936542868614, -0.0013619903475046 ]
  - [  -0.0001678387634456, -0.0349188111722469, -0.0013522058725357 ]
  - [  -0.0001466423273087, -0.0349415652453899, -0.0013518389314413 ]
  - [  -0.0003913007676601, -0.0349938720464706, -0.0009762886911631 ]
  - [  -0.0001340312883258, -0.0349176600575447, -0.0013550315052271 ]
  - [  -0.0003686165437102, -0.0348579324781895, -0.0016941316425800 ]
  - [  -0.0183456502854824, -0.0295400172472000,  0.0006847269833088 ]
  - [  -0.0154137797653675, -0.0276745799928904,  0.0022278651595116 ]
  - [  -0.0183175560086966, -0.0258612297475338,  0.0037095397710800 ]
  - [  -0.0155925117433071, -0.0278486274182796,  0.0020733922719955 ]
  - [  -0.0153899686411023, -0.0276728961616755,  0.0022296644747257 ]
  - [  -0.0155872600153089, -0.0275548696517944,  0.0023724101483822 ]
  - [  -0.0062560886144638, -0.0143805481493473,  0.0080687226727605 ]
  - [  -0.0045469887554646, -0.0152526609599590,  0.0088224429637194 ]
  - [  -0.0057888142764568, -0.0157379601150751,  0.0092666922137141 ]
  - [  -0.0045738592743874, -0.0151581931859255,  0.0087699834257364 ]
  - [  -0.0045942738652229, -0.0152479428797960,  0.0088221272453666 ]
  - [  -0.0045851990580559, -0.0153272710740566,  0.0088601596653461 ]
  - [   0.0042923465371132,  0.0156227629631758, -0.0091275144368410 ]
  - [   0.0043958351016045,  0.0155156124383211, -0.0092734573408961 ]
  - [   0.0043736323714256,  0.0154284499585629, -0.0093776797875762 ]
  - [   0.0043236836791039,  0.0153924375772476, -0.0091913668438792 ]
  - [   0.0044019110500813,  0.0155144575983286, -0.0092568155378103 ]
  - [   0.0043129809200764,  0.0156366657465696, -0.0093387337401509 ]
- atom:    1
  displacement:
    [   0.0000568278412185,  0.0099998385285195,  0.0000000000000000 ]
  forces:
  - [  -0.0213395617902279, -0.0379704236984253,  0.0129192993044853 ]
  - [  -0.0217159427702427, -0.0233868360519409,  0.0142649337649345 ]
  - [  -0.0212582238018513, -0.0233894363045692,  0.0142652522772551 ]
  - [  -0.0214818790555000, -0.0232026241719723,  0.0141963772475719 ]
  - [  -0.0214867871254683, -0.0233453996479511,  0.0142355114221573 ]
  - [  -0.0214738622307777, -0.0233454350382090,  0.0142438951879740 ]
  - [   0.0146618112921715,  0.0293138008564711, -0.0040021380409598 ]
  - [   0.0141699649393559,  0.0292871315032244, -0.0040112030692399 ]
  - [   0.0144490571692586,  0.0288189966231585, -0.0053686108440161 ]
  - [   0.0143894767388701,  0.0290366280823946, -0.0041399924084544 ]
  - [   0.0144094303250313,  0.0290330834686756, -0.0041467770934105 ]
  - [   0.0143909603357315,  0.0290617700666189, -0.0041311848908663 ]
  - [   0.0117085697129369,  0.0111802211031318, -0.0253870375454426 ]