# Thermal properties / unit cell (natom)

unit:
  temperature:   K
  free_energy:   kJ/mol
  entropy:       J/K/mol
  heat_capacity: J/K/mol

natom: 6    
cutoff_frequency: 0.00000
num_modes: 165600
num_integrated_modes: 161836

zero_point_energy:      16.9446852

thermal_properties:
- temperature:         0.0000000
  free_energy:        16.9446852
  entropy:             0.0000000
  heat_capacity:       0.0000000
  energy:             16.9446852

- temperature:        10.0000000
  free_energy:        16.9380281
  entropy:             2.0531791
  heat_capacity:       4.4409410
  energy:             16.9585599

- temperature:        20.0000000
  free_energy:        16.8873245
  entropy:             8.7836612
  heat_capacity:      17.2121709
  energy:             17.0629977

- temperature:        30.0000000
  free_energy:        16.7526077
  entropy:            18.4556656
  heat_capacity:      31.2050918
  energy:             17.3062776

- temperature:        40.0000000
  free_energy:        16.5150336
  entropy:            29.1215046
  heat_capacity:      43.1671089
  energy:             17.6798937

- temperature:        50.0000000
  free_energy:        16.1699131
  entropy:            39.8870286
  heat_capacity:      53.5191389
  energy:             18.1642645

- temperature:        60.0000000
  free_energy:        15.7178372
  entropy:            50.4946097
  heat_capacity:      63.0208570
  energy:             18.7475138

- temperature:        70.0000000
  free_energy:        15.1607521
  entropy:            60.8834405
  heat_capacity:      71.8873732
  energy:             19.4225929

- temperature:        80.0000000
  free_energy:        14.5009946
  entropy:            71.0243049
  heat_capacity:      80.0570152
  energy:             20.1829390

- temperature:        90.0000000
  free_energy:        13.7411903
  entropy:            80.8879402
  heat_capacity:      87.4403618
  energy:             21.0211050

- temperature:       100.0000000
  free_energy:        12.8842500
  entropy:            90.4475819
  heat_capacity:      94.0042779
  energy:             21.9290082

- temperature:       110.0000000
  free_energy:        11.9333178
  entropy:            99.6838093
  heat_capacity:      99.7732872
  energy:             22.8985368

- temperature:       120.0000000
  free_energy:        10.8916876
  entropy:           108.5861575
  heat_capacity:     104.8086173
  energy:             23.9220265

- temperature:       130.0000000
  free_energy:         9.7627158
  entropy:           117.1523670
  heat_capacity:     109.1883533
  energy:             24.9925235

- temperature:       140.0000000
  free_energy:         8.5497472
  entropy:           125.3866688
  heat_capacity:     112.9941023
  energy:             26.1038808

- temperature:       150.0000000
  free_energy:         7.2560595
  entropy:           133.2979495
  heat_capacity:     116.3035039
  energy:             27.2507519

- temperature:       160.0000000
  free_energy:         5.8848253
  entropy:           140.8981621
  heat_capacity:     119.1867099
  energy:             28.4285312

- temperature:       170.0000000
  free_energy:         4.4390873
  entropy:           148.2010830
  heat_capacity:     121.7052208
  energy:             29.6332714

- temperature:       180.0000000
  free_energy:         2.9217457
  entropy:           155.2213983
  heat_capacity:     123.9119881
  energy:             30.8615973

- temperature:       190.0000000
  free_energy:         1.3355515
  entropy:           161.9740614
  heat_capacity:     125.8521192
  energy:             32.1106232

- temperature:       200.0000000
  free_energy:        -0.3168927
  entropy:           168.4738583
  heat_capacity:     127.5638118
  energy:             33.3778789

- temperature:       210.0000000
  free_energy:        -2.0331306
  entropy:           174.7351269
  heat_capacity:     129.0793212
  energy:             34.6612460

- temperature:       220.0000000
  free_energy:        -3.8108460
  entropy:           180.7715845
  heat_capacity:     130.4258639
  energy:             35.9589026

- temperature:       230.0000000
  free_energy:        -5.6478564
  entropy:           186.5962323
  heat_capacity:     131.6264203
  energy:             37.2692771

- temperature:       240.0000000
  free_energy:        -7.5421055
  entropy:           192.2213124
  heat_capacity:     132.7004250
  energy:             38.5910095

- temperature:       250.0000000
  free_energy:        -9.4916557
  entropy:           197.6582986
  heat_capacity:     133.6643519
  energy:             39.9229189

- temperature:       260.0000000
  free_energy:       -11.4946803
  entropy:           202.9179108
  heat_capacity:     134.5322021
  energy:             41.2639765

- temperature:       270.0000000
  free_energy:       -13.5494561
  entropy:           208.0101436
  heat_capacity:     135.3159114
  energy:             42.6132827

- temperature:       280.0000000
  free_energy:       -15.6543563
  entropy:           212.9443028
  heat_capacity:     136.0256864
  energy:             43.9700484

- temperature:       290.0000000
  free_energy:       -17.8078441
  entropy:           217.7290463
  heat_capacity:     136.6702838
  energy:             45.3335793

- temperature:       300.0000000
  free_energy:       -20.0084661
  entropy:           222.3724274
  heat_capacity:     137.2572409
  energy:             46.7032621

- temperature:       310.0000000
  free_energy:       -22.2548465
  entropy:           226.8819364
  heat_capacity:     137.7930664
  energy:             48.0785538

- temperature:       320.0000000
  free_energy:       -24.5456819
  entropy:           231.2645430
  heat_capacity:     138.2833994
  energy:             49.4589719

- temperature:       330.0000000
  free_energy:       -26.8797360
  entropy:           235.5267350
  heat_capacity:     138.7331408
  energy:             50.8440865

- temperature:       340.0000000
  free_energy:       -29.2558354
  entropy:           239.6745561
  heat_capacity:     139.1465637
  energy:             52.2335137

- temperature:       350.0000000
  free_energy:       -31.6728647
  entropy:           243.7136400
  heat_capacity:     139.5274045
  energy:             53.6269092

- temperature:       360.0000000
  free_energy:       -34.1297633
  entropy:           247.6492428
  heat_capacity:     139.8789407
  energy:             55.0239641

- temperature:       370.0000000
  free_energy:       -36.6255211
  entropy:           251.4862732
  heat_capacity:     140.2040551
  energy:             56.4244000

- temperature:       380.0000000
  free_energy:       -39.1591755
  entropy:           255.2293189
  heat_capacity:     140.5052902
  energy:             57.8279657

- temperature:       390.0000000
  free_energy:       -41.7298085
  entropy:           258.8826724
  heat_capacity:     140.7848951
  energy:             59.2344338

- temperature:       400.0000000
  free_energy:       -44.3365434
  entropy:           262.4503539
  heat_capacity:     141.0448639
  energy:             60.6435981

- temperature:       410.0000000
  free_energy:       -46.9785426
  entropy:           265.9361319
  heat_capacity:     141.2869695
  energy:             62.0552715

- temperature:       420.0000000
  free_energy:       -49.6550048
  entropy:           269.3435431
  heat_capacity:     141.5127915
  energy:             63.4692833

- temperature:       430.0000000
  free_energy:       -52.3651633
  entropy:           272.6759095
  heat_capacity:     141.7237411
  energy:             64.8854778

- temperature:       440.0000000
  free_energy:       -55.1082833
  entropy:           275.9363547
  heat_capacity:     141.9210818
  energy:             66.3037127

- temperature:       450.0000000
  free_energy:       -57.8836605
  entropy:           279.1278185
  heat_capacity:     142.1059468
  energy:             67.7238578

- temperature:       460.0000000
  free_energy:       -60.6906190
  entropy:           282.2530707
  heat_capacity:     142.2793556
  energy:             69.1457935

- temperature:       470.0000000
  free_energy:       -63.5285099
  entropy:           285.3147229
  heat_capacity:     142.4422263
  energy:             70.5694098

- temperature:       480.0000000
  free_energy:       -66.3967097
  entropy:           288.3152404
  heat_capacity:     142.5953878
  energy:             71.9946057

- temperature:       490.0000000
  free_energy:       -69.2946187
  entropy:           291.2569520
  heat_capacity:     142.7395901
  energy:             73.4212877

- temperature:       500.0000000
  free_energy:       -72.2216601
  entropy:           294.1420599
  heat_capacity:     142.8755125
  energy:             74.8493699

- temperature:       510.0000000
  free_energy:       -75.1772782
  entropy:           296.9726483
  heat_capacity:     143.0037718
  energy:             76.2787725

- temperature:       520.0000000
  free_energy:       -78.1609379
  entropy:           299.7506914
  heat_capacity:     143.1249289
  energy:             77.7094217

- temperature:       530.0000000
  free_energy:       -81.1721231
  entropy:           302.4780607
  heat_capacity:     143.2394948
  energy:             79.1412491

- temperature:       540.0000000
  free_energy:       -84.2103361
  entropy:           305.1565320
  heat_capacity:     143.3479354
  energy:             80.5741911

- temperature:       550.0000000
  free_energy:       -87.2750964
  entropy:           307.7877912
  heat_capacity:     143.4506768
  energy:             82.0081888

- temperature:       560.0000000
  free_energy:       -90.3659399
  entropy:           310.3734409
  heat_capacity:     143.5481087
  energy:             83.4431870

- temperature:       570.0000000
  free_energy:       -93.4824183
  entropy:           312.9150048
  heat_capacity:     143.6405884
  energy:             84.8791345

- temperature:       580.0000000
  free_energy:       -96.6240979
  entropy:           315.4139332
  heat_capacity:     143.7284439
  energy:             86.3159833

- temperature:       590.0000000
  free_energy:       -99.7905594
  entropy:           317.8716074
  heat_capacity:     143.8119764
  energy:             87.7536889

- temperature:       600.0000000
  free_energy:      -102.9813969
  entropy:           320.2893439
  heat_capacity:     143.8914634
  energy:             89.1922094

- temperature:       610.0000000
  free_energy:      -106.1962174
  entropy:           322.6683983
  heat_capacity:     143.9671605
  energy:             90.6315056

- temperature:       620.0000000
  free_energy:      -109.4346400
  entropy:           325.0099689
  heat_capacity:     144.0393034
  energy:             92.0715407

- temperature:       630.0000000
  free_energy:      -112.6962956
  entropy:           327.3152002
  heat_capacity:     144.1081102
  energy:             93.5122805

- temperature:       640.0000000
  free_energy:      -115.9808265
  entropy:           329.5851859
  heat_capacity:     144.1737823
  energy:             94.9536925

- temperature:       650.0000000
  free_energy:      -119.2878854
  entropy:           331.8209718
  heat_capacity:     144.2365063
  energy:             96.3957463

- temperature:       660.0000000
  free_energy:      -122.6171353
  entropy:           334.0235586
  heat_capacity:     144.2964553
  energy:             97.8384134

- temperature:       670.0000000
  free_energy:      -125.9682491
  entropy:           336.1939042
  heat_capacity:     144.3537897
  energy:             99.2816667

- temperature:       680.0000000
  free_energy:      -129.3409089
  entropy:           338.3329263
  heat_capacity:     144.4086588
  energy:            100.7254810

- temperature:       690.0000000
  free_energy:      -132.7348061
  entropy:           340.4415047
  heat_capacity:     144.4612013
  energy:            102.1698321

- temperature:       700.0000000
  free_energy:      -136.1496404
  entropy:           342.5204829
  heat_capacity:     144.5115463
  energy:            103.6146977

- temperature:       710.0000000
  free_energy:      -139.5851198
  entropy:           344.5706704
  heat_capacity:     144.5598142
  energy:            105.0600561

- temperature:       720.0000000
  free_energy:      -143.0409604
  entropy:           346.5928442
  heat_capacity:     144.6061171
  energy:            106.5058874

- temperature:       730.0000000
  free_energy:      -146.5168858
  entropy:           348.5877508
  heat_capacity:     144.6505600
  energy:            107.9521723

- temperature:       740.0000000
  free_energy:      -150.0126269
  entropy:           350.5561076
  heat_capacity:     144.6932408
  energy:            109.3988927

- temperature:       750.0000000
  free_energy:      -153.5279218
  entropy:           352.4986044
  heat_capacity:     144.7342510
  energy:            110.8460315

- temperature:       760.0000000
  free_energy:      -157.0625150
  entropy:           354.4159046
  heat_capacity:     144.7736763
  energy:            112.2935725

- temperature:       770.0000000
  free_energy:      -160.6161580
  entropy:           356.3086468
  heat_capacity:     144.8115972
  energy:            113.7415001

- temperature:       780.0000000
  free_energy:      -164.1886082
  entropy:           358.1774459
  heat_capacity:     144.8480890
  energy:            115.1897996

- temperature:       790.0000000
  free_energy:      -167.7796291
  entropy:           360.0228942
  heat_capacity:     144.8832223
  energy:            116.6384573

- temperature:       800.0000000
  free_energy:      -171.3889901
  entropy:           361.8455624
  heat_capacity:     144.9170634
  energy:            118.0874598

- temperature:       810.0000000
  free_energy:      -175.0164662
  entropy:           363.6460009
  heat_capacity:     144.9496749
  energy:            119.5367945

- temperature:       820.0000000
  free_energy:      -178.6618378
  entropy:           365.4247405
  heat_capacity:     144.9811154
  energy:            120.9864494

- temperature:       830.0000000
  free_energy:      -182.3248904
  entropy:           367.1822933
  heat_capacity:     145.0114400
  energy:            122.4364131

- temperature:       840.0000000
  free_energy:      -186.0054147
  entropy:           368.9191540
  heat_capacity:     145.0407009
  energy:            123.8866746

- temperature:       850.0000000
  free_energy:      -189.7032061
  entropy:           370.6357998
  heat_capacity:     145.0689471
  energy:            125.3372237

- temperature:       860.0000000
  free_energy:      -193.4180648
  entropy:           372.3326921
  heat_capacity:     145.0962248
  energy:            126.7880503

- temperature:       870.0000000
  free_energy:      -197.1497956
  entropy:           374.0102767
  heat_capacity:     145.1225776
  energy:            128.2391451

- temperature:       880.0000000
  free_energy:      -200.8982075
  entropy:           375.6689846
  heat_capacity:     145.1480469
  energy:            129.6904990

- temperature:       890.0000000
  free_energy:      -204.6631138
  entropy:           377.3092326
  heat_capacity:     145.1726715
  energy:            131.1421032

- temperature:       900.0000000
  free_energy:      -208.4443319
  entropy:           378.9314240
  heat_capacity:     145.1964884
  energy:            132.5939497

- temperature:       910.0000000
  free_energy:      -212.2416834
  entropy:           380.5359492
  heat_capacity:     145.2195322
  energy:            134.0460304

- temperature:       920.0000000
  free_energy:      -216.0549933
  entropy:           382.1231860
  heat_capacity:     145.2418362
  energy:            135.4983379

- temperature:       930.0000000
  free_energy:      -219.8840907
  entropy:           383.6935005
  heat_capacity:     145.2634315
  energy:            136.9508648

- temperature:       940.0000000
  free_energy:      -223.7288081
  entropy:           385.2472471
  heat_capacity:     145.2843478
  energy:            138.4036042

- temperature:       950.0000000
  free_energy:      -227.5889815
  entropy:           386.7847696
  heat_capacity:     145.3046131
  energy:            139.8565496

- temperature:       960.0000000
  free_energy:      -231.4644505
  entropy:           388.3064009
  heat_capacity:     145.3242542
  energy:            141.3096944

- temperature:       970.0000000
  free_energy:      -235.3550577
  entropy:           389.8124642
  heat_capacity:     145.3432964
  energy:            142.7630327

- temperature:       980.0000000
  free_energy:      -239.2606489
  entropy:           391.3032728
  heat_capacity:     145.3617637
  energy:            144.2165584

- temperature:       990.0000000
  free_energy:      -243.1810733
  entropy:           392.7791307
  heat_capacity:     145.3796790
  energy:            145.6702661

- temperature:      1000.0000000
  free_energy:      -247.1161827
  entropy:           394.2403329
  heat_capacity:     145.3970640
  energy:            147.1241502
