phonopy:
  version: "2.37.1"
  frequency_unit_conversion_factor: 15.633302
  symmetry_tolerance: 1.00000e-05

space_group:
  type: "P1"
  number: 1
  Hall_symbol: "P 1"

primitive_matrix:
- [  0.000000000000000,  1.000000000000000,  1.000000000000000 ]
- [  1.000000000000000, -1.000000000000000, -1.000000000000000 ]
- [  0.000000000000000,  0.000000000000000, -1.000000000000000 ]

supercell_matrix:
- [   3,   0,   0 ]
- [   0,   3,   0 ]
- [   0,   0,   1 ]

primitive_cell:
  lattice:
  - [     2.296373443532803,     3.981253295782200,     0.000000000000000 ] # a
  - [     2.305819840869435,    -3.981253295782200,     0.000000000000000 ] # b
  - [    -2.253887405799374,     1.284824799025224,   -12.635059191625842 ] # c
  points:
  - symbol: Li # 1
    coordinates: [  0.023832729479265,  0.134653297083724,  0.441540796853593 ]
    mass: 6.940000
  - symbol: Li # 2
    coordinates: [  0.258167085840916,  0.601906715461018,  0.142208667977445 ]
    mass: 6.940000
  - symbol: Li # 3
    coordinates: [  0.947163711631509,  0.981257536966660,  0.205324504423162 ]
    mass: 6.940000
  - symbol: Li # 4
    coordinates: [  0.872605982521420,  0.832600835584742,  0.977072436091093 ]
    mass: 6.940000
  - symbol: Li # 5
    coordinates: [  0.334830359247793,  0.755345829078621,  0.378424494809413 ]
    mass: 6.940000
  - symbol: Li # 6
    coordinates: [  0.099701755978046,  0.284691650712579,  0.674116056275451 ]
    mass: 6.940000
  - symbol: Li # 7
    coordinates: [  0.182256360623785,  0.451899748611434,  0.909641211719453 ]
    mass: 6.940000
  - symbol: Li # 8
    coordinates: [  0.409373803220479,  0.903956582532534,  0.606680480585701 ]
    mass: 6.940000
  - symbol: Ga # 9
    coordinates: [  0.796210530384208,  0.680698048425573,  0.762217312725174 ]
    mass: 69.723000
  - symbol: Ga # 10
    coordinates: [  0.485731088654275,  0.055906511761047,  0.821535441125265 ]
    mass: 69.723000
  - symbol: Sn # 11
    coordinates: [  0.562610439820812,  0.211576363114676,  0.050294746166171 ]
    mass: 118.710000
  - symbol: Sn # 12
    coordinates: [  0.641006569186561,  0.368304990045611,  0.291875765938112 ]
    mass: 118.710000
  - symbol: Sn # 13
    coordinates: [  0.719359740005954,  0.524972962979995,  0.533455636638162 ]
    mass: 118.710000
  reciprocal_lattice: # without 2pi
  - [     0.217287701363870,     0.125846374435035,    -0.025963587967597 ] # a*
  - [     0.217287701363870,    -0.125330811668501,    -0.051505112764654 ] # b*
  - [     0.000000000000000,     0.000000000000000,    -0.079144860727109 ] # c*

unit_cell:
  lattice:
  - [     4.602193284402239,     0.000000000000000,     0.000000000000000 ] # a
  - [     2.296373443532804,     3.981253295782200,     0.000000000000000 ] # b
  - [     4.559707246668809,    -5.266078094807423,    12.635059191625839 ] # c
  points:
  - symbol: Li # 1
    coordinates: [  0.576194093937317,  0.447638635541947,  0.558459203146407 ]
    mass: 6.940000
    reduced_to: 1
  - symbol: Li # 2
    coordinates: [  0.744115383438463,  0.514051702402452,  0.857791332022555 ]
    mass: 6.940000
    reduced_to: 2
  - symbol: Li # 3
    coordinates: [  0.186582041389822,  0.760581670241686,  0.794675495576838 ]
    mass: 6.940000
    reduced_to: 3
  - symbol: Li # 4
    coordinates: [  0.809673271675835,  0.062932710845585,  0.022927563908907 ]
    mass: 6.940000
    reduced_to: 4
  - symbol: Li # 5
    coordinates: [  0.133770323888035,  0.201060035359758,  0.621575505190587 ]
    mass: 6.940000
    reduced_to: 5
  - symbol: Li # 6
    coordinates: [  0.958807706988029,  0.140894048990017,  0.325883943724549 ]
    mass: 6.940000
    reduced_to: 6
  - symbol: Li # 7
    coordinates: [  0.361540960330887,  0.820715400292897,  0.090358788280547 ]
    mass: 6.940000
    reduced_to: 7
  - symbol: Li # 8
    coordinates: [  0.510637063118234,  0.898736740102246,  0.393319519414299 ]
    mass: 6.940000
    reduced_to: 8
  - symbol: Ga # 9
    coordinates: [  0.442915361150747,  0.353295169233461,  0.237782687274826 ]
    mass: 69.723000
    reduced_to: 9
  - symbol: Ga # 10
    coordinates: [  0.877441952886312,  0.608289135767962,  0.178464558874735 ]
    mass: 69.723000
    reduced_to: 10
  - symbol: Sn # 11
    coordinates: [  0.261871109280847,  0.300739330539966,  0.949705253833829 ]
    mass: 118.710000
    reduced_to: 11
  - symbol: Sn # 12
    coordinates: [  0.660180755983723,  0.980825813202838,  0.708124234061888 ]
    mass: 118.710000
    reduced_to: 12
  - symbol: Sn # 13
    coordinates: [  0.058428599618158,  0.660931140387796,  0.466544363361838 ]
    mass: 118.710000
    reduced_to: 13

supercell:
  lattice:
  - [    13.806579853206717,     0.000000000000000,     0.000000000000000 ] # a
  - [     6.889120330598411,    11.943759887346600,     0.000000000000000 ] # b
  - [     4.559707246668809,    -5.266078094807423,    12.635059191625839 ] # c
  points:
  - symbol: Li # 1
    coordinates: [  0.192064697979106,  0.149212878513982,  0.558459203146407 ]
    mass: 6.940000
    reduced_to: 1
  - symbol: Li # 2
    coordinates: [  0.525398031312439,  0.149212878513982,  0.558459203146407 ]
    mass: 6.940000
    reduced_to: 1
  - symbol: Li # 3
    coordinates: [  0.858731364645772,  0.149212878513982,  0.558459203146407 ]
    mass: 6.940000
    reduced_to: 1
  - symbol: Li # 4
    coordinates: [  0.192064697979106,  0.482546211847316,  0.558459203146407 ]
    mass: 6.940000
    reduced_to: 1
  - symbol: Li # 5
    coordinates: [  0.525398031312439,  0.482546211847316,  0.558459203146407 ]
    mass: 6.940000
    reduced_to: 1
  - symbol: Li # 6
    coordinates: [  0.858731364645772,  0.482546211847316,  0.558459203146407 ]
    mass: 6.940000
    reduced_to: 1
  - symbol: Li # 7
    coordinates: [  0.192064697979106,  0.815879545180649,  0.558459203146407 ]
    mass: 6.940000
    reduced_to: 1
  - symbol: Li # 8
    coordinates: [  0.525398031312439,  0.815879545180649,  0.558459203146407 ]
    mass: 6.940000
    reduced_to: 1
  - symbol: Li # 9
    coordinates: [  0.858731364645772,  0.815879545180649,  0.558459203146407 ]
    mass: 6.940000
    reduced_to: 1
  - symbol: Li # 10
    coordinates: [  0.248038461146154,  0.171350567467484,  0.857791332022555 ]
    mass: 6.940000
    reduced_to: 10
  - symbol: Li # 11
    coordinates: [  0.581371794479488,  0.171350567467484,  0.857791332022555 ]
    mass: 6.940000
    reduced_to: 10
  - symbol: Li # 12
    coordinates: [  0.914705127812821,  0.171350567467484,  0.857791332022555 ]
    mass: 6.940000
    reduced_to: 10
  - symbol: Li # 13
    coordinates: [  0.248038461146154,  0.504683900800817,  0.857791332022555 ]
    mass: 6.940000
    reduced_to: 10
  - symbol: Li # 14
    coordinates: [  0.581371794479488,  0.504683900800817,  0.857791332022555 ]
    mass: 6.940000
    reduced_to: 10
  - symbol: Li # 15
    coordinates: [  0.914705127812821,  0.504683900800817,  0.857791332022555 ]
    mass: 6.940000
    reduced_to: 10
  - symbol: Li # 16
    coordinates: [  0.248038461146154,  0.838017234134151,  0.857791332022555 ]
    mass: 6.940000
    reduced_to: 10
  - symbol: Li # 17
    coordinates: [  0.581371794479488,  0.838017234134151,  0.857791332022555 ]
    mass: 6.940000
    reduced_to: 10
  - symbol: Li # 18
    coordinates: [  0.914705127812821,  0.838017234134151,  0.857791332022555 ]
    mass: 6.940000
    reduced_to: 10
  - symbol: Li # 19
    coordinates: [  0.062194013796607,  0.253527223413895,  0.794675495576838 ]
    mass: 6.940000
    reduced_to: 19
  - symbol: Li # 20
    coordinates: [  0.395527347129941,  0.253527223413895,  0.794675495576838 ]
    mass: 6.940000
    reduced_to: 19
  - symbol: Li # 21
    coordinates: [  0.728860680463274,  0.253527223413895,  0.794675495576838 ]
    mass: 6.940000
    reduced_to: 19
  - symbol: Li # 22
    coordinates: [  0.062194013796607,  0.586860556747229,  0.794675495576838 ]
    mass: 6.940000
    reduced_to: 19
  - symbol: Li # 23
    coordinates: [  0.395527347129941,  0.586860556747229,  0.794675495576838 ]
    mass: 6.940000
    reduced_to: 19
  - symbol: Li # 24
    coordinates: [  0.728860680463274,  0.586860556747229,  0.794675495576838 ]
    mass: 6.940000
    reduced_to: 19
  - symbol: Li # 25
    coordinates: [  0.062194013796607,  0.920193890080562,  0.794675495576838 ]
    mass: 6.940000
    reduced_to: 19
  - symbol: Li # 26
    coordinates: [  0.395527347129941,  0.920193890080562,  0.794675495576838 ]
    mass: 6.940000
    reduced_to: 19
  - symbol: Li # 27
    coordinates: [  0.728860680463274,  0.920193890080562,  0.794675495576838 ]
    mass: 6.940000
    reduced_to: 19
  - symbol: Li # 28
    coordinates: [  0.269891090558612,  0.020977570281862,  0.022927563908907 ]
    mass: 6.940000
    reduced_to: 28
  - symbol: Li # 29
    coordinates: [  0.603224423891945,  0.020977570281862,  0.022927563908907 ]
    mass: 6.940000
    reduced_to: 28
  - symbol: Li # 30
    coordinates: [  0.936557757225278,  0.020977570281862,  0.022927563908907 ]
    mass: 6.940000
    reduced_to: 28
  - symbol: Li # 31
    coordinates: [  0.269891090558612,  0.354310903615195,  0.022927563908907 ]
    mass: 6.940000
    reduced_to: 28
  - symbol: Li # 32
    coordinates: [  0.603224423891945,  0.354310903615195,  0.022927563908907 ]
    mass: 6.940000
    reduced_to: 28
  - symbol: Li # 33
    coordinates: [  0.936557757225278,  0.354310903615195,  0.022927563908907 ]
    mass: 6.940000
    reduced_to: 28
  - symbol: Li # 34
    coordinates: [  0.269891090558612,  0.687644236948528,  0.022927563908907 ]
    mass: 6.940000
    reduced_to: 28
  - symbol: Li # 35
    coordinates: [  0.603224423891945,  0.687644236948528,  0.022927563908907 ]
    mass: 6.940000
    reduced_to: 28
  - symbol: Li # 36
    coordinates: [  0.936557757225278,  0.687644236948528,  0.022927563908907 ]
    mass: 6.940000
    reduced_to: 28
  - symbol: Li # 37
    coordinates: [  0.044590107962678,  0.067020011786586,  0.621575505190587 ]
    mass: 6.940000
    reduced_to: 37
  - symbol: Li # 38
    coordinates: [  0.377923441296012,  0.067020011786586,  0.621575505190587 ]
    mass: 6.940000
    reduced_to: 37
  - symbol: Li # 39
    coordinates: [  0.711256774629345,  0.067020011786586,  0.621575505190587 ]
    mass: 6.940000
    reduced_to: 37
  - symbol: Li # 40
    coordinates: [  0.044590107962678,  0.400353345119919,  0.621575505190587 ]
    mass: 6.940000
    reduced_to: 37
  - symbol: Li # 41
    coordinates: [  0.377923441296012,  0.400353345119919,  0.621575505190587 ]
    mass: 6.940000
    reduced_to: 37
  - symbol: Li # 42
    coordinates: [  0.711256774629345,  0.400353345119919,  0.621575505190587 ]
    mass: 6.940000
    reduced_to: 37
  - symbol: Li # 43
    coordinates: [  0.044590107962678,  0.733686678453253,  0.621575505190587 ]
    mass: 6.940000
    reduced_to: 37
  - symbol: Li # 44
    coordinates: [  0.377923441296012,  0.733686678453253,  0.621575505190587 ]
    mass: 6.940000
    reduced_to: 37
  - symbol: Li # 45
    coordinates: [  0.711256774629345,  0.733686678453253,  0.621575505190587 ]
    mass: 6.940000
    reduced_to: 37
  - symbol: Li # 46
    coordinates: [  0.319602568996010,  0.046964682996672,  0.325883943724549 ]
    mass: 6.940000
    reduced_to: 46
  - symbol: Li # 47
    coordinates: [  0.652935902329343,  0.046964682996672,  0.325883943724549 ]
    mass: 6.940000
    reduced_to: 46
  - symbol: Li # 48
    coordinates: [  0.986269235662676,  0.046964682996672,  0.325883943724549 ]
    mass: 6.940000
    reduced_to: 46
  - symbol: Li # 49
    coordinates: [  0.319602568996010,  0.380298016330005,  0.325883943724549 ]
    mass: 6.940000
    reduced_to: 46
  - symbol: Li # 50
    coordinates: [  0.652935902329343,  0.380298016330005,  0.325883943724549 ]
    mass: 6.940000
    reduced_to: 46
  - symbol: Li # 51
    coordinates: [  0.986269235662676,  0.380298016330005,  0.325883943724549 ]
    mass: 6.940000
    reduced_to: 46
  - symbol: Li # 52
    coordinates: [  0.319602568996010,  0.713631349663339,  0.325883943724549 ]
    mass: 6.940000
    reduced_to: 46
  - symbol: Li # 53
    coordinates: [  0.652935902329343,  0.713631349663339,  0.325883943724549 ]
    mass: 6.940000
    reduced_to: 46
  - symbol: Li # 54
    coordinates: [  0.986269235662676,  0.713631349663339,  0.325883943724549 ]
    mass: 6.940000
    reduced_to: 46
  - symbol: Li # 55
    coordinates: [  0.120513653443629,  0.273571800097632,  0.090358788280547 ]
    mass: 6.940000
    reduced_to: 55
  - symbol: Li # 56
    coordinates: [  0.453846986776962,  0.273571800097632,  0.090358788280547 ]
    mass: 6.940000
    reduced_to: 55
  - symbol: Li # 57
    coordinates: [  0.787180320110296,  0.273571800097632,  0.090358788280547 ]
    mass: 6.940000
    reduced_to: 55
  - symbol: Li # 58
    coordinates: [  0.120513653443629,  0.606905133430966,  0.090358788280547 ]
    mass: 6.940000
    reduced_to: 55
  - symbol: Li # 59
    coordinates: [  0.453846986776962,  0.606905133430966,  0.090358788280547 ]
    mass: 6.940000
    reduced_to: 55
  - symbol: Li # 60
    coordinates: [  0.787180320110296,  0.606905133430966,  0.090358788280547 ]
    mass: 6.940000
    reduced_to: 55
  - symbol: Li # 61
    coordinates: [  0.120513653443629,  0.940238466764299,  0.090358788280547 ]
    mass: 6.940000
    reduced_to: 55
  - symbol: Li # 62
    coordinates: [  0.453846986776962,  0.940238466764299,  0.090358788280547 ]
    mass: 6.940000
    reduced_to: 55
  - symbol: Li # 63
    coordinates: [  0.787180320110296,  0.940238466764299,  0.090358788280547 ]
    mass: 6.940000
    reduced_to: 55
  - symbol: Li # 64
    coordinates: [  0.170212354372745,  0.299578913367415,  0.393319519414299 ]
    mass: 6.940000
    reduced_to: 64
  - symbol: Li # 65
    coordinates: [  0.503545687706078,  0.299578913367415,  0.393319519414299 ]
    mass: 6.940000
    reduced_to: 64
  - symbol: Li # 66
    coordinates: [  0.836879021039411,  0.299578913367415,  0.393319519414299 ]
    mass: 6.940000
    reduced_to: 64
  - symbol: Li # 67
    coordinates: [  0.170212354372745,  0.632912246700749,  0.393319519414299 ]
    mass: 6.940000
    reduced_to: 64
  - symbol: Li # 68
    coordinates: [  0.503545687706078,  0.632912246700749,  0.393319519414299 ]
    mass: 6.940000
    reduced_to: 64
  - symbol: Li # 69
    coordinates: [  0.836879021039411,  0.632912246700749,  0.393319519414299 ]
    mass: 6.940000
    reduced_to: 64
  - symbol: Li # 70
    coordinates: [  0.170212354372745,  0.966245580034082,  0.393319519414299 ]
    mass: 6.940000
    reduced_to: 64
  - symbol: Li # 71
    coordinates: [  0.503545687706078,  0.966245580034082,  0.393319519414299 ]
    mass: 6.940000
    reduced_to: 64
  - symbol: Li # 72
    coordinates: [  0.836879021039411,  0.966245580034082,  0.393319519414299 ]
    mass: 6.940000
    reduced_to: 64
  - symbol: Ga # 73
    coordinates: [  0.147638453716916,  0.117765056411154,  0.237782687274826 ]
    mass: 69.723000
    reduced_to: 73
  - symbol: Ga # 74
    coordinates: [  0.480971787050249,  0.117765056411154,  0.237782687274826 ]
    mass: 69.723000
    reduced_to: 73
  - symbol: Ga # 75
    coordinates: [  0.814305120383582,  0.117765056411154,  0.237782687274826 ]
    mass: 69.723000
    reduced_to: 73
  - symbol: Ga # 76
    coordinates: [  0.147638453716916,  0.451098389744487,  0.237782687274826 ]
    mass: 69.723000
    reduced_to: 73
  - symbol: Ga # 77
    coordinates: [  0.480971787050249,  0.451098389744487,  0.237782687274826 ]
    mass: 69.723000
    reduced_to: 73
  - symbol: Ga # 78
    coordinates: [  0.814305120383582,  0.451098389744487,  0.237782687274826 ]
    mass: 69.723000
    reduced_to: 73
  - symbol: Ga # 79
    coordinates: [  0.147638453716916,  0.784431723077820,  0.237782687274826 ]
    mass: 69.723000
    reduced_to: 73
  - symbol: Ga # 80
    coordinates: [  0.480971787050249,  0.784431723077820,  0.237782687274826 ]
    mass: 69.723000
    reduced_to: 73
  - symbol: Ga # 81
    coordinates: [  0.814305120383582,  0.784431723077820,  0.237782687274826 ]
    mass: 69.723000
    reduced_to: 73
  - symbol: Ga # 82
    coordinates: [  0.292480650962104,  0.202763045255987,  0.178464558874735 ]
    mass: 69.723000
    reduced_to: 82
  - symbol: Ga # 83
    coordinates: [  0.625813984295437,  0.202763045255987,  0.178464558874735 ]
    mass: 69.723000
    reduced_to: 82
  - symbol: Ga # 84
    coordinates: [  0.959147317628771,  0.202763045255987,  0.178464558874735 ]
    mass: 69.723000
    reduced_to: 82
  - symbol: Ga # 85
    coordinates: [  0.292480650962104,  0.536096378589321,  0.178464558874735 ]
    mass: 69.723000
    reduced_to: 82
  - symbol: Ga # 86
    coordinates: [  0.625813984295437,  0.536096378589321,  0.178464558874735 ]
    mass: 69.723000
    reduced_to: 82
  - symbol: Ga # 87
    coordinates: [  0.959147317628771,  0.536096378589321,  0.178464558874735 ]
    mass: 69.723000
    reduced_to: 82
  - symbol: Ga # 88
    coordinates: [  0.292480650962104,  0.869429711922654,  0.178464558874735 ]
    mass: 69.723000
    reduced_to: 82
  - symbol: Ga # 89
    coordinates: [  0.625813984295437,  0.869429711922654,  0.178464558874735 ]
    mass: 69.723000
    reduced_to: 82
  - symbol: Ga # 90
    coordinates: [  0.959147317628771,  0.869429711922654,  0.178464558874735 ]
    mass: 69.723000
    reduced_to: 82
  - symbol: Sn # 91
    coordinates: [  0.087290369760282,  0.100246443513322,  0.949705253833829 ]
    mass: 118.710000
    reduced_to: 91
  - symbol: Sn # 92
    coordinates: [  0.420623703093616,  0.100246443513322,  0.949705253833829 ]
    mass: 118.710000
    reduced_to: 91
  - symbol: Sn # 93
    coordinates: [  0.753957036426949,  0.100246443513322,  0.949705253833829 ]
    mass: 118.710000
    reduced_to: 91
  - symbol: Sn # 94
    coordinates: [  0.087290369760282,  0.433579776846655,  0.949705253833829 ]
    mass: 118.710000
    reduced_to: 91
  - symbol: Sn # 95
    coordinates: [  0.420623703093616,  0.433579776846655,  0.949705253833829 ]
    mass: 118.710000
    reduced_to: 91
  - symbol: Sn # 96
    coordinates: [  0.753957036426949,  0.433579776846655,  0.949705253833829 ]
    mass: 118.710000
    reduced_to: 91
  - symbol: Sn # 97
    coordinates: [  0.087290369760282,  0.766913110179989,  0.949705253833829 ]
    mass: 118.710000
    reduced_to: 91
  - symbol: Sn # 98
    coordinates: [  0.420623703093616,  0.766913110179989,  0.949705253833829 ]
    mass: 118.710000
    reduced_to: 91
  - symbol: Sn # 99
    coordinates: [  0.753957036426949,  0.766913110179989,  0.949705253833829 ]
    mass: 118.710000
    reduced_to: 91
  - symbol: Sn # 100
    coordinates: [  0.220060251994574,  0.326941937734279,  0.708124234061888 ]
    mass: 118.710000
    reduced_to: 100
  - symbol: Sn # 101
    coordinates: [  0.553393585327908,  0.326941937734279,  0.708124234061888 ]
    mass: 118.710000
    reduced_to: 100
  - symbol: Sn # 102
    coordinates: [  0.886726918661241,  0.326941937734279,  0.708124234061888 ]
    mass: 118.710000
    reduced_to: 100
  - symbol: Sn # 103
    coordinates: [  0.220060251994574,  0.660275271067613,  0.708124234061888 ]
    mass: 118.710000
    reduced_to: 100
  - symbol: Sn # 104
    coordinates: [  0.553393585327908,  0.660275271067613,  0.708124234061888 ]
    mass: 118.710000
    reduced_to: 100
  - symbol: Sn # 105
    coordinates: [  0.886726918661241,  0.660275271067613,  0.708124234061888 ]
    mass: 118.710000
    reduced_to: 100
  - symbol: Sn # 106
    coordinates: [  0.220060251994574,  0.993608604400946,  0.708124234061888 ]
    mass: 118.710000
    reduced_to: 100
  - symbol: Sn # 107
    coordinates: [  0.553393585327908,  0.993608604400946,  0.708124234061888 ]
    mass: 118.710000
    reduced_to: 100
  - symbol: Sn # 108
    coordinates: [  0.886726918661241,  0.993608604400946,  0.708124234061888 ]
    mass: 118.710000
    reduced_to: 100
  - symbol: Sn # 109
    coordinates: [  0.019476199872719,  0.220310380129265,  0.466544363361838 ]
    mass: 118.710000
    reduced_to: 109
  - symbol: Sn # 110
    coordinates: [  0.352809533206053,  0.220310380129265,  0.466544363361838 ]
    mass: 118.710000
    reduced_to: 109
  - symbol: Sn # 111
    coordinates: [  0.686142866539386,  0.220310380129265,  0.466544363361838 ]
    mass: 118.710000
    reduced_to: 109
  - symbol: Sn # 112
    coordinates: [  0.019476199872719,  0.553643713462599,  0.466544363361838 ]
    mass: 118.710000
    reduced_to: 109
  - symbol: Sn # 113
    coordinates: [  0.352809533206053,  0.553643713462599,  0.466544363361838 ]
    mass: 118.710000
    reduced_to: 109
  - symbol: Sn # 114
    coordinates: [  0.686142866539386,  0.553643713462599,  0.466544363361838 ]
    mass: 118.710000
    reduced_to: 109
  - symbol: Sn # 115
    coordinates: [  0.019476199872719,  0.886977046795932,  0.466544363361838 ]
    mass: 118.710000
    reduced_to: 109
  - symbol: Sn # 116
    coordinates: [  0.352809533206053,  0.886977046795932,  0.466544363361838 ]
    mass: 118.710000
    reduced_to: 109
  - symbol: Sn # 117
    coordinates: [  0.686142866539386,  0.886977046795932,  0.466544363361838 ]
    mass: 118.710000
    reduced_to: 109

displacements:
- atom:    1
  displacement:
    [   0.0100000000000000,  0.0000000000000000,  0.0000000000000000 ]
  forces:
  - [  -0.0456781908869743,  0.0179760865867138,  0.1376965045928955 ]
  - [  -0.0235942937433720,  0.0179407224059105,  0.1376410722732544 ]
  - [  -0.0236104205250740,  0.0183778293430805,  0.1375178694725037 ]
  - [  -0.0235664118081331,  0.0183672811836004,  0.1375463008880615 ]
  - [  -0.0236042942851782,  0.0181631054729223,  0.1375796496868134 ]
  - [  -0.0235749445855618,  0.0179627165198326,  0.1376082599163055 ]
  - [  -0.0235690958797932,  0.0179414656013250,  0.1374868899583817 ]
  - [  -0.0235710907727480,  0.0183960869908333,  0.1376715898513794 ]
  - [  -0.0236050579696894,  0.0181621108204126,  0.1375797837972641 ]
  - [   0.0235408563166857, -0.0183858275413513, -0.1377450823783875 ]
  - [   0.0236832443624735, -0.0184424556791782, -0.1376250684261322 ]
  - [   0.0235277693718672, -0.0185012519359589, -0.1374884247779846 ]
  - [   0.0235370732843876, -0.0184731967747211, -0.1376392543315887 ]
  - [   0.0235314443707466, -0.0184104666113853, -0.1376065313816071 ]
  - [   0.0236321985721588, -0.0184396859258413, -0.1376188099384308 ]
  - [   0.0235861334949732, -0.0184424817562103, -0.1376228183507919 ]
  - [   0.0236196797341108, -0.0184789337217808, -0.1376185268163681 ]
  - [   0.0236147083342075, -0.0184059068560600, -0.1376304924488068 ]
  - [  -0.0244705639779568,  0.0188978761434555,  0.0910604000091553 ]
  - [  -0.0248839519917965,  0.0189973898231983,  0.0910307243466377 ]
  - [  -0.0248768888413906,  0.0187998749315739,  0.0911068469285965 ]
  - [  -0.0246630460023880,  0.0186737198382616,  0.0910422950983047 ]
  - [  -0.0247190780937672,  0.0188991129398346,  0.0910705327987671 ]
  - [  -0.0246585030108690,  0.0191121473908424,  0.0910955369472504 ]
  - [  -0.0246670190244913,  0.0188700668513775,  0.0910776704549789 ]
  - [  -0.0246690586209297,  0.0189320705831051,  0.0910575687885284 ]
  - [  -0.0247571505606174,  0.0189000703394413,  0.0910691916942596 ]
  - [  -0.0195152424275875,  0.0162913911044598,  0.0805958062410355 ]
  - [  -0.0194963831454515,  0.0162897910922766,  0.0802571401000023 ]
  - [  -0.0195147916674614,  0.0162987168878317,  0.0804035961627960 ]
  - [  -0.0195690598338842,  0.0163376331329346,  0.0804164558649063 ]
  - [  -0.0195640735328197,  0.0162488482892513,  0.0804167538881302 ]
  - [  -0.0194047279655933,  0.0162982139736414,  0.0804163217544556 ]
  - [  -0.0195135138928890,  0.0162924602627754,  0.0804077088832855 ]
  - [  -0.0195026136934757,  0.0163609944283962,  0.0804312601685524 ]
  - [  -0.0195127259939909,  0.0162214860320091,  0.0804109573364258 ]
  - [   0.0285995788872242, -0.0160893313586712, -0.0925296172499657 ]
  - [   0.0288507565855980, -0.0214544981718063, -0.0895614996552467 ]
  - [   0.0247061811387539, -0.0186672657728195, -0.0911051183938980 ]
  - [   0.0240643396973610, -0.0187000054866076, -0.0911232084035873 ]
  - [   0.0247946083545685, -0.0185832343995571, -0.0910760313272476 ]
  - [   0.0247927904129028, -0.0187450759112835, -0.0911391526460648 ]
  - [   0.0246870741248131, -0.0186562538146973, -0.0910998135805130 ]
  - [   0.0246507674455643, -0.0186682231724262, -0.0911052003502846 ]
  - [   0.0246887356042862, -0.0186767429113388, -0.0911111459136009 ]
  - [  -0.0022778548300266, -0.0041998019441962,  0.0264954492449760 ]
  - [  -0.0024368278682232, -0.0041644591838121,  0.0265021175146103 ]
  - [  -0.0024443289730698, -0.0042339619249105,  0.0265103876590729 ]
  - [  -0.0023222116287798, -0.0043139653280377,  0.0265189073979855 ]
  - [  -0.0023924093693495, -0.0041957679204643,  0.0265022516250610 ]
  - [  -0.0023246447090060, -0.0040819752030075,  0.0264942832291126 ]
  - [  -0.0023112171329558, -0.0042190235108137,  0.0265219435095787 ]
  - [  -0.0023148036561906, -0.0041734804399312,  0.0264836177229881 ]
  - [  -0.0023544905707240, -0.0041960724629462,  0.0265071615576744 ]
  - [   0.0023186246398836,  0.0043785218149424, -0.0264732837677002 ]
  - [   0.0023179315030575,  0.0043333820067346, -0.0264339372515678 ]
  - [   0.0022930228151381,  0.0043178936466575, -0.0264292359352112 ]
  - [   0.0022875135764480,  0.0043300129473209, -0.0264705605804920 ]
  - [   0.0022880136966705,  0.0043490007519722, -0.0264168940484524 ]
  - [   0.0023560235276818,  0.0043496340513229, -0.0264498144388199 ]
  - [   0.0023017600178719,  0.0043357070535421, -0.0264512300491333 ]
  - [   0.0023079775273800,  0.0043459348380566, -0.0264485701918602 ]
  - [   0.0023023784160614,  0.0043508615344763, -0.0264423862099648 ]
  - [   0.0194584466516972, -0.0164682082831860, -0.0803613439202309 ]
  - [   0.0192187167704105, -0.0166000463068485, -0.0803687945008278 ]
  - [   0.0192491114139557, -0.0163501221686602, -0.0803827047348022 ]
  - [   0.0194802284240723, -0.0164525173604488, -0.0803727954626083 ]
  - [   0.0194535665214062, -0.0164650790393353, -0.0803674086928368 ]
  - [   0.0194811373949051, -0.0164794251322746, -0.0803845003247261 ]
  - [   0.0196098703891039, -0.0163826085627079, -0.0802949815988541 ]
  - [   0.0196618698537350, -0.0165749881416559, -0.0805069059133530 ]
  - [   0.0195035859942436, -0.0164654031395912, -0.0803749784827232 ]
  - [   0.0084499213844538,  0.0180583447217941, -0.1496322602033615 ]
  - [   0.0084601808339357,  0.0183076709508896, -0.1511150449514389 ]
  - [   0.0083530563861132,  0.0181856416165829, -0.1503729522228241 ]
  - [   0.0083349701017141,  0.0181760489940643, -0.1503647863864899 ]
  - [   0.0083109363913536,  0.0182197485119104, -0.1503886729478836 ]
  - [   0.0082771927118301,  0.0181538369506598, -0.1503618210554123 ]
  - [   0.0083345277234912,  0.0181859713047743, -0.1504182070493698 ]
  - [   0.0082346927374601,  0.0181688424199820, -0.1503832340240479 ]
  - [   0.0083281733095646,  0.0181903392076492, -0.1503182202577591 ]
  - [  -0.0078766066581011, -0.0181163400411606,  0.1504424661397934 ]
  - [  -0.0085240527987480, -0.0182356853038073,  0.1505422592163086 ]
  - [  -0.0085175167769194, -0.0179909300059080,  0.1503306031227112 ]
  - [  -0.0083052916452289, -0.0181124731898308,  0.1504460871219635 ]
  - [  -0.0083081182092428, -0.0181109998375177,  0.1504840552806854 ]
  - [  -0.0083055999130011, -0.0181080754846334,  0.1503786742687225 ]
  - [  -0.0082918237894773, -0.0183488577604294,  0.1502860337495804 ]
  - [  -0.0082955416291952, -0.0178660750389099,  0.1505934894084930 ]
  - [  -0.0083109866827726, -0.0181106664240360,  0.1504360139369965 ]
  - [  -0.0008451554458588, -0.0028548352420330, -0.0660715922713280 ]
  - [  -0.0008358169579878, -0.0028622318059206, -0.0660800933837891 ]
  - [  -0.0008107224712148, -0.0028338418342173, -0.0662090405821800 ]
  - [  -0.0007724941824563, -0.0028053557034582, -0.0655194073915482 ]
  - [  -0.0008137209806591, -0.0028511711861938, -0.0661205574870110 ]
  - [  -0.0007703127339482, -0.0028976351022720, -0.0667443871498108 ]
  - [  -0.0008202622411773, -0.0028464419301599, -0.0661185234785080 ]
  - [  -0.0008224465418607, -0.0028506445232779, -0.0660939216613770 ]
  - [  -0.0008384326938540, -0.0028619437944144, -0.0661591663956642 ]
  - [   0.0006141211488284, -0.0000943595077842,  0.0007898621261120 ]
  - [  -0.0001714205136523, -0.0000456041307189,  0.0000189393758774 ]
  - [   0.0004912514705211,  0.0000794980733190, -0.0006371065974236 ]
  - [  -0.0001161104592029, -0.0000770498736529,  0.0000090310350060 ]
  - [  -0.0001163987326436, -0.0000139151088661,  0.0000294642522931 ]
  - [  -0.0000624161330052, -0.0000478392321384,  0.0000221589580178 ]
  - [   0.0007171704783104, -0.0000191590079339,  0.0000019297003746 ]
  - [  -0.0000793797662482, -0.0000326206791215, -0.0000455193221569 ]
  - [  -0.0000985728693195, -0.0000636453041807,  0.0000968389213085 ]
  - [   0.0065965475514531,  0.0000486765056849,  0.0689855143427849 ]
  - [   0.0070812413468957,  0.0060816775076091,  0.0627587288618088 ]
  - [   0.0009634010493755,  0.0028976206667721,  0.0660188570618629 ]
  - [   0.0010978060308844,  0.0028960290364921,  0.0660189390182495 ]
  - [   0.0010002190247178,  0.0028740679845214,  0.0660267025232315 ]
  - [   0.0010021841153502,  0.0029198299162090,  0.0660136789083481 ]
  - [   0.0009862720035017,  0.0028324597515166,  0.0661266595125198 ]
  - [   0.0016030899714679,  0.0029563675634563,  0.0660387575626373 ]
  - [   0.0009854789823294,  0.0029631932266057,  0.0659041181206703 ]
- atom:    1
  displacement:
    [  -0.0100000000000000,  0.0000000000000000,  0.0000000000000000 ]
  forces:
  - [  -0.0015830965712667,  0.0181908495724201,  0.1375243961811066 ]
  - [  -0.0236406363546848,  0.0183797758072615,  0.1375196725130081 ]
  - [  -0.0236567631363869,  0.0179426223039627,  0.1376419663429260 ]
  - [  -0.0236797630786896,  0.0179638490080833,  0.1376119256019592 ]