# Thermal properties / unit cell (natom)

unit:
  temperature:   K
  free_energy:   kJ/mol
  entropy:       J/K/mol
  heat_capacity: J/K/mol

natom: 16   
cutoff_frequency: 0.00000
num_modes: 135168
num_integrated_modes: 135167

zero_point_energy:      38.6575619

thermal_properties:
- temperature:         0.0000000
  free_energy:        38.6575619
  entropy:             0.0000000
  heat_capacity:       0.0000000
  energy:             38.6575619

- temperature:        10.0000000
  free_energy:        38.6500617
  entropy:             2.9473121
  heat_capacity:       9.4937303
  energy:             38.6795349

- temperature:        20.0000000
  free_energy:        38.5358777
  entropy:            23.4020099
  heat_capacity:      60.0563169
  energy:             39.0039179

- temperature:        30.0000000
  free_energy:        38.1337773
  entropy:            58.2842298
  heat_capacity:     113.3887669
  energy:             39.8823042

- temperature:        40.0000000
  free_energy:        37.3595076
  entropy:            96.6432295
  heat_capacity:     153.2821978
  energy:             41.2252368

- temperature:        50.0000000
  free_energy:        36.2034911
  entropy:           134.3217593
  heat_capacity:     184.5644380
  energy:             42.9195791

- temperature:        60.0000000
  free_energy:        34.6785774
  entropy:           170.3706868
  heat_capacity:     211.0530798
  energy:             44.9008187

- temperature:        70.0000000
  free_energy:        32.8018845
  entropy:           204.6812233
  heat_capacity:     234.1917096
  energy:             47.1295701

- temperature:        80.0000000
  free_energy:        30.5905727
  entropy:           237.3061561
  heat_capacity:     254.4483659
  energy:             49.5750651

- temperature:        90.0000000
  free_energy:        28.0611397
  entropy:           268.3176142
  heat_capacity:     272.0619524
  energy:             52.2097249

- temperature:       100.0000000
  free_energy:        25.2293532
  entropy:           297.7893385
  heat_capacity:     287.2715403
  energy:             55.0082871

- temperature:       110.0000000
  free_energy:        22.1102294
  entropy:           325.7982612
  heat_capacity:     300.3461294
  energy:             57.9480381

- temperature:       120.0000000
  free_energy:        18.7179948
  entropy:           352.4252292
  heat_capacity:     311.5640508
  energy:             61.0090223

- temperature:       130.0000000
  free_energy:        15.0660535
  entropy:           377.7535791
  heat_capacity:     321.1909952
  energy:             64.1740188

- temperature:       140.0000000
  free_energy:        11.1669730
  entropy:           401.8669258
  heat_capacity:     329.4670248
  energy:             67.4283426

- temperature:       150.0000000
  free_energy:         7.0324919
  entropy:           424.8471058
  heat_capacity:     336.6015514
  energy:             70.7595577

- temperature:       160.0000000
  free_energy:         2.6735459
  entropy:           446.7726349
  heat_capacity:     342.7732888
  energy:             74.1571675

- temperature:       170.0000000
  free_energy:        -1.8996932
  entropy:           467.7177170
  heat_capacity:     348.1327472
  energy:             77.6123187

- temperature:       180.0000000
  free_energy:        -6.6777720
  entropy:           487.7517144
  heat_capacity:     352.8057390
  energy:             81.1175365

- temperature:       190.0000000
  free_energy:       -11.6519056
  entropy:           506.9389579
  heat_capacity:     356.8970473
  energy:             84.6664964

- temperature:       200.0000000
  free_energy:       -16.8139270
  entropy:           525.3387889
  heat_capacity:     360.4938476
  energy:             88.2538308

- temperature:       210.0000000
  free_energy:       -22.1562389
  entropy:           543.0057487
  heat_capacity:     363.6687156
  energy:             91.8749683

- temperature:       220.0000000
  free_energy:       -27.6717663
  entropy:           559.9898535
  heat_capacity:     366.4821840
  energy:             95.5260015

- temperature:       230.0000000
  free_energy:       -33.3539129
  entropy:           576.3369126
  heat_capacity:     368.9848747
  energy:             99.2035769

- temperature:       240.0000000
  free_energy:       -39.1965212
  entropy:           592.0888608
  heat_capacity:     371.2192550
  energy:            102.9048054

- temperature:       250.0000000
  free_energy:       -45.1938348
  entropy:           607.2840890
  heat_capacity:     373.2210760
  energy:            106.6271875

- temperature:       260.0000000
  free_energy:       -51.3404648
  entropy:           621.9577603
  heat_capacity:     375.0205453
  energy:            110.3685529

- temperature:       270.0000000
  free_energy:       -57.6313592
  entropy:           636.1421070
  heat_capacity:     376.6432833
  energy:            114.1270097

- temperature:       280.0000000
  free_energy:       -64.0617747
  entropy:           649.8667043
  heat_capacity:     378.1111023
  energy:            117.9009025

- temperature:       290.0000000
  free_energy:       -70.6272516
  entropy:           663.1587219
  heat_capacity:     379.4426431
  energy:            121.6887778

- temperature:       300.0000000
  free_energy:       -77.3235907
  entropy:           676.0431513
  heat_capacity:     380.6538957
  energy:            125.4893547

- temperature:       310.0000000
  free_energy:       -84.1468329
  entropy:           688.5430121
  heat_capacity:     381.7586265
  energy:            129.3015008

- temperature:       320.0000000
  free_energy:       -91.0932400
  entropy:           700.6795374
  heat_capacity:     382.7687297
  energy:            133.1242119

- temperature:       330.0000000
  free_energy:       -98.1592781
  entropy:           712.4723412
  heat_capacity:     383.6945179
  energy:            136.9565945

- temperature:       340.0000000
  free_energy:      -105.3416018
  entropy:           723.9395677
  heat_capacity:     384.5449623
  energy:            140.7978513

- temperature:       350.0000000
  free_energy:      -112.6370404
  entropy:           735.0980262
  heat_capacity:     385.3278927
  energy:            144.6472688

- temperature:       360.0000000
  free_energy:      -120.0425852
  entropy:           745.9633116
  heat_capacity:     386.0501640
  energy:            148.5042070

- temperature:       370.0000000
  free_energy:      -127.5553778
  entropy:           756.5499130
  heat_capacity:     386.7177963
  energy:            152.3680900

- temperature:       380.0000000
  free_energy:      -135.1726995
  entropy:           766.8713107
  heat_capacity:     387.3360915
  energy:            156.2383986

- temperature:       390.0000000
  free_energy:      -142.8919619
  entropy:           776.9400641
  heat_capacity:     387.9097324
  energy:            160.1146631

- temperature:       400.0000000
  free_energy:      -150.7106978
  entropy:           786.7678901
  heat_capacity:     388.4428664
  energy:            163.9964582

- temperature:       410.0000000
  free_energy:      -158.6265532
  entropy:           796.3657339
  heat_capacity:     388.9391761
  energy:            167.8833977

- temperature:       420.0000000
  free_energy:      -166.6372801
  entropy:           805.7438334
  heat_capacity:     389.4019396
  energy:            171.7751300

- temperature:       430.0000000
  free_energy:      -174.7407294
  entropy:           814.9117765
  heat_capacity:     389.8340823
  energy:            175.6713345

- temperature:       440.0000000
  free_energy:      -182.9348451
  entropy:           823.8785532
  heat_capacity:     390.2382210
  energy:            179.5717183

- temperature:       450.0000000
  free_energy:      -191.2176581
  entropy:           832.6526033
  heat_capacity:     390.6167013
  energy:            183.4760134

- temperature:       460.0000000
  free_energy:      -199.5872812
  entropy:           841.2418589
  heat_capacity:     390.9716306
  energy:            187.3839739

- temperature:       470.0000000
  free_energy:      -208.0419042
  entropy:           849.6537831
  heat_capacity:     391.3049065
  energy:            191.2953738

- temperature:       480.0000000
  free_energy:      -216.5797893
  entropy:           857.8954058
  heat_capacity:     391.6182407
  energy:            195.2100055

- temperature:       490.0000000
  free_energy:      -225.1992668
  entropy:           865.9733554
  heat_capacity:     391.9131804
  energy:            199.1276774

- temperature:       500.0000000
  free_energy:      -233.8987317
  entropy:           873.8938884
  heat_capacity:     392.1911269
  energy:            203.0482125

- temperature:       510.0000000
  free_energy:      -242.6766396
  entropy:           881.6629159
  heat_capacity:     392.4533516
  energy:            206.9714475

- temperature:       520.0000000
  free_energy:      -251.5315037
  entropy:           889.2860282
  heat_capacity:     392.7010100
  energy:            210.8972310

- temperature:       530.0000000
  free_energy:      -260.4618914
  entropy:           896.7685172
  heat_capacity:     392.9351539
  energy:            214.8254227

- temperature:       540.0000000
  free_energy:      -269.4664220
  entropy:           904.1153967
  heat_capacity:     393.1567428
  energy:            218.7558922

- temperature:       550.0000000
  free_energy:      -278.5437632
  entropy:           911.3314215
  heat_capacity:     393.3666529
  energy:            222.6885186

- temperature:       560.0000000
  free_energy:      -287.6926293
  entropy:           918.4211042
  heat_capacity:     393.5656859
  energy:            226.6231890

- temperature:       570.0000000
  free_energy:      -296.9117785
  entropy:           925.3887316
  heat_capacity:     393.7545760
  energy:            230.5597985

- temperature:       580.0000000
  free_energy:      -306.2000107
  entropy:           932.2383788
  heat_capacity:     393.9339971
  energy:            234.4982490

- temperature:       590.0000000
  free_energy:      -315.5561657
  entropy:           938.9739232
  heat_capacity:     394.1045683
  energy:            238.4384490

- temperature:       600.0000000
  free_energy:      -324.9791211
  entropy:           945.5990565
  heat_capacity:     394.2668592
  energy:            242.3803128

- temperature:       610.0000000
  free_energy:      -334.4677906
  entropy:           952.1172965
  heat_capacity:     394.4213943
  energy:            246.3237603

- temperature:       620.0000000
  free_energy:      -344.0211220
  entropy:           958.5319974
  heat_capacity:     394.5686579
  energy:            250.2687164

- temperature:       630.0000000
  free_energy:      -353.6380961
  entropy:           964.8463600
  heat_capacity:     394.7090968
  energy:            254.2151107

- temperature:       640.0000000
  free_energy:      -363.3177249
  entropy:           971.0634405
  heat_capacity:     394.8431244
  energy:            258.1628770

- temperature:       650.0000000
  free_energy:      -373.0590504
  entropy:           977.1861592
  heat_capacity:     394.9711234
  energy:            262.1119531

- temperature:       660.0000000
  free_energy:      -382.8611429
  entropy:           983.2173082
  heat_capacity:     395.0934484
  energy:            266.0622806

- temperature:       670.0000000
  free_energy:      -392.7231002
  entropy:           989.1595589
  heat_capacity:     395.2104285
  energy:            270.0138043

- temperature:       680.0000000
  free_energy:      -402.6440463
  entropy:           995.0154685
  heat_capacity:     395.3223694
  energy:            273.9664723

- temperature:       690.0000000
  free_energy:      -412.6231299
  entropy:          1000.7874866
  heat_capacity:     395.4295552
  energy:            277.9202358

- temperature:       700.0000000
  free_energy:      -422.6595242
  entropy:          1006.4779609
  heat_capacity:     395.5322505
  energy:            281.8750485

- temperature:       710.0000000
  free_energy:      -432.7524249
  entropy:          1012.0891430
  heat_capacity:     395.6307017
  energy:            285.8308667

- temperature:       720.0000000
  free_energy:      -442.9010499
  entropy:          1017.6231931
  heat_capacity:     395.7251386
  energy:            289.7876491

- temperature:       730.0000000
  free_energy:      -453.1046385
  entropy:          1023.0821854
  heat_capacity:     395.8157759
  energy:            293.7453568

- temperature:       740.0000000
  free_energy:      -463.3624501
  entropy:          1028.4681118
  heat_capacity:     395.9028139
  energy:            297.7039526

- temperature:       750.0000000
  free_energy:      -473.6737636
  entropy:          1033.7828871
  heat_capacity:     395.9864401
  energy:            301.6634017

- temperature:       760.0000000
  free_energy:      -484.0378768
  entropy:          1039.0283519
  heat_capacity:     396.0668299
  energy:            305.6236707

- temperature:       770.0000000
  free_energy:      -494.4541055
  entropy:          1044.2062774
  heat_capacity:     396.1441476
  energy:            309.5847280

- temperature:       780.0000000
  free_energy:      -504.9217829
  entropy:          1049.3183677
  heat_capacity:     396.2185474
  energy:            313.5465439

- temperature:       790.0000000
  free_energy:      -515.4402589
  entropy:          1054.3662641
  heat_capacity:     396.2901738
  energy:            317.5090897

- temperature:       800.0000000
  free_energy:      -526.0088995
  entropy:          1059.3515476
  heat_capacity:     396.3591626
  energy:            321.4723386

- temperature:       810.0000000
  free_energy:      -536.6270862
  entropy:          1064.2757418
  heat_capacity:     396.4256413
  energy:            325.4362646

- temperature:       820.0000000
  free_energy:      -547.2942156
  entropy:          1069.1403159
  heat_capacity:     396.4897299
  energy:            329.4008434

- temperature:       830.0000000
  free_energy:      -558.0096986
  entropy:          1073.9466870
  heat_capacity:     396.5515413
  energy:            333.3660516

- temperature:       840.0000000
  free_energy:      -568.7729599
  entropy:          1078.6962225
  heat_capacity:     396.6111818
  energy:            337.3318670

- temperature:       850.0000000
  free_energy:      -579.5834380
  entropy:          1083.3902427
  heat_capacity:     396.6687516
  energy:            341.2982684

- temperature:       860.0000000
  free_energy:      -590.4405840
  entropy:          1088.0300226
  heat_capacity:     396.7243454
  energy:            345.2652355

- temperature:       870.0000000
  free_energy:      -601.3438617
  entropy:          1092.6167939
  heat_capacity:     396.7780521
  energy:            349.2327490

- temperature:       880.0000000
  free_energy:      -612.2927471
  entropy:          1097.1517473
  heat_capacity:     396.8299562
  energy:            353.2007905

- temperature:       890.0000000
  free_energy:      -623.2867278
  entropy:          1101.6360339
  heat_capacity:     396.8801372
  energy:            357.1693424

- temperature:       900.0000000
  free_energy:      -634.3253026
  entropy:          1106.0707671
  heat_capacity:     396.9286703
  energy:            361.1383877

- temperature:       910.0000000
  free_energy:      -645.4079815
  entropy:          1110.4570242
  heat_capacity:     396.9756267
  energy:            365.1079105

- temperature:       920.0000000
  free_energy:      -656.5342850
  entropy:          1114.7958481
  heat_capacity:     397.0210739
  energy:            369.0778953

- temperature:       930.0000000
  free_energy:      -667.7037438
  entropy:          1119.0882483
  heat_capacity:     397.0650758
  energy:            373.0483272

- temperature:       940.0000000
  free_energy:      -678.9158985
  entropy:          1123.3352028
  heat_capacity:     397.1076927
  energy:            377.0191922

- temperature:       950.0000000
  free_energy:      -690.1702995
  entropy:          1127.5376591
  heat_capacity:     397.1489822
  energy:            380.9904766

- temperature:       960.0000000
  free_energy:      -701.4665064
  entropy:          1131.6965354
  heat_capacity:     397.1889987
  energy:            384.9621676

- temperature:       970.0000000
  free_energy:      -712.8040879
  entropy:          1135.8127221
  heat_capacity:     397.2277938
  energy:            388.9342525

- temperature:       980.0000000
  free_energy:      -724.1826214
  entropy:          1139.8870826
  heat_capacity:     397.2654167
  energy:            392.9067195

- temperature:       990.0000000
  free_energy:      -735.6016929
  entropy:          1143.9204546
  heat_capacity:     397.3019141
  energy:            396.8795571

- temperature:      1000.0000000
  free_energy:      -747.0608966
  entropy:          1147.9136508
  heat_capacity:     397.3373302
  energy:            400.8527542
