phonopy:
  version: "2.37.1"
  frequency_unit_conversion_factor: 15.633302
  symmetry_tolerance: 1.00000e-05

space_group:
  type: "P1"
  number: 1
  Hall_symbol: "P 1"

primitive_matrix:
- [ -1.000000000000000,  0.000000000000000, -0.000000000000000 ]
- [  0.000000000000000,  1.000000000000000,  0.000000000000000 ]
- [  0.000000000000000,  0.000000000000000, -1.000000000000000 ]

supercell_matrix:
- [   3,   0,   0 ]
- [   0,   3,   0 ]
- [   0,   0,   1 ]

primitive_cell:
  lattice:
  - [    -3.357191963718093,     0.000000000000000,     0.000000000000000 ] # a
  - [    -0.000000003393596,     4.397928438776813,     0.000000000000000 ] # b
  - [    -0.002997645132332,     0.000327946560964,   -19.695592559118129 ] # c
  points:
  - symbol: Li # 1
    coordinates: [  0.816632033297675,  0.007619523035193,  0.648504244379310 ]
    mass: 6.940000
  - symbol: Li # 2
    coordinates: [  0.815713931192969,  0.008121604571413,  0.134499859672483 ]
    mass: 6.940000
  - symbol: Li # 3
    coordinates: [  0.316704346565988,  0.507952785671025,  0.884564411930573 ]
    mass: 6.940000
  - symbol: Li # 4
    coordinates: [  0.316114230237593,  0.507577236783919,  0.562974917851231 ]
    mass: 6.940000
  - symbol: Sn # 5
    coordinates: [  0.815570079655665,  0.007911203774153,  0.302949442162523 ]
    mass: 118.710000
  - symbol: Sn # 6
    coordinates: [  0.315708976654830,  0.507658918697488,  0.406830093890804 ]
    mass: 118.710000
  - symbol: Sn # 7
    coordinates: [  0.316001879317020,  0.508129241659048,  0.053223351523745 ]
    mass: 118.710000
  - symbol: Sn # 8
    coordinates: [  0.816437994882197,  0.008123518116021,  0.966406371123574 ]
    mass: 118.710000
  - symbol: Sn # 9
    coordinates: [  0.316729436163398,  0.507683228495301,  0.714131804680649 ]
    mass: 118.710000
  - symbol: Sn # 10
    coordinates: [  0.315524918348300,  0.508019549463469,  0.212850475490223 ]
    mass: 118.710000
  - symbol: Sn # 11
    coordinates: [  0.816969616894347,  0.007786774249275,  0.803460474483369 ]
    mass: 118.710000
  - symbol: Sn # 12
    coordinates: [  0.815994660684283,  0.007594118289095,  0.499160850510573 ]
    mass: 118.710000
  reciprocal_lattice: # without 2pi
  - [    -0.297867983364436,    -0.000000000229845,     0.000045335143264 ] # a*
  - [    -0.000000000000000,     0.227379779803358,     0.000003786045868 ] # b*
  - [    -0.000000000000000,     0.000000000000000,    -0.050772780610607 ] # c*

unit_cell:
  lattice:
  - [     3.357191963718094,     0.000000000000000,     0.000000000000000 ] # a
  - [    -0.000000003393596,     4.397928438776812,     0.000000000000000 ] # b
  - [     0.002997645132332,    -0.000327946560964,    19.695592559118126 ] # c
  points:
  - symbol: Li # 1
    coordinates: [  0.183367966702325,  0.007619523035193,  0.351495755620690 ]
    mass: 6.940000
    reduced_to: 1
  - symbol: Li # 2
    coordinates: [  0.184286068807031,  0.008121604571413,  0.865500140327518 ]
    mass: 6.940000
    reduced_to: 2
  - symbol: Li # 3
    coordinates: [  0.683295653434012,  0.507952785671025,  0.115435588069427 ]
    mass: 6.940000
    reduced_to: 3
  - symbol: Li # 4
    coordinates: [  0.683885769762407,  0.507577236783920,  0.437025082148769 ]
    mass: 6.940000
    reduced_to: 4
  - symbol: Sn # 5
    coordinates: [  0.184429920344335,  0.007911203774153,  0.697050557837477 ]
    mass: 118.710000
    reduced_to: 5
  - symbol: Sn # 6
    coordinates: [  0.684291023345170,  0.507658918697488,  0.593169906109196 ]
    mass: 118.710000
    reduced_to: 6
  - symbol: Sn # 7
    coordinates: [  0.683998120682980,  0.508129241659048,  0.946776648476255 ]
    mass: 118.710000
    reduced_to: 7
  - symbol: Sn # 8
    coordinates: [  0.183562005117803,  0.008123518116021,  0.033593628876426 ]
    mass: 118.710000
    reduced_to: 8
  - symbol: Sn # 9
    coordinates: [  0.683270563836602,  0.507683228495301,  0.285868195319351 ]
    mass: 118.710000
    reduced_to: 9
  - symbol: Sn # 10
    coordinates: [  0.684475081651700,  0.508019549463470,  0.787149524509777 ]
    mass: 118.710000
    reduced_to: 10
  - symbol: Sn # 11
    coordinates: [  0.183030383105653,  0.007786774249275,  0.196539525516631 ]
    mass: 118.710000
    reduced_to: 11
  - symbol: Sn # 12
    coordinates: [  0.184005339315718,  0.007594118289095,  0.500839149489427 ]
    mass: 118.710000
    reduced_to: 12

supercell:
  lattice:
  - [    10.071575891154280,     0.000000000000000,     0.000000000000000 ] # a
  - [    -0.000000010180788,    13.193785316330437,     0.000000000000000 ] # b
  - [     0.002997645132332,    -0.000327946560964,    19.695592559118126 ] # c
  points:
  - symbol: Li # 1
    coordinates: [  0.061122655567442,  0.002539841011731,  0.351495755620690 ]
    mass: 6.940000
    reduced_to: 1
  - symbol: Li # 2
    coordinates: [  0.394455988900775,  0.002539841011731,  0.351495755620690 ]
    mass: 6.940000
    reduced_to: 1
  - symbol: Li # 3
    coordinates: [  0.727789322234108,  0.002539841011731,  0.351495755620690 ]
    mass: 6.940000
    reduced_to: 1
  - symbol: Li # 4
    coordinates: [  0.061122655567442,  0.335873174345064,  0.351495755620690 ]
    mass: 6.940000
    reduced_to: 1
  - symbol: Li # 5
    coordinates: [  0.394455988900775,  0.335873174345064,  0.351495755620690 ]
    mass: 6.940000
    reduced_to: 1
  - symbol: Li # 6
    coordinates: [  0.727789322234108,  0.335873174345064,  0.351495755620690 ]
    mass: 6.940000
    reduced_to: 1
  - symbol: Li # 7
    coordinates: [  0.061122655567442,  0.669206507678398,  0.351495755620690 ]
    mass: 6.940000
    reduced_to: 1
  - symbol: Li # 8
    coordinates: [  0.394455988900775,  0.669206507678398,  0.351495755620690 ]
    mass: 6.940000
    reduced_to: 1
  - symbol: Li # 9
    coordinates: [  0.727789322234108,  0.669206507678398,  0.351495755620690 ]
    mass: 6.940000
    reduced_to: 1
  - symbol: Li # 10
    coordinates: [  0.061428689602344,  0.002707201523804,  0.865500140327518 ]
    mass: 6.940000
    reduced_to: 10
  - symbol: Li # 11
    coordinates: [  0.394762022935677,  0.002707201523804,  0.865500140327518 ]
    mass: 6.940000
    reduced_to: 10
  - symbol: Li # 12
    coordinates: [  0.728095356269010,  0.002707201523804,  0.865500140327518 ]
    mass: 6.940000
    reduced_to: 10
  - symbol: Li # 13
    coordinates: [  0.061428689602344,  0.336040534857138,  0.865500140327518 ]
    mass: 6.940000
    reduced_to: 10
  - symbol: Li # 14
    coordinates: [  0.394762022935677,  0.336040534857138,  0.865500140327518 ]
    mass: 6.940000
    reduced_to: 10
  - symbol: Li # 15
    coordinates: [  0.728095356269010,  0.336040534857138,  0.865500140327518 ]
    mass: 6.940000
    reduced_to: 10
  - symbol: Li # 16
    coordinates: [  0.061428689602344,  0.669373868190471,  0.865500140327518 ]
    mass: 6.940000
    reduced_to: 10
  - symbol: Li # 17
    coordinates: [  0.394762022935677,  0.669373868190471,  0.865500140327518 ]
    mass: 6.940000
    reduced_to: 10
  - symbol: Li # 18
    coordinates: [  0.728095356269010,  0.669373868190471,  0.865500140327518 ]
    mass: 6.940000
    reduced_to: 10
  - symbol: Li # 19
    coordinates: [  0.227765217811337,  0.169317595223675,  0.115435588069427 ]
    mass: 6.940000
    reduced_to: 19
  - symbol: Li # 20
    coordinates: [  0.561098551144671,  0.169317595223675,  0.115435588069427 ]
    mass: 6.940000
    reduced_to: 19
  - symbol: Li # 21
    coordinates: [  0.894431884478004,  0.169317595223675,  0.115435588069427 ]
    mass: 6.940000
    reduced_to: 19
  - symbol: Li # 22
    coordinates: [  0.227765217811337,  0.502650928557008,  0.115435588069427 ]
    mass: 6.940000
    reduced_to: 19
  - symbol: Li # 23
    coordinates: [  0.561098551144671,  0.502650928557008,  0.115435588069427 ]
    mass: 6.940000
    reduced_to: 19
  - symbol: Li # 24
    coordinates: [  0.894431884478004,  0.502650928557008,  0.115435588069427 ]
    mass: 6.940000
    reduced_to: 19
  - symbol: Li # 25
    coordinates: [  0.227765217811337,  0.835984261890341,  0.115435588069427 ]
    mass: 6.940000
    reduced_to: 19
  - symbol: Li # 26
    coordinates: [  0.561098551144671,  0.835984261890341,  0.115435588069427 ]
    mass: 6.940000
    reduced_to: 19
  - symbol: Li # 27
    coordinates: [  0.894431884478004,  0.835984261890341,  0.115435588069427 ]
    mass: 6.940000
    reduced_to: 19
  - symbol: Li # 28
    coordinates: [  0.227961923254136,  0.169192412261306,  0.437025082148769 ]
    mass: 6.940000
    reduced_to: 28
  - symbol: Li # 29
    coordinates: [  0.561295256587469,  0.169192412261306,  0.437025082148769 ]
    mass: 6.940000
    reduced_to: 28
  - symbol: Li # 30
    coordinates: [  0.894628589920802,  0.169192412261306,  0.437025082148769 ]
    mass: 6.940000
    reduced_to: 28
  - symbol: Li # 31
    coordinates: [  0.227961923254136,  0.502525745594640,  0.437025082148769 ]
    mass: 6.940000
    reduced_to: 28
  - symbol: Li # 32
    coordinates: [  0.561295256587469,  0.502525745594640,  0.437025082148769 ]
    mass: 6.940000
    reduced_to: 28
  - symbol: Li # 33
    coordinates: [  0.894628589920802,  0.502525745594640,  0.437025082148769 ]
    mass: 6.940000
    reduced_to: 28
  - symbol: Li # 34
    coordinates: [  0.227961923254136,  0.835859078927973,  0.437025082148769 ]
    mass: 6.940000
    reduced_to: 28
  - symbol: Li # 35
    coordinates: [  0.561295256587469,  0.835859078927973,  0.437025082148769 ]
    mass: 6.940000
    reduced_to: 28
  - symbol: Li # 36
    coordinates: [  0.894628589920802,  0.835859078927973,  0.437025082148769 ]
    mass: 6.940000
    reduced_to: 28
  - symbol: Sn # 37
    coordinates: [  0.061476640114778,  0.002637067924718,  0.697050557837477 ]
    mass: 118.710000
    reduced_to: 37
  - symbol: Sn # 38
    coordinates: [  0.394809973448112,  0.002637067924718,  0.697050557837477 ]
    mass: 118.710000
    reduced_to: 37
  - symbol: Sn # 39
    coordinates: [  0.728143306781445,  0.002637067924718,  0.697050557837477 ]
    mass: 118.710000
    reduced_to: 37
  - symbol: Sn # 40
    coordinates: [  0.061476640114778,  0.335970401258051,  0.697050557837477 ]
    mass: 118.710000
    reduced_to: 37
  - symbol: Sn # 41
    coordinates: [  0.394809973448112,  0.335970401258051,  0.697050557837477 ]
    mass: 118.710000
    reduced_to: 37
  - symbol: Sn # 42
    coordinates: [  0.728143306781445,  0.335970401258051,  0.697050557837477 ]
    mass: 118.710000
    reduced_to: 37
  - symbol: Sn # 43
    coordinates: [  0.061476640114778,  0.669303734591384,  0.697050557837477 ]
    mass: 118.710000
    reduced_to: 37
  - symbol: Sn # 44
    coordinates: [  0.394809973448112,  0.669303734591384,  0.697050557837477 ]
    mass: 118.710000
    reduced_to: 37
  - symbol: Sn # 45
    coordinates: [  0.728143306781445,  0.669303734591384,  0.697050557837477 ]
    mass: 118.710000
    reduced_to: 37
  - symbol: Sn # 46
    coordinates: [  0.228097007781723,  0.169219639565829,  0.593169906109196 ]
    mass: 118.710000
    reduced_to: 46
  - symbol: Sn # 47
    coordinates: [  0.561430341115057,  0.169219639565829,  0.593169906109196 ]
    mass: 118.710000
    reduced_to: 46
  - symbol: Sn # 48
    coordinates: [  0.894763674448390,  0.169219639565829,  0.593169906109196 ]
    mass: 118.710000
    reduced_to: 46
  - symbol: Sn # 49
    coordinates: [  0.228097007781723,  0.502552972899163,  0.593169906109196 ]
    mass: 118.710000
    reduced_to: 46
  - symbol: Sn # 50
    coordinates: [  0.561430341115057,  0.502552972899163,  0.593169906109196 ]
    mass: 118.710000
    reduced_to: 46
  - symbol: Sn # 51
    coordinates: [  0.894763674448390,  0.502552972899163,  0.593169906109196 ]
    mass: 118.710000
    reduced_to: 46
  - symbol: Sn # 52
    coordinates: [  0.228097007781723,  0.835886306232496,  0.593169906109196 ]
    mass: 118.710000
    reduced_to: 46
  - symbol: Sn # 53
    coordinates: [  0.561430341115057,  0.835886306232496,  0.593169906109196 ]
    mass: 118.710000
    reduced_to: 46
  - symbol: Sn # 54
    coordinates: [  0.894763674448390,  0.835886306232496,  0.593169906109196 ]
    mass: 118.710000
    reduced_to: 46
  - symbol: Sn # 55
    coordinates: [  0.227999373560993,  0.169376413886349,  0.946776648476255 ]
    mass: 118.710000
    reduced_to: 55
  - symbol: Sn # 56
    coordinates: [  0.561332706894327,  0.169376413886349,  0.946776648476255 ]
    mass: 118.710000
    reduced_to: 55
  - symbol: Sn # 57
    coordinates: [  0.894666040227660,  0.169376413886349,  0.946776648476255 ]
    mass: 118.710000
    reduced_to: 55
  - symbol: Sn # 58
    coordinates: [  0.227999373560993,  0.502709747219683,  0.946776648476255 ]
    mass: 118.710000
    reduced_to: 55
  - symbol: Sn # 59
    coordinates: [  0.561332706894327,  0.502709747219683,  0.946776648476255 ]
    mass: 118.710000
    reduced_to: 55
  - symbol: Sn # 60
    coordinates: [  0.894666040227660,  0.502709747219683,  0.946776648476255 ]
    mass: 118.710000
    reduced_to: 55
  - symbol: Sn # 61
    coordinates: [  0.227999373560993,  0.836043080553016,  0.946776648476255 ]
    mass: 118.710000
    reduced_to: 55
  - symbol: Sn # 62
    coordinates: [  0.561332706894327,  0.836043080553016,  0.946776648476255 ]
    mass: 118.710000
    reduced_to: 55
  - symbol: Sn # 63
    coordinates: [  0.894666040227660,  0.836043080553016,  0.946776648476255 ]
    mass: 118.710000
    reduced_to: 55
  - symbol: Sn # 64
    coordinates: [  0.061187335039268,  0.002707839372007,  0.033593628876426 ]
    mass: 118.710000
    reduced_to: 64
  - symbol: Sn # 65
    coordinates: [  0.394520668372601,  0.002707839372007,  0.033593628876426 ]
    mass: 118.710000
    reduced_to: 64
  - symbol: Sn # 66
    coordinates: [  0.727854001705934,  0.002707839372007,  0.033593628876426 ]
    mass: 118.710000
    reduced_to: 64
  - symbol: Sn # 67
    coordinates: [  0.061187335039268,  0.336041172705340,  0.033593628876426 ]
    mass: 118.710000
    reduced_to: 64
  - symbol: Sn # 68
    coordinates: [  0.394520668372601,  0.336041172705340,  0.033593628876426 ]
    mass: 118.710000
    reduced_to: 64
  - symbol: Sn # 69
    coordinates: [  0.727854001705934,  0.336041172705340,  0.033593628876426 ]
    mass: 118.710000
    reduced_to: 64
  - symbol: Sn # 70
    coordinates: [  0.061187335039268,  0.669374506038674,  0.033593628876426 ]
    mass: 118.710000
    reduced_to: 64
  - symbol: Sn # 71
    coordinates: [  0.394520668372601,  0.669374506038674,  0.033593628876426 ]
    mass: 118.710000
    reduced_to: 64
  - symbol: Sn # 72
    coordinates: [  0.727854001705934,  0.669374506038674,  0.033593628876426 ]
    mass: 118.710000
    reduced_to: 64
  - symbol: Sn # 73
    coordinates: [  0.227756854612201,  0.169227742831767,  0.285868195319351 ]
    mass: 118.710000
    reduced_to: 73
  - symbol: Sn # 74
    coordinates: [  0.561090187945534,  0.169227742831767,  0.285868195319351 ]
    mass: 118.710000
    reduced_to: 73
  - symbol: Sn # 75
    coordinates: [  0.894423521278867,  0.169227742831767,  0.285868195319351 ]
    mass: 118.710000
    reduced_to: 73
  - symbol: Sn # 76
    coordinates: [  0.227756854612201,  0.502561076165100,  0.285868195319351 ]
    mass: 118.710000
    reduced_to: 73
  - symbol: Sn # 77
    coordinates: [  0.561090187945534,  0.502561076165100,  0.285868195319351 ]
    mass: 118.710000
    reduced_to: 73
  - symbol: Sn # 78
    coordinates: [  0.894423521278867,  0.502561076165100,  0.285868195319351 ]
    mass: 118.710000
    reduced_to: 73
  - symbol: Sn # 79
    coordinates: [  0.227756854612201,  0.835894409498434,  0.285868195319351 ]
    mass: 118.710000
    reduced_to: 73
  - symbol: Sn # 80
    coordinates: [  0.561090187945534,  0.835894409498434,  0.285868195319351 ]
    mass: 118.710000
    reduced_to: 73
  - symbol: Sn # 81
    coordinates: [  0.894423521278867,  0.835894409498434,  0.285868195319351 ]
    mass: 118.710000
    reduced_to: 73
  - symbol: Sn # 82
    coordinates: [  0.228158360550567,  0.169339849821157,  0.787149524509777 ]
    mass: 118.710000
    reduced_to: 82
  - symbol: Sn # 83
    coordinates: [  0.561491693883900,  0.169339849821157,  0.787149524509777 ]
    mass: 118.710000
    reduced_to: 82
  - symbol: Sn # 84
    coordinates: [  0.894825027217233,  0.169339849821157,  0.787149524509777 ]
    mass: 118.710000
    reduced_to: 82
  - symbol: Sn # 85
    coordinates: [  0.228158360550567,  0.502673183154490,  0.787149524509777 ]
    mass: 118.710000
    reduced_to: 82
  - symbol: Sn # 86
    coordinates: [  0.561491693883900,  0.502673183154490,  0.787149524509777 ]
    mass: 118.710000
    reduced_to: 82
  - symbol: Sn # 87
    coordinates: [  0.894825027217233,  0.502673183154490,  0.787149524509777 ]
    mass: 118.710000
    reduced_to: 82
  - symbol: Sn # 88
    coordinates: [  0.228158360550567,  0.836006516487823,  0.787149524509777 ]
    mass: 118.710000
    reduced_to: 82
  - symbol: Sn # 89
    coordinates: [  0.561491693883900,  0.836006516487823,  0.787149524509777 ]
    mass: 118.710000
    reduced_to: 82
  - symbol: Sn # 90
    coordinates: [  0.894825027217233,  0.836006516487823,  0.787149524509777 ]
    mass: 118.710000
    reduced_to: 82
  - symbol: Sn # 91
    coordinates: [  0.061010127701884,  0.002595591416425,  0.196539525516631 ]
    mass: 118.710000
    reduced_to: 91
  - symbol: Sn # 92
    coordinates: [  0.394343461035218,  0.002595591416425,  0.196539525516631 ]
    mass: 118.710000
    reduced_to: 91
  - symbol: Sn # 93
    coordinates: [  0.727676794368551,  0.002595591416425,  0.196539525516631 ]
    mass: 118.710000
    reduced_to: 91
  - symbol: Sn # 94
    coordinates: [  0.061010127701884,  0.335928924749758,  0.196539525516631 ]
    mass: 118.710000
    reduced_to: 91
  - symbol: Sn # 95
    coordinates: [  0.394343461035218,  0.335928924749758,  0.196539525516631 ]
    mass: 118.710000
    reduced_to: 91
  - symbol: Sn # 96
    coordinates: [  0.727676794368551,  0.335928924749758,  0.196539525516631 ]
    mass: 118.710000
    reduced_to: 91
  - symbol: Sn # 97
    coordinates: [  0.061010127701884,  0.669262258083092,  0.196539525516631 ]
    mass: 118.710000
    reduced_to: 91
  - symbol: Sn # 98
    coordinates: [  0.394343461035218,  0.669262258083092,  0.196539525516631 ]
    mass: 118.710000
    reduced_to: 91
  - symbol: Sn # 99
    coordinates: [  0.727676794368551,  0.669262258083092,  0.196539525516631 ]
    mass: 118.710000
    reduced_to: 91
  - symbol: Sn # 100
    coordinates: [  0.061335113105239,  0.002531372763032,  0.500839149489427 ]
    mass: 118.710000
    reduced_to: 100
  - symbol: Sn # 101
    coordinates: [  0.394668446438572,  0.002531372763032,  0.500839149489427 ]
    mass: 118.710000
    reduced_to: 100
  - symbol: Sn # 102
    coordinates: [  0.728001779771906,  0.002531372763032,  0.500839149489427 ]
    mass: 118.710000
    reduced_to: 100
  - symbol: Sn # 103
    coordinates: [  0.061335113105239,  0.335864706096365,  0.500839149489427 ]
    mass: 118.710000
    reduced_to: 100
  - symbol: Sn # 104
    coordinates: [  0.394668446438572,  0.335864706096365,  0.500839149489427 ]
    mass: 118.710000
    reduced_to: 100
  - symbol: Sn # 105
    coordinates: [  0.728001779771906,  0.335864706096365,  0.500839149489427 ]
    mass: 118.710000
    reduced_to: 100
  - symbol: Sn # 106
    coordinates: [  0.061335113105239,  0.669198039429698,  0.500839149489427 ]
    mass: 118.710000
    reduced_to: 100
  - symbol: Sn # 107
    coordinates: [  0.394668446438572,  0.669198039429698,  0.500839149489427 ]
    mass: 118.710000
    reduced_to: 100
  - symbol: Sn # 108
    coordinates: [  0.728001779771906,  0.669198039429698,  0.500839149489427 ]
    mass: 118.710000
    reduced_to: 100

displacements:
- atom:    1
  displacement:
    [   0.0100000000000000,  0.0000000000000000,  0.0000000000000000 ]
  forces:
  - [  -0.0118245668709278,  0.0002493924112059, -0.0328265428543091 ]
  - [   0.0014591400977224,  0.0002480584953446, -0.0333521366119385 ]
  - [   0.0014147742185742,  0.0002501977432985, -0.0324311479926109 ]
  - [   0.0002696365118027,  0.0002485436853021, -0.0328876860439777 ]
  - [   0.0001735317055136,  0.0003870743094012, -0.0329505056142807 ]
  - [   0.0001722118176986,  0.0001138166117016, -0.0328241474926472 ]
  - [   0.0002696451265365,  0.0002511744096410, -0.0328883044421673 ]
  - [   0.0001737498678267,  0.0001127386931330, -0.0329510457813740 ]
  - [   0.0001721248117974,  0.0003856778785121, -0.0328247435390949 ]
  - [  -0.0002275316510350, -0.0003465512709226, -0.0008091470226645 ]
  - [  -0.0002257195301354, -0.0003462575841695, -0.0008053826168180 ]
  - [  -0.0002258836757392, -0.0003468251670711, -0.0008159214630723 ]
  - [  -0.0002278836909682, -0.0003462657332420, -0.0008102981373668 ]
  - [  -0.0002259355969727, -0.0003442438319325, -0.0008073030039668 ]
  - [  -0.0002261607442051, -0.0003465857007541, -0.0008142311125994 ]
  - [  -0.0002274704165757, -0.0003459379076958, -0.0008104462176561 ]
  - [  -0.0002257653977722, -0.0003469837829471, -0.0008066929876804 ]
  - [  -0.0002257903106511, -0.0003451998345554, -0.0008130418136716 ]
  - [   0.0002045221626759,  0.0000570967167732,  0.0179049205034971 ]
  - [   0.0001836009323597,  0.0000206902623177,  0.0180057249963284 ]
  - [   0.0002041552215815, -0.0000152564098244,  0.0181033145636320 ]
  - [   0.0001440513879061,  0.0000210502348637,  0.0180360898375511 ]
  - [   0.0002333312295377,  0.0000210357829928,  0.0180063657462597 ]
  - [   0.0001445643138140,  0.0000202520914172,  0.0179764255881310 ]
  - [   0.0002041433472186, -0.0000158795246534,  0.0179049577564001 ]
  - [   0.0001833401620388,  0.0000194869935513,  0.0180058199912310 ]
  - [   0.0002056453377008,  0.0000558858300792,  0.0181037578731775 ]
  - [   0.0002736454480328,  0.0007992043974809, -0.0035156160593033 ]
  - [   0.0000441111624241,  0.0000879606232047, -0.0041820518672466 ]
  - [   0.0002731127897277, -0.0006185997044668, -0.0048453770577908 ]
  - [  -0.0002320758067071,  0.0000882876556716, -0.0042088031768799 ]
  - [  -0.0002044115826720,  0.0000884858891368, -0.0041812323033810 ]
  - [  -0.0002328141126782,  0.0000890706942300, -0.0041542798280716 ]
  - [   0.0002732665161602, -0.0006201359210536, -0.0035167150199413 ]
  - [   0.0000437713169958,  0.0000900188460946, -0.0041818730533123 ]
  - [   0.0002723067882471,  0.0007959090871736, -0.0048441290855408 ]
  - [   0.0000056538410718, -0.0000109802640509,  0.0355875752866268 ]
  - [  -0.0000274787162198, -0.0000112152774818,  0.0355847589671612 ]
  - [  -0.0000271001990768, -0.0000106892839540,  0.0355910249054432 ]
  - [  -0.0000023013089958, -0.0000108249805635,  0.0355867668986320 ]
  - [  -0.0000241800080403, -0.0000131438428070,  0.0355828180909157 ]
  - [  -0.0000232218517340, -0.0000082922633737,  0.0355908498167992 ]
  - [  -0.0000024753317120, -0.0000107979285531,  0.0355879329144955 ]
  - [  -0.0000236154592130, -0.0000086233339971,  0.0355832949280739 ]
  - [  -0.0000230628575082, -0.0000136794988066,  0.0355925746262074 ]
  - [   0.0000413516536355,  0.0003331420884933, -0.0457354150712490 ]
  - [   0.0000531068071723,  0.0001835245639086, -0.0458802431821823 ]
  - [   0.0000414638780057,  0.0000336500816047, -0.0460238195955753 ]
  - [   0.0000021895393729,  0.0001832359557739, -0.0458780340850353 ]
  - [   0.0000044568441808,  0.0001834561116993, -0.0458814390003681 ]
  - [   0.0000029103830457,  0.0001840642653406, -0.0458847135305405 ]
  - [   0.0000420920550823,  0.0000340023689205, -0.0457374416291714 ]
  - [   0.0000531952828169,  0.0001837706658989, -0.0458809249103069 ]
  - [   0.0000412138178945,  0.0003337782691233, -0.0460263602435589 ]
  - [  -0.0001347781217191,  0.0000108042167994, -0.0005974248051643 ]
  - [  -0.0001439477782696,  0.0000087905864348, -0.0006058178842068 ]
  - [  -0.0001320645096712,  0.0000067162545747, -0.0006136521697044 ]
  - [  -0.0001325654156972,  0.0000090607991297, -0.0006014853715897 ]
  - [  -0.0001484919775976,  0.0000094377537607, -0.0006061494350433 ]
  - [  -0.0001297167764278,  0.0000092143745860, -0.0006097070872784 ]
  - [  -0.0001340215821983,  0.0000071540325735, -0.0005968324840069 ]
  - [  -0.0001442273205612,  0.0000095886171039, -0.0006056651473045 ]
  - [  -0.0001314483524766,  0.0000123300414998, -0.0006139874458313 ]
  - [   0.0003094910643995, -0.0004071498988196, -0.0133126862347126 ]
  - [   0.0002065210137516, -0.0004077119810972, -0.0132709918543696 ]
  - [   0.0002063409774564, -0.0004061601357535, -0.0133631369099021 ]
  - [   0.0002547281328589, -0.0004062084772158, -0.0133166778832674 ]
  - [   0.0002074972726405, -0.0004103904939257, -0.0134136946871877 ]
  - [   0.0002083541039610, -0.0004038837505504, -0.0132205188274384 ]
  - [   0.0002549414057285, -0.0004064525710419, -0.0133173484355211 ]
  - [   0.0002069675829262, -0.0004043477238156, -0.0134141594171524 ]
  - [   0.0002078520337818, -0.0004104001563974, -0.0132201928645372 ]
  - [   0.0019031506963074,  0.0025616171769798, -0.0360281243920326 ]
  - [   0.0000925406347960,  0.0000218125060201, -0.0353482514619827 ]
  - [   0.0018803381826729, -0.0024612434208393, -0.0346946865320206 ]
  - [   0.0001019341871142,  0.0000199894420803, -0.0353158935904503 ]
  - [   0.0002741065109149,  0.0000213701277971, -0.0353465527296066 ]
  - [   0.0001022443175316,  0.0000213813036680, -0.0353765189647675 ]
  - [   0.0019064373336732, -0.0025259023532271, -0.0360297858715057 ]
  - [   0.0000948095985223,  0.0000189831480384, -0.0353471115231514 ]
  - [   0.0018830292392522,  0.0025062551721931, -0.0346920788288116 ]
  - [  -0.0003180999774486, -0.0001875764428405,  0.0208114311099052 ]
  - [  -0.0003213337622583, -0.0001854398287833,  0.0208179242908955 ]
  - [  -0.0003194204182364, -0.0001827832311392,  0.0208233017474413 ]
  - [  -0.0003193740267307, -0.0001853805442806,  0.0208182912319899 ]
  - [  -0.0003183234948665, -0.0001856859307736,  0.0208175219595432 ]
  - [  -0.0003198193153366, -0.0001848880201578,  0.0208161845803261 ]
  - [  -0.0003198457416147, -0.0001820571633289,  0.0208115726709366 ]
  - [  -0.0003218978818040, -0.0001833121350501,  0.0208177678287029 ]
  - [  -0.0003189343842678, -0.0001861356431618,  0.0208227746188641 ]
  - [  -0.0005257825832814,  0.0000573925353820,  0.0480923019349575 ]
  - [   0.0006098324665800,  0.0000580556225032,  0.0477562993764877 ]
  - [   0.0005993549712002,  0.0000575329904677,  0.0483968406915665 ]
  - [   0.0003188010305166,  0.0000587590038776,  0.0480802133679390 ]
  - [   0.0003195288591087, -0.0000728396698833,  0.0480882972478867 ]
  - [   0.0003235035110265,  0.0001768576621544,  0.0480792745947838 ]
  - [   0.0003179167397320,  0.0000554802245460,  0.0480802357196808 ]
  - [   0.0003189868293703,  0.0001878838520497,  0.0480891093611717 ]
  - [   0.0003233302268200, -0.0000650482979836,  0.0480807162821293 ]
  - [  -0.0004584441776387,  0.0003180823405273,  0.0105322375893593 ]
  - [  -0.0001029046252370,  0.0003183465451002,  0.0103082209825516 ]
  - [  -0.0000969387474470,  0.0003187992260791,  0.0107654258608818 ]
  - [  -0.0000111691842903,  0.0003197938203812,  0.0105377957224846 ]
  - [  -0.0001782262697816,  0.0001875376328826,  0.0105190053582191 ]
  - [  -0.0001781827304512,  0.0004526701522991,  0.0105559304356575 ]
  - [  -0.0000112596899271,  0.0003194984456059,  0.0105382651090622 ]
  - [  -0.0001791110262275,  0.0004525768454187,  0.0105191245675087 ]
  - [  -0.0001767857465893,  0.0001864442456281,  0.0105553045868874 ]
- atom:    1
  displacement:
    [  -0.0100000000000000,  0.0000000000000000,  0.0000000000000000 ]
  forces:
  - [   0.0120219588279724,  0.0002488469181117, -0.0328244492411613 ]
  - [  -0.0012169806286693,  0.0002501824346837, -0.0324314795434475 ]
  - [  -0.0012612352147698,  0.0002480054972693, -0.0333536714315414 ]
  - [  -0.0000723728444427,  0.0002487652527634, -0.0328879132866859 ]
  - [   0.0000252209138125,  0.0001140298554674, -0.0328237153589725 ]
  - [   0.0000238637985603,  0.0003869000938721, -0.0329516194760799 ]
  - [  -0.0000722499098629,  0.0002511671045795, -0.0328882411122322 ]
  - [   0.0000253499019891,  0.0003859498538077, -0.0328246466815472 ]
  - [   0.0000237751701206,  0.0001123107649619, -0.0329517498612404 ]
  - [  -0.0002257088199258, -0.0003466159105301, -0.0008092457428575 ]
  - [  -0.0002267579548061, -0.0003463590401225, -0.0008154166862369 ]
  - [  -0.0002268813550472, -0.0003468665527180, -0.0008056117221713 ]
  - [  -0.0002256454899907, -0.0003462424501777, -0.0008102804422379 ]
  - [  -0.0002269803080708, -0.0003466131165624, -0.0008137170225382 ]
  - [  -0.0002271903213114, -0.0003441919106990, -0.0008076205849648 ]
  - [  -0.0002254222054034, -0.0003458550199866, -0.0008105039596558 ]
  - [  -0.0002267207019031, -0.0003444999456406, -0.0008132979273796 ]
  - [  -0.0002267761155963, -0.0003475431876723, -0.0008065244182944 ]
  - [   0.0001426837407053, -0.0000160533891176,  0.0181036200374365 ]
  - [   0.0001644184812903,  0.0000203372910619,  0.0180059261620045 ]
  - [   0.0001416127197444,  0.0000572687240492,  0.0179061181843281 ]
  - [   0.0002035303041339,  0.0000208247747651,  0.0179760046303272 ]
  - [   0.0001141852699220,  0.0000209677964449,  0.0180064067244530 ]
  - [   0.0002042870037258,  0.0000203779327421,  0.0180361364036798 ]
  - [   0.0001422623172402,  0.0000564192232559,  0.0181045047938824 ]
  - [   0.0001646685414016,  0.0000200979411602,  0.0180060565471649 ]
  - [   0.0001431594137102, -0.0000157355698320,  0.0179056134074926 ]
  - [  -0.0007188400486484, -0.0006132487906143, -0.0048410594463348 ]
  - [  -0.0004904655506834,  0.0000891704112291, -0.0041814148426056 ]
  - [  -0.0007192449993454,  0.0008044655551203, -0.0035112053155899 ]
  - [  -0.0002136393450201,  0.0000882340464159, -0.0041553713381290 ]
  - [  -0.0002414836199023,  0.0000886265188456, -0.0041812025010586 ]
  - [  -0.0002141952863894,  0.0000891152958502, -0.0042078755795956 ]