# Thermal properties / unit cell (natom)

unit:
  temperature:   K
  free_energy:   kJ/mol
  entropy:       J/K/mol
  heat_capacity: J/K/mol

natom: 9    
cutoff_frequency: 0.00000
num_modes: 178200
num_integrated_modes: 178078

zero_point_energy:      33.3612321

thermal_properties:
- temperature:         0.0000000
  free_energy:        33.3612321
  entropy:             0.0000000
  heat_capacity:       0.0000000
  energy:             33.3612321

- temperature:        10.0000000
  free_energy:        33.3578603
  entropy:             1.1676519
  heat_capacity:       3.1269510
  energy:             33.3695369

- temperature:        20.0000000
  free_energy:        33.3211418
  entropy:             7.0526225
  heat_capacity:      16.6098105
  energy:             33.4621942

- temperature:        30.0000000
  free_energy:        33.2038709
  entropy:            16.8105749
  heat_capacity:      32.3566201
  energy:             33.7081881

- temperature:        40.0000000
  free_energy:        32.9801801
  entropy:            28.0467606
  heat_capacity:      46.0837694
  energy:             34.1020505

- temperature:        50.0000000
  free_energy:        32.6417063
  entropy:            39.6772848
  heat_capacity:      58.5163050
  energy:             34.6255705

- temperature:        60.0000000
  free_energy:        32.1862689
  entropy:            51.4237613
  heat_capacity:      70.7139144
  energy:             35.2716946

- temperature:        70.0000000
  free_energy:        31.6129865
  entropy:            63.2435878
  heat_capacity:      82.9527197
  energy:             36.0400377

- temperature:        80.0000000
  free_energy:        30.9212304
  entropy:            75.1124926
  heat_capacity:      95.0328385
  energy:             36.9302298

- temperature:        90.0000000
  free_energy:        30.1107329
  entropy:            86.9819920
  heat_capacity:     106.6408306
  energy:             37.9391122

- temperature:       100.0000000
  free_energy:        29.1818016
  entropy:            98.7881667
  heat_capacity:     117.5240866
  energy:             39.0606183

- temperature:       110.0000000
  free_energy:        28.1353979
  entropy:           110.4661627
  heat_capacity:     127.5350215
  energy:             40.2866758

- temperature:       120.0000000
  free_energy:        26.9730957
  entropy:           121.9593765
  heat_capacity:     136.6187608
  energy:             41.6082208

- temperature:       130.0000000
  free_energy:        25.6969764
  entropy:           133.2231860
  heat_capacity:     144.7856721
  energy:             43.0159906

- temperature:       140.0000000
  free_energy:        24.3095056
  entropy:           144.2252635
  heat_capacity:     152.0856996
  energy:             44.5010425

- temperature:       150.0000000
  free_energy:        22.8134159
  entropy:           154.9442197
  heat_capacity:     158.5892427
  energy:             46.0550488

- temperature:       160.0000000
  free_energy:        21.2116070
  entropy:           165.3676627
  heat_capacity:     164.3744899
  energy:             47.6704331

- temperature:       170.0000000
  free_energy:        19.5070661
  entropy:           175.4902331
  heat_capacity:     169.5197220
  energy:             49.3404057

- temperature:       180.0000000
  free_energy:        17.7028059
  entropy:           185.3118660
  heat_capacity:     174.0990297
  energy:             51.0589418

- temperature:       190.0000000
  free_energy:        15.8018196
  entropy:           194.8363535
  heat_capacity:     178.1802228
  energy:             52.8207267

- temperature:       200.0000000
  free_energy:        13.8070478
  entropy:           204.0702069
  heat_capacity:     181.8240677
  energy:             54.6210892

- temperature:       210.0000000
  free_energy:        11.7213565
  entropy:           213.0217790
  heat_capacity:     185.0842901
  energy:             56.4559301

- temperature:       220.0000000
  free_energy:         9.5475215
  entropy:           221.7006020
  heat_capacity:     188.0079828
  energy:             58.3216539

- temperature:       230.0000000
  free_energy:         7.2882196
  entropy:           230.1168950
  heat_capacity:     190.6362053
  energy:             60.2151054

- temperature:       240.0000000
  free_energy:         4.9460235
  entropy:           238.2812045
  heat_capacity:     193.0046459
  energy:             62.1335126

- temperature:       250.0000000
  free_energy:         2.5234001
  entropy:           246.2041443
  heat_capacity:     195.1442784
  energy:             64.0744361

- temperature:       260.0000000
  free_energy:         0.0227102
  entropy:           253.8962125
  heat_capacity:     197.0819751
  energy:             66.0357255

- temperature:       270.0000000
  free_energy:        -2.5537888
  entropy:           261.3676646
  heat_capacity:     198.8410601
  energy:             68.0154806

- temperature:       280.0000000
  free_energy:        -5.2039408
  entropy:           268.6284284
  heat_capacity:     200.4417989
  energy:             70.0120191

- temperature:       290.0000000
  free_energy:        -7.9256870
  entropy:           275.6880509
  heat_capacity:     201.9018251
  energy:             72.0238478

- temperature:       300.0000000
  free_energy:       -10.7170619
  entropy:           282.5556664
  heat_capacity:     203.2365095
  energy:             74.0496380

- temperature:       310.0000000
  free_energy:       -13.5761894
  entropy:           289.2399821
  heat_capacity:     204.4592764
  energy:             76.0882051

- temperature:       320.0000000
  free_energy:       -16.5012782
  entropy:           295.7492750
  heat_capacity:     205.5818753
  energy:             78.1384898

- temperature:       330.0000000
  free_energy:       -19.4906177
  entropy:           302.0913966
  heat_capacity:     206.6146125
  energy:             80.1995432

- temperature:       340.0000000
  free_energy:       -22.5425737
  entropy:           308.2737840
  heat_capacity:     207.5665486
  energy:             82.2705129

- temperature:       350.0000000
  free_energy:       -25.6555844
  entropy:           314.3034742
  heat_capacity:     208.4456675
  energy:             84.3506316

- temperature:       360.0000000
  free_energy:       -28.8281564
  entropy:           320.1871208
  heat_capacity:     209.2590208
  energy:             86.4392071

- temperature:       370.0000000
  free_energy:       -32.0588610
  entropy:           325.9310125
  heat_capacity:     210.0128504
  energy:             88.5356136

- temperature:       380.0000000
  free_energy:       -35.3463306
  entropy:           331.5410917
  heat_capacity:     210.7126942
  energy:             90.6392842

- temperature:       390.0000000
  free_energy:       -38.6892555
  entropy:           337.0229733
  heat_capacity:     211.3634766
  energy:             92.7497040

- temperature:       400.0000000
  free_energy:       -42.0863805
  entropy:           342.3819635
  heat_capacity:     211.9695858
  energy:             94.8664049

- temperature:       410.0000000
  free_energy:       -45.5365019
  entropy:           347.6230778
  heat_capacity:     212.5349409
  energy:             96.9889600

- temperature:       420.0000000
  free_energy:       -49.0384650
  entropy:           352.7510585
  heat_capacity:     213.0630490
  energy:             99.1169796

- temperature:       430.0000000
  free_energy:       -52.5911610
  entropy:           357.7703913
  heat_capacity:     213.5570552
  energy:            101.2501073

- temperature:       440.0000000
  free_energy:       -56.1935248
  entropy:           362.6853211
  heat_capacity:     214.0197855
  energy:            103.3880165

- temperature:       450.0000000
  free_energy:       -59.8445328
  entropy:           367.4998668
  heat_capacity:     214.4537842
  energy:            105.5304073

- temperature:       460.0000000
  free_energy:       -63.5432003
  entropy:           372.2178354
  heat_capacity:     214.8613463
  energy:            107.6770040

- temperature:       470.0000000
  free_energy:       -67.2885796
  entropy:           376.8428354
  heat_capacity:     215.2445455
  energy:            109.8275530

- temperature:       480.0000000
  free_energy:       -71.0797585
  entropy:           381.3782886
  heat_capacity:     215.6052594
  energy:            111.9818200

- temperature:       490.0000000
  free_energy:       -74.9158578
  entropy:           385.8274422
  heat_capacity:     215.9451904
  energy:            114.1395889

- temperature:       500.0000000
  free_energy:       -78.7960300
  entropy:           390.1933794
  heat_capacity:     216.2658851
  energy:            116.3006597

- temperature:       510.0000000
  free_energy:       -82.7194577
  entropy:           394.4790293
  heat_capacity:     216.5687507
  energy:            118.4648472

- temperature:       520.0000000
  free_energy:       -86.6853522
  entropy:           398.6871766
  heat_capacity:     216.8550695
  energy:            120.6319796

- temperature:       530.0000000
  free_energy:       -90.6929518
  entropy:           402.8204701
  heat_capacity:     217.1260121
  energy:            122.8018974

- temperature:       540.0000000
  free_energy:       -94.7415205
  entropy:           406.8814309
  heat_capacity:     217.3826485
  energy:            124.9744522

- temperature:       550.0000000
  free_energy:       -98.8303473
  entropy:           410.8724604
  heat_capacity:     217.6259581
  energy:            127.1495059

- temperature:       560.0000000
  free_energy:      -102.9587443
  entropy:           414.7958468
  heat_capacity:     217.8568388
  energy:            129.3269299

- temperature:       570.0000000
  free_energy:      -107.1260460
  entropy:           418.6537720
  heat_capacity:     218.0761151
  energy:            131.5066040

- temperature:       580.0000000
  free_energy:      -111.3316085
  entropy:           422.4483181
  heat_capacity:     218.2845446
  energy:            133.6884161

- temperature:       590.0000000
  free_energy:      -115.5748078
  entropy:           426.1814726
  heat_capacity:     218.4828250
  energy:            135.8722611

- temperature:       600.0000000
  free_energy:      -119.8550396
  entropy:           429.8551342
  heat_capacity:     218.6715989
  energy:            138.0580409

- temperature:       610.0000000
  free_energy:      -124.1717182
  entropy:           433.4711173
  heat_capacity:     218.8514595
  energy:            140.2456634

- temperature:       620.0000000
  free_energy:      -128.5242755
  entropy:           437.0311575
  heat_capacity:     219.0229548
  energy:            142.4350422

- temperature:       630.0000000
  free_energy:      -132.9121604
  entropy:           440.5369154
  heat_capacity:     219.1865917
  energy:            144.6260963

- temperature:       640.0000000
  free_energy:      -137.3348382
  entropy:           443.9899806
  heat_capacity:     219.3428394
  energy:            146.8187494

- temperature:       650.0000000
  free_energy:      -141.7917895
  entropy:           447.3918759
  heat_capacity:     219.4921331
  energy:            149.0129299

- temperature:       660.0000000
  free_energy:      -146.2825100
  entropy:           450.7440609
  heat_capacity:     219.6348766
  energy:            151.2085702

- temperature:       670.0000000
  free_energy:      -150.8065097
  entropy:           454.0479351
  heat_capacity:     219.7714448
  energy:            153.4056068

- temperature:       680.0000000
  free_energy:      -155.3633121
  entropy:           457.3048409
  heat_capacity:     219.9021866
  energy:            155.6039797

- temperature:       690.0000000
  free_energy:      -159.9524542
  entropy:           460.5160673
  heat_capacity:     220.0274266
  energy:            157.8036322

- temperature:       700.0000000
  free_energy:      -164.5734853
  entropy:           463.6828518
  heat_capacity:     220.1474674
  energy:            160.0045109

- temperature:       710.0000000
  free_energy:      -169.2259671
  entropy:           466.8063835
  heat_capacity:     220.2625911
  energy:            162.2065652

- temperature:       720.0000000
  free_energy:      -173.9094727
  entropy:           469.8878054
  heat_capacity:     220.3730610
  energy:            164.4097472

- temperature:       730.0000000
  free_energy:      -178.6235865
  entropy:           472.9282167
  heat_capacity:     220.4791233
  energy:            166.6140117

- temperature:       740.0000000
  free_energy:      -183.3679038
  entropy:           475.9286751
  heat_capacity:     220.5810080
  energy:            168.8193158

- temperature:       750.0000000
  free_energy:      -188.1420302
  entropy:           478.8901985
  heat_capacity:     220.6789305
  energy:            171.0256187

- temperature:       760.0000000
  free_energy:      -192.9455813
  entropy:           481.8137673
  heat_capacity:     220.7730925
  energy:            173.2328818

- temperature:       770.0000000
  free_energy:      -197.7781822
  entropy:           484.7003257
  heat_capacity:     220.8636832
  energy:            175.4410686

- temperature:       780.0000000
  free_energy:      -202.6394675
  entropy:           487.5507842
  heat_capacity:     220.9508801
  energy:            177.6501442

- temperature:       790.0000000
  free_energy:      -207.5290805
  entropy:           490.3660202
  heat_capacity:     221.0348497
  energy:            179.8600755

- temperature:       800.0000000
  free_energy:      -212.4466733
  entropy:           493.1468803
  heat_capacity:     221.1157486
  energy:            182.0708309

- temperature:       810.0000000
  free_energy:      -217.3919062
  entropy:           495.8941814
  heat_capacity:     221.1937240
  energy:            184.2823807

- temperature:       820.0000000
  free_energy:      -222.3644477
  entropy:           498.6087120
  heat_capacity:     221.2689146
  energy:            186.4946961

- temperature:       830.0000000
  free_energy:      -227.3639738
  entropy:           501.2912336
  heat_capacity:     221.3414507
  energy:            188.7077501

- temperature:       840.0000000
  free_energy:      -232.3901681
  entropy:           503.9424819
  heat_capacity:     221.4114554
  energy:            190.9215167

- temperature:       850.0000000
  free_energy:      -237.4427215
  entropy:           506.5631679
  heat_capacity:     221.4790446
  energy:            193.1359712

- temperature:       860.0000000
  free_energy:      -242.5213319
  entropy:           509.1539789
  heat_capacity:     221.5443276
  energy:            195.3510899

- temperature:       870.0000000
  free_energy:      -247.6257037
  entropy:           511.7155795
  heat_capacity:     221.6074079
  energy:            197.5668504

- temperature:       880.0000000
  free_energy:      -252.7555483
  entropy:           514.2486129
  heat_capacity:     221.6683830
  energy:            199.7832311

- temperature:       890.0000000
  free_energy:      -257.9105829
  entropy:           516.7537014
  heat_capacity:     221.7273452
  energy:            202.0002113

- temperature:       900.0000000
  free_energy:      -263.0905311
  entropy:           519.2314474
  heat_capacity:     221.7843818
  energy:            204.2177716

- temperature:       910.0000000
  free_energy:      -268.2951226
  entropy:           521.6824346
  heat_capacity:     221.8395754
  energy:            206.4358928

- temperature:       920.0000000
  free_energy:      -273.5240925
  entropy:           524.1072279
  heat_capacity:     221.8930045
  energy:            208.6545572

- temperature:       930.0000000
  free_energy:      -278.7771817
  entropy:           526.5063753
  heat_capacity:     221.9447430
  energy:            210.8737473

- temperature:       940.0000000
  free_energy:      -284.0541363
  entropy:           528.8804074
  heat_capacity:     221.9948613
  energy:            213.0934466

- temperature:       950.0000000
  free_energy:      -289.3547078
  entropy:           531.2298391
  heat_capacity:     222.0434262
  energy:            215.3136393

- temperature:       960.0000000
  free_energy:      -294.6786528
  entropy:           533.5551697
  heat_capacity:     222.0905010
  energy:            217.5343102

- temperature:       970.0000000
  free_energy:      -300.0257325
  entropy:           535.8568836
  heat_capacity:     222.1361458
  energy:            219.7554446

- temperature:       980.0000000
  free_energy:      -305.3957133
  entropy:           538.1354508
  heat_capacity:     222.1804178
  energy:            221.9770285

- temperature:       990.0000000
  free_energy:      -310.7883659
  entropy:           540.3913277
  heat_capacity:     222.2233713
  energy:            224.1990486

- temperature:      1000.0000000
  free_energy:      -316.2034657
  entropy:           542.6249574
  heat_capacity:     222.2650581
  energy:            226.4214917
