# Thermal properties / unit cell (natom)

unit:
  temperature:   K
  free_energy:   kJ/mol
  entropy:       J/K/mol
  heat_capacity: J/K/mol

natom: 6    
cutoff_frequency: 0.00000
num_modes: 242172
num_integrated_modes: 242166

zero_point_energy:      13.6773324

thermal_properties:
- temperature:         0.0000000
  free_energy:        13.6773324
  entropy:             0.0000000
  heat_capacity:       0.0000000
  energy:             13.6773324

- temperature:        10.0000000
  free_energy:        13.6712433
  entropy:             2.3934430
  heat_capacity:       7.0518997
  energy:             13.6951777

- temperature:        20.0000000
  free_energy:        13.5929484
  entropy:            14.8458620
  heat_capacity:      32.8797718
  energy:             13.8898657

- temperature:        30.0000000
  free_energy:        13.3567899
  entropy:            32.7036428
  heat_capacity:      55.3156607
  energy:             14.3378991

- temperature:        40.0000000
  free_energy:        12.9385366
  entropy:            50.7872203
  heat_capacity:      70.0623714
  energy:             14.9700254

- temperature:        50.0000000
  free_energy:        12.3455272
  entropy:            67.5662221
  heat_capacity:      80.1720411
  energy:             15.7238383

- temperature:        60.0000000
  free_energy:        11.5920558
  entropy:            82.9006049
  heat_capacity:      88.0244548
  energy:             16.5660921

- temperature:        70.0000000
  free_energy:        10.6916857
  entropy:            96.9835804
  heat_capacity:      94.7173261
  energy:             17.4805364

- temperature:        80.0000000
  free_energy:         9.6558470
  entropy:           110.0259696
  heat_capacity:     100.6478765
  energy:             18.4579245

- temperature:        90.0000000
  free_energy:         8.4940821
  entropy:           122.1921600
  heat_capacity:     105.9411032
  energy:             19.4913765

- temperature:       100.0000000
  free_energy:         7.2145195
  entropy:           133.6026319
  heat_capacity:     110.6450253
  energy:             20.5747827

- temperature:       110.0000000
  free_energy:         5.8242469
  entropy:           144.3472215
  heat_capacity:     114.7985081
  energy:             21.7024412

- temperature:       120.0000000
  free_energy:         4.3295600
  entropy:           154.4959095
  heat_capacity:     118.4470827
  energy:             22.8690691

- temperature:       130.0000000
  free_energy:         2.7361239
  entropy:           164.1057444
  heat_capacity:     121.6420376
  energy:             24.0698707

- temperature:       140.0000000
  free_energy:         1.0490798
  entropy:           173.2249587
  heat_capacity:     124.4361575
  energy:             25.3005740

- temperature:       150.0000000
  free_energy:        -0.7268798
  entropy:           181.8953811
  heat_capacity:     126.8801815
  energy:             26.5574273

- temperature:       160.0000000
  free_energy:        -2.5874552
  entropy:           190.1538859
  heat_capacity:     129.0206991
  energy:             27.8371665

- temperature:       170.0000000
  free_energy:        -4.5286943
  entropy:           198.0333113
  heat_capacity:     130.8992263
  energy:             29.1369686

- temperature:       180.0000000
  free_energy:        -6.5469563
  entropy:           205.5630861
  heat_capacity:     132.5520450
  energy:             30.4543993

- temperature:       190.0000000
  free_energy:        -8.6388791
  entropy:           212.7696902
  heat_capacity:     134.0104727
  energy:             31.7873620

- temperature:       200.0000000
  free_energy:       -10.8013527
  entropy:           219.6770166
  heat_capacity:     135.3013367
  energy:             33.1340506

- temperature:       210.0000000
  free_energy:       -13.0314941
  entropy:           226.3066712
  heat_capacity:     136.4475186
  energy:             34.4929069

- temperature:       220.0000000
  free_energy:       -15.3266260
  entropy:           232.6782271
  heat_capacity:     137.4684953
  energy:             35.8625839

- temperature:       230.0000000
  free_energy:       -17.6842577
  entropy:           238.8094461
  heat_capacity:     138.3808377
  energy:             37.2419149

- temperature:       240.0000000
  free_energy:       -20.1020678
  entropy:           244.7164735
  heat_capacity:     139.1986544
  energy:             38.6298858

- temperature:       250.0000000
  free_energy:       -22.5778890
  entropy:           250.4140089
  heat_capacity:     139.9339750
  energy:             40.0256132

- temperature:       260.0000000
  free_energy:       -25.1096945
  entropy:           255.9154587
  heat_capacity:     140.5970774
  energy:             41.4283248

- temperature:       270.0000000
  free_energy:       -27.6955855
  entropy:           261.2330704
  heat_capacity:     141.1967637
  energy:             42.8373435

- temperature:       280.0000000
  free_energy:       -30.3337806
  entropy:           266.3780519
  heat_capacity:     141.7405922
  energy:             44.2520740

- temperature:       290.0000000
  free_energy:       -33.0226054
  entropy:           271.3606772
  heat_capacity:     142.2350716
  energy:             45.6719910

- temperature:       300.0000000
  free_energy:       -35.7604844
  entropy:           276.1903806
  heat_capacity:     142.6858227
  energy:             47.0966297

- temperature:       310.0000000
  free_energy:       -38.5459323
  entropy:           280.8758395
  heat_capacity:     143.0977140
  energy:             48.5255779

- temperature:       320.0000000
  free_energy:       -41.3775471
  entropy:           285.4250493
  heat_capacity:     143.4749750
  energy:             49.9584686

- temperature:       330.0000000
  free_energy:       -44.2540038
  entropy:           289.8453883
  heat_capacity:     143.8212907
  energy:             51.3949743

- temperature:       340.0000000
  free_energy:       -47.1740481
  entropy:           294.1436771
  heat_capacity:     144.1398809
  energy:             52.8348021

- temperature:       350.0000000
  free_energy:       -50.1364916
  entropy:           298.3262303
  heat_capacity:     144.4335673
  energy:             54.2776890

- temperature:       360.0000000
  free_energy:       -53.1402065
  entropy:           302.3989034
  heat_capacity:     144.7048292
  energy:             55.7233987

- temperature:       370.0000000
  free_energy:       -56.1841216
  entropy:           306.3671343
  heat_capacity:     144.9558513
  energy:             57.1717181

- temperature:       380.0000000
  free_energy:       -59.2672180
  entropy:           310.2359807
  heat_capacity:     145.1885636
  energy:             58.6224547

- temperature:       390.0000000
  free_energy:       -62.3885256
  entropy:           314.0101532
  heat_capacity:     145.4046756
  energy:             60.0754341

- temperature:       400.0000000
  free_energy:       -65.5471201
  entropy:           317.6940452
  heat_capacity:     145.6057052
  energy:             61.5304980

- temperature:       410.0000000
  free_energy:       -68.7421193
  entropy:           321.2917604
  heat_capacity:     145.7930034
  energy:             62.9875024

- temperature:       420.0000000
  free_energy:       -71.9726809
  entropy:           324.8071362
  heat_capacity:     145.9677757
  energy:             64.4463163

- temperature:       430.0000000
  free_energy:       -75.2379996
  entropy:           328.2437660
  heat_capacity:     146.1310998
  energy:             65.9068198

- temperature:       440.0000000
  free_energy:       -78.5373050
  entropy:           331.6050190
  heat_capacity:     146.2839418
  energy:             67.3689034

- temperature:       450.0000000
  free_energy:       -81.8698593
  entropy:           334.8940575
  heat_capacity:     146.4271690
  energy:             68.8324666

- temperature:       460.0000000
  free_energy:       -85.2349553
  entropy:           338.1138536
  heat_capacity:     146.5615621
  energy:             70.2974173

- temperature:       470.0000000
  free_energy:       -88.6319149
  entropy:           341.2672034
  heat_capacity:     146.6878251
  energy:             71.7636708

- temperature:       480.0000000
  free_energy:       -92.0600867
  entropy:           344.3567407
  heat_capacity:     146.8065939
  energy:             73.2311488

- temperature:       490.0000000
  free_energy:       -95.5188453
  entropy:           347.3849487
  heat_capacity:     146.9184441
  energy:             74.6997796

- temperature:       500.0000000
  free_energy:       -99.0075891
  entropy:           350.3541710
  heat_capacity:     147.0238978
  energy:             76.1694964

- temperature:       510.0000000
  free_energy:      -102.5257395
  entropy:           353.2666221
  heat_capacity:     147.1234290
  energy:             77.6402378

- temperature:       520.0000000
  free_energy:      -106.0727393
  entropy:           356.1243961
  heat_capacity:     147.2174691
  energy:             79.1119467

- temperature:       530.0000000
  free_energy:      -109.6480517
  entropy:           358.9294753
  heat_capacity:     147.3064114
  energy:             80.5845702

- temperature:       540.0000000
  free_energy:      -113.2511594
  entropy:           361.6837380
  heat_capacity:     147.3906147
  energy:             82.0580591

- temperature:       550.0000000
  free_energy:      -116.8815631
  entropy:           364.3889652
  heat_capacity:     147.4704072
  energy:             83.5323678

- temperature:       560.0000000
  free_energy:      -120.5387809
  entropy:           367.0468473
  heat_capacity:     147.5460894
  energy:             85.0074536

- temperature:       570.0000000
  free_energy:      -124.2223476
  entropy:           369.6589901
  heat_capacity:     147.6179367
  energy:             86.4832768

- temperature:       580.0000000
  free_energy:      -127.9318133
  entropy:           372.2269202
  heat_capacity:     147.6862020
  energy:             87.9598004

- temperature:       590.0000000
  free_energy:      -131.6667434
  entropy:           374.7520900
  heat_capacity:     147.7511180
  energy:             89.4369897

- temperature:       600.0000000
  free_energy:      -135.4267172
  entropy:           377.2358825
  heat_capacity:     147.8128988
  energy:             90.9148123

- temperature:       610.0000000
  free_energy:      -139.2113276
  entropy:           379.6796154
  heat_capacity:     147.8717419
  energy:             92.3932379

- temperature:       620.0000000
  free_energy:      -143.0201802
  entropy:           382.0845454
  heat_capacity:     147.9278293
  energy:             93.8722379

- temperature:       630.0000000
  free_energy:      -146.8528931
  entropy:           384.4518713
  heat_capacity:     147.9813295
  energy:             95.3517858

- temperature:       640.0000000
  free_energy:      -150.7090961
  entropy:           386.7827383
  heat_capacity:     148.0323984
  energy:             96.8318564

- temperature:       650.0000000
  free_energy:      -154.5884300
  entropy:           389.0782403
  heat_capacity:     148.0811801
  energy:             98.3124262

- temperature:       660.0000000
  free_energy:      -158.4905465
  entropy:           391.3394233
  heat_capacity:     148.1278086
  energy:             99.7934728

- temperature:       670.0000000
  free_energy:      -162.4151074
  entropy:           393.5672880
  heat_capacity:     148.1724080
  energy:            101.2749756

- temperature:       680.0000000
  free_energy:      -166.3617844
  entropy:           395.7627927
  heat_capacity:     148.2150938
  energy:            102.7569146

- temperature:       690.0000000
  free_energy:      -170.3302585
  entropy:           397.9268549
  heat_capacity:     148.2559734
  energy:            104.2392714

- temperature:       700.0000000
  free_energy:      -174.3202196
  entropy:           400.0603543
  heat_capacity:     148.2951468
  energy:            105.7220284

- temperature:       710.0000000
  free_energy:      -178.3313665
  entropy:           402.1641345
  heat_capacity:     148.3327072
  energy:            107.2051690

- temperature:       720.0000000
  free_energy:      -182.3634060
  entropy:           404.2390048
  heat_capacity:     148.3687415
  energy:            108.6886775

- temperature:       730.0000000
  free_energy:      -186.4160528
  entropy:           406.2857422
  heat_capacity:     148.4033310
  energy:            110.1725390

- temperature:       740.0000000
  free_energy:      -190.4890295
  entropy:           408.3050933
  heat_capacity:     148.4365515
  energy:            111.6567395

- temperature:       750.0000000
  free_energy:      -194.5820658
  entropy:           410.2977753
  heat_capacity:     148.4684740
  energy:            113.1412657

- temperature:       760.0000000
  free_energy:      -198.6948984
  entropy:           412.2644781
  heat_capacity:     148.4991651
  energy:            114.6261049

- temperature:       770.0000000
  free_energy:      -202.8272710
  entropy:           414.2058650
  heat_capacity:     148.5286869
  energy:            116.1112451

- temperature:       780.0000000
  free_energy:      -206.9789335
  entropy:           416.1225749
  heat_capacity:     148.5570980
  energy:            117.5966749

- temperature:       790.0000000
  free_energy:      -211.1496423
  entropy:           418.0152225
  heat_capacity:     148.5844531
  energy:            119.0823836

- temperature:       800.0000000
  free_energy:      -215.3391597
  entropy:           419.8844004
  heat_capacity:     148.6108037
  energy:            120.5683607

- temperature:       810.0000000
  free_energy:      -219.5472539
  entropy:           421.7306795
  heat_capacity:     148.6361983
  energy:            122.0545964

- temperature:       820.0000000
  free_energy:      -223.7736988
  entropy:           423.5546102
  heat_capacity:     148.6606823
  energy:            123.5410816

- temperature:       830.0000000
  free_energy:      -228.0182734
  entropy:           425.3567236
  heat_capacity:     148.6842987
  energy:            125.0278072

- temperature:       840.0000000
  free_energy:      -232.2807623
  entropy:           427.1375322
  heat_capacity:     148.7070879
  energy:            126.5147648

- temperature:       850.0000000
  free_energy:      -236.5609547
  entropy:           428.8975306
  heat_capacity:     148.7290878
  energy:            128.0019463

- temperature:       860.0000000
  free_energy:      -240.8586451
  entropy:           430.6371967
  heat_capacity:     148.7503344
  energy:            129.4893440

- temperature:       870.0000000
  free_energy:      -245.1736324
  entropy:           432.3569920
  heat_capacity:     148.7708616
  energy:            130.9769506

- temperature:       880.0000000
  free_energy:      -249.5057202
  entropy:           434.0573627
  heat_capacity:     148.7907015
  energy:            132.4647590

- temperature:       890.0000000
  free_energy:      -253.8547163
  entropy:           435.7387402
  heat_capacity:     148.8098842
  energy:            133.9527624

- temperature:       900.0000000
  free_energy:      -258.2204331
  entropy:           437.4015418
  heat_capacity:     148.8284384
  energy:            135.4409546

- temperature:       910.0000000
  free_energy:      -262.6026866
  entropy:           439.0461712
  heat_capacity:     148.8463912
  energy:            136.9293292

- temperature:       920.0000000
  free_energy:      -267.0012972
  entropy:           440.6730192
  heat_capacity:     148.8637683
  energy:            138.4178805

- temperature:       930.0000000
  free_energy:      -271.4160890
  entropy:           442.2824642
  heat_capacity:     148.8805938
  energy:            139.9066027

- temperature:       940.0000000
  free_energy:      -275.8468897
  entropy:           443.8748727
  heat_capacity:     148.8968909
  energy:            141.3954906

- temperature:       950.0000000
  free_energy:      -280.2935308
  entropy:           445.4505997
  heat_capacity:     148.9126814
  energy:            142.8845389

- temperature:       960.0000000
  free_energy:      -284.7558473
  entropy:           447.0099894
  heat_capacity:     148.9279860
  energy:            144.3737426

- temperature:       970.0000000
  free_energy:      -289.2336773
  entropy:           448.5533756
  heat_capacity:     148.9428244
  energy:            145.8630970

- temperature:       980.0000000
  free_energy:      -293.7268625
  entropy:           450.0810817
  heat_capacity:     148.9572153
  energy:            147.3525976

- temperature:       990.0000000
  free_energy:      -298.2352477
  entropy:           451.5934218
  heat_capacity:     148.9711765
  energy:            148.8422399

- temperature:      1000.0000000
  free_energy:      -302.7586807
  entropy:           453.0907005
  heat_capacity:     148.9847248
  energy:            150.3320198
