4
Lattice="4.03408145904541 0.0 2.3210012912750244 1.3461342312825757 3.801816373321448 2.3210787773132324 0.0 0.0 4.653736591339111" Properties=species:S:1:pos:R:3:forces:R:3 structure_index=0 total_energy=-11.746562957763672 stress="0.0708431527018547 -0.008929912932217121 -0.04488193616271019 -0.008929840289056301 0.059998899698257446 -0.03169308975338936 -0.04488173499703407 -0.031693171709775925 0.04037244990468025" pbc="T T T"
Li       4.57334984       3.66602527       7.46243195      -0.00000968       0.00045743       0.00294888
Li       1.88415399       1.76523515       2.81708590      -0.00323167      -0.00000342      -0.00646114
Ga       0.53771071       0.81413234       5.14397835       0.00151736       0.00137072       0.00293157
Sn       3.22803382       2.71617214       5.13933316       0.00172399      -0.00182473       0.00058069
8
Lattice="5.537374945761438 0.011936327559828177 3.2555134032726802 1.97726102086393 5.193800953490702 2.9527069806510347 0.02383351928181385 0.05354564473241743 6.292491188995651" Properties=species:S:1:pos:R:3:forces:R:3 structure_index=1 total_energy=-26.14812660217285 stress="-0.001269158674404025 0.013059135526418686 -0.010803146287798882 0.013059224002063274 0.025137796998023987 -0.027325356379151344 -0.010803071781992912 -0.027325376868247986 -0.0006548748351633549" pbc="T T T"
Li       6.52605129       2.87771099       5.78705294       0.00122594      -0.00039018       0.00048824
Li       2.78342888       0.30111712       5.83255517      -0.00081994       0.00021962      -0.00030694
Ga       5.55149760       0.30312821       7.45724774      -0.00223721       0.00453832       0.00226819
Ga       3.75436603       2.87400871       4.16325972       0.00316442      -0.00429845      -0.00545759
Sn       2.77711331       0.27391591       2.68652599      -0.00544470       0.00612132      -0.00159764
Sn       3.76517295       2.90021192       7.30444407       0.00267170      -0.00434164       0.00308882
Sn       6.53098686       2.90034608       8.92990776       0.00530280       0.00210424       0.00546827
Sn       5.54217062       0.28256639       4.31698139      -0.00386301      -0.00395323      -0.00395135
4
Lattice="4.29010648176121 5.6922852378330565e-05 -0.0006889070829933934 -9.648188893222125e-05 4.341339532669375 -0.0007752874817291246 0.00021642148226219422 0.00045596714313943075 4.290486828699668" Properties=species:S:1:pos:R:3:forces:R:3 structure_index=2 total_energy=-12.1585111618042 stress="0.08885310590267181 -0.00019709709158632904 -0.001368101453408599 -0.00019703102589119226 -0.03674053028225899 -0.001551473280414939 -0.0013680927222594619 -0.0015514569822698832 0.09170252084732056" pbc="T T T"
Li       3.89670776       1.42435873       0.49635191      -0.00184805       0.00009893      -0.00164698
Ga       1.75016451       3.59488624       0.49565021       0.00131981      -0.00189562      -0.00075537
Ga       3.89590571       3.59477224       2.64037942      -0.00051624      -0.00097561       0.00069455
Sn       1.75093739       1.42326566       2.64096809       0.00104449       0.00277230       0.00170780
12
Lattice="3.9672218632188816 0.009222012727061342 0.9656206604796292 1.7126715111537323 6.179017817693353 1.536477697129418 -0.03763111459319303 0.21989624870782487 8.783318860699552" Properties=species:S:1:pos:R:3:forces:R:3 structure_index=3 total_energy=-34.153167724609375 stress="-0.007978584617376328 0.002167276805266738 0.00447247177362442 0.0021672407165169716 0.02193060889840126 -0.01428657490760088 0.004472459200769663 -0.01428633276373148 -0.026453956961631775" pbc="T T T"
Li       2.11563876       5.03064170       9.60565080      -0.00295908      -0.01161552       0.01061814
Li       0.76745872       1.24916725       6.55110088       0.00014155      -0.01024937      -0.00027244
Li       3.05359661       5.95195939       5.74117479       0.00091481       0.00370360      -0.00300786
Li       3.86195763       0.36787124       2.47145412      -0.00283887       0.02209286       0.02024960
Li       2.67192527       3.45589734       7.33632794      -0.00135773      -0.00168790       0.00573635
Li       1.19329397       3.86237988       4.77254564       0.00466441      -0.01093237      -0.02038603
Ga       4.20927910       2.97714818       9.65622135      -0.00162601       0.01230829       0.01272187
Ga       1.77183069       2.29734527       2.40870767      -0.00868534       0.02916969       0.03460261
Ga       4.55184924       5.37241829       8.22877858      -0.00151919       0.00045213       0.00025895
Ga       2.30870011       1.06638993       8.85721942       0.00277096       0.00201692      -0.02863366
Sn       3.23551186       1.72570417       5.03381498       0.01250619      -0.00927189      -0.04548376
Sn       3.65590606       4.52521521       3.27931544      -0.00201168      -0.02598640       0.01359625
9
Lattice="3.210215731661712 0.006251698506391168 -0.002644568960952112 -0.02134862296852864 6.799720709218254 -3.928682776820543 0.00841422478472904 0.0016003951407666593 7.853865631655123" Properties=species:S:1:pos:R:3:forces:R:3 structure_index=4 total_energy=-26.404447555541992 stress="-0.005327546503394842 0.0013895578449591994 0.0009067716309800744 0.0013894386356696486 0.0003051194944418967 -3.88204789487645e-05 0.0009068105719052255 -3.8586811569985e-05 0.0008353922166861594" pbc="T T T"
Li       0.91473354       4.73031891       2.04238969       0.00000118      -0.00230912      -0.00054510
Li       0.92490241       0.18114614       4.65208416       0.00065689      -0.04057876      -0.02278640
Li       0.91880380       2.46159168       0.75220449       0.00004754       0.00037193       0.04575084
Li       0.92657141       0.19444924       2.04374635      -0.00005301       0.00091149      -0.00066423
Li       0.91777151       4.74379998       4.65164631      -0.00024629       0.03952170      -0.02341028
Ga       0.92222029       2.46181043       5.97054586      -0.00109278       0.00087474      -0.00000875
Sn       2.51370988       4.73752417      -0.57364929       0.00192440      -0.02068091      -0.01037237
Sn       2.53802668       0.19168431       7.28269444      -0.00096996       0.02341944      -0.01351784
Sn       2.52640398       2.46592580       3.34235165      -0.00026797      -0.00153051       0.02555411
12
Lattice="4.628238316310187 0.0016883467733174711 0.0038942729089723863 -0.0025272995031595303 6.439246564552666 -0.02725702890328092 0.004436296689633901 0.0019718062431531885 8.601072926153675" Properties=species:S:1:pos:R:3:forces:R:3 structure_index=5 total_energy=-36.81560134887695 stress="0.012393707409501076 -4.734719823318301e-06 -0.0002286567905684933 -4.695318239100743e-06 0.025932570919394493 -0.0008251745603047311 -0.00022849308152217418 -0.0008252816624008119 0.010502536781132221" pbc="T T T"
Li       4.29839152       2.26783722       1.27089762       0.00058493      -0.00224623       0.00876325
Li       1.99140518       2.28046215       6.50675161      -0.00064795       0.00234764      -0.00868651
Li       4.30141466       5.46928339       2.21133357      -0.00030028       0.01973800      -0.02051567
Li       1.98530774       5.51924435       5.53867253       0.00037444      -0.01973669       0.02083723
Ga       4.30102367       0.87039925       4.67255634      -0.00056189      -0.04180839       0.00740730
Ga       4.30471501       4.10066177       7.40900606       0.00032790      -0.04284672      -0.00805460
Ga       1.98502594       0.44705265       0.36860986      -0.00027251       0.04419549       0.00839714
Ga       1.98830384       3.67956615       3.10536786       0.00053725       0.04016342      -0.00829084
Sn       4.30162649       3.66707106       4.65556287      -0.00048461       0.03351554      -0.00900484
Sn       1.98770429       0.88219370       3.12191634       0.00047737      -0.03231955       0.00953405
Sn       1.98519774       4.08821815       0.34951655      -0.00024451      -0.02657742      -0.00377707
Sn       4.30454571       0.46006191       7.42822006       0.00020987       0.02557489       0.00339056
6
Lattice="4.264030870058613 0.000755418911596472 -0.000682358176662856 -0.0008199665430442767 3.9009369410676302 -1.4416679837072868 0.000493528171999893 0.07359905784538831 6.19320610070361" Properties=species:S:1:pos:R:3:forces:R:3 structure_index=6 total_energy=-16.20044708251953 stress="-0.03842339664697647 -0.0007033381261862814 -0.0032862601801753044 -0.0007032949361018836 0.06266119331121445 0.007148257456719875 -0.0032863463275134563 0.007148041855543852 0.05535561591386795" pbc="T T T"
Li       0.64643233       3.77425951       0.33148653      -0.00167841      -0.01132605      -0.02620365
Li       0.64603982       1.22793286       5.43812000       0.00096832      -0.00132293      -0.00547754
Li       0.64619468       2.53712835       2.98316549      -0.00043097      -0.00152434      -0.00509927
Li       2.77787750       1.80669175       1.00564111       0.00064905       0.00934720       0.02650742
Ga       2.77808045       3.20737866       4.79396647       0.00029442      -0.00845631      -0.02403619
Sn       2.77850996       0.55841585       3.62614886       0.00019762       0.01328242       0.03430926
10
Lattice="3.9676480614070333 0.002656715918121414 -0.003734951362647395 -0.005231202107104771 7.4187598708113205 -0.27591057233398103 0.007443429804853291 -0.13881130270628844 7.428659837056564" Properties=species:S:1:pos:R:3:forces:R:3 structure_index=7 total_energy=-30.375019073486328 stress="-0.011177790351212025 6.381062121363357e-05 -3.617050970206037e-05 6.374165241140872e-05 -0.009484494104981422 0.003353527979925275 -3.6148314393358305e-05 0.0033535605762153864 -0.00911435205489397" pbc="T T T"
Li       0.63810055      -0.13242681       4.23470057       0.00004812      -0.04346459       0.00489740
Li       0.63294713       3.74116160       0.28402552      -0.00014106       0.00555437      -0.04439507
Ga       0.63658026       6.40428815       6.78105181       0.00016512      -0.00283270      -0.00307320
Ga       0.63425029       4.51775999       2.98398904       0.00023831      -0.01575692      -0.02239710
Ga       0.63638900       1.13472178       1.60111966      -0.00064607       0.03024730       0.02755453
Ga       0.63803652       2.58085793       4.96476188      -0.00016933      -0.02082745      -0.01343037
Ga       2.62061130       2.43680071       2.88794154      -0.00045780       0.00572635       0.01134957
Sn       2.61982068       4.84801592       5.24092057       0.00048486      -0.01155531      -0.01367173
Sn       2.61548298       6.21632897       1.60792509       0.00033164       0.03799265       0.01582359
Sn       2.62435879       1.23672894       6.68308175       0.00014620       0.01491628       0.03734237
6
Lattice="4.534784453165154 0.0019965166394756866 -0.0010522029610210016 -2.265175159399952 3.929486254926826 0.000823292996395133 0.002710196577019875 -0.0017072011278543575 7.306835281344212" Properties=species:S:1:pos:R:3:forces:R:3 structure_index=8 total_energy=-18.394916534423828 stress="-0.020961200818419456 -0.00010286212636856362 0.0015791206387802958 -0.00010267099423799664 -0.02107655629515648 -0.0017511784099042416 0.0015791209880262613 -0.0017510936595499516 -0.00019252224592491984" pbc="T T T"
Li       0.83897630       2.28170768       6.93862419       0.00025479      -0.00029863      -0.00005882
Li       0.83255421       2.28669879       3.28022301      -0.00059356       0.00040822      -0.00140680
Ga      -1.43139255       3.59359188       0.94772072       0.00051670      -0.00080491       0.01277131
Ga      -1.42979824       3.59225503       5.62622096      -0.00004726       0.00043929      -0.01487045
Sn       3.10108362       0.97596158       1.77558624      -0.00057698       0.00062301      -0.01388163
Sn       3.10196780       0.97516499       4.79382391       0.00044633      -0.00036697       0.01744637
5
Lattice="3.9189386463574905 -0.0060476073261589835 1.7778227714652866 1.7109027135068233 4.710647980540497 1.429798348069884 -0.13577118864351223 -0.5912367539876363 5.519177555502692" Properties=species:S:1:pos:R:3:forces:R:3 structure_index=9 total_energy=-15.55982780456543 stress="-0.0015875218668952584 -0.008450786583125591 0.02271825447678566 -0.008450830355286598 -0.05286606773734093 -0.052737485617399216 0.022718092426657677 -0.052737556397914886 -0.005458807107061148" pbc="T T T"
Li       3.71818492       4.28063024       3.09103261       0.01716203      -0.00988901      -0.04017704
Li       3.12036576       0.28938147       4.41703845       0.00640138       0.00704901      -0.01290169
Ga       2.54127526       3.01255156       5.69324798       0.00045716       0.00174261       0.00324484
Sn       1.45075751       2.34020637       2.88302119      -0.01025600       0.00589245       0.02779529
Sn       4.19879112       0.94878152       7.25676295      -0.01376457      -0.00479506       0.02203860
12
Lattice="4.4441816671741945 -0.0021614901960619955 0.001611089001902142 0.0029079931647416953 5.717019286587681 -0.2316993291621296 -0.0031260945318102094 -0.3933916244511836 8.424256877723241" Properties=species:S:1:pos:R:3:forces:R:3 structure_index=10 total_energy=-33.68056869506836 stress="0.026590796187520027 1.7679618395050056e-05 1.7870122974272817e-05 1.7661197489360347e-05 0.017241766676306725 0.007749800104647875 1.7830225260695443e-05 0.00774988392367959 0.02371513657271862" pbc="T T T"
Li       1.26547534       0.22479990       0.29655294      -0.00016755       0.01980485      -0.00889857
Li       3.48833358       4.67167663       4.28614406      -0.00012334      -0.00695514      -0.00330938
Li       3.48772895       1.47386903       1.51664874      -0.00013347      -0.00048864      -0.01322056
Li       1.26563724       2.93467623       2.86177741       0.00023932      -0.01087031       0.00072408
Li       3.48894553       4.35684595       1.46035587       0.00021615       0.00467138      -0.03974669
Li       1.26368775       0.52066216       5.93354789      -0.00007709       0.00305041       0.02033221
Li       1.26516151       3.34398218       5.65682740      -0.00009960       0.00074628       0.02405830
Li       3.48597098       1.78293615       7.06711529      -0.00014018       0.00589887       0.02628937
Ga       3.48681165       1.81034081       4.32929964       0.00001794      -0.01150235       0.01916032
Sn       1.26430577       0.10847723       3.14030821       0.00006976      -0.02968739      -0.01331844
Sn       1.26682414       3.04913077       0.06329546       0.00020093       0.00761190       0.01106837
Sn       3.48739485       4.66702719       7.03467115      -0.00000288       0.01772016      -0.02313899
6
Lattice="2.8759551862313404 0.0005175104291407982 -0.0004962327349218989 -0.0013028431225412542 5.335746684590951 -1.1954724249218347 0.001207145753285566 0.11840450849341706 7.326807118421538" Properties=species:S:1:pos:R:3:forces:R:3 structure_index=11 total_energy=-18.320316314697266 stress="-0.04824041947722435 -0.0005114167579449713 -0.0001408387179253623 -0.0005114905652590096 -0.043595898896455765 0.0380287803709507 -0.00014089455362409353 0.03802880272269249 -0.03348958119750023" pbc="T T T"
Li       0.91457143       0.44774137       2.87948144       0.00026736       0.02626792       0.01192922
Li       0.91437321       1.42660352       0.25017048      -0.00005772      -0.03056452      -0.00710009
Li       0.91453211       4.83593440       4.49445293      -0.00012480       0.00112643      -0.01432606
Ga       2.35155202       4.27193072      -0.37210766       0.00002299       0.00887906      -0.01274573
Sn       2.35220739       3.17068738       2.28475939      -0.00001359      -0.01635949      -0.02356765
Sn       2.35300403       2.11678329       5.04201014      -0.00009424       0.01065058       0.04581032
9
Lattice="5.638510946219169 0.007259442918970261 -0.00017475232724973623 -2.8287172355088983 4.875768922682643 -0.009211262337039559 0.006197378579479061 0.010545558196968107 6.812761491769669" Properties=species:S:1:pos:R:3:forces:R:3 structure_index=12 total_energy=-26.937788009643555 stress="0.025768756866455078 0.00042131615919061005 0.0005139486747793853 0.00042137069976888597 0.025794873014092445 0.0006432424997910857 0.0005139145068824291 0.0006432321388274431 0.010646912269294262" pbc="T T T"
Li       0.54982260       1.11223500       3.71939675       0.00088676      -0.00058682      -0.00026153
Ga      -2.27512257       4.32523205       5.94659575      -0.00047042       0.00464373      -0.00771397
Ga       0.54422351       2.77519233       1.48403601       0.00046448      -0.00242407       0.00707734
Ga       4.74098722       0.28143608       1.49030619       0.00316203       0.00248216       0.00766192
Ga       1.99528004       0.27605660       1.48657664      -0.00394819       0.00239985       0.00803773
Ga      -0.89564401       1.94993396       5.94990474       0.00393533      -0.00216455      -0.00665152
Ga       1.99601119       1.95220397       5.94859294      -0.00410606      -0.00283876      -0.00835385
Sn       0.54509716       4.36698699       4.38717756      -0.00160467       0.00042633       0.04946301
Sn       3.36282870       2.74433263       3.04144254       0.00168072      -0.00193788      -0.04925916
6
Lattice="3.095658849218073 0.0013612936431949374 -0.0022453142647503315 -0.0005335280591886896 4.114972315304734 -0.003194508441419709 0.029416111175417516 0.017480364867711116 8.8762073264767" Properties=species:S:1:pos:R:3:forces:R:3 structure_index=13 total_energy=-17.37704849243164 stress="0.0415106937289238 0.004497632849961519 0.02921784296631813 0.0044976575300097466 -0.01820933073759079 0.019344519823789597 0.029218094423413277 0.019344530999660492 0.014749597758054733" pbc="T T T"
Li       2.49161352       3.17077515       2.76507191       0.00021371      -0.00081616      -0.04917872
Li       2.50017657       3.17407913       5.54715829       0.00153180       0.00193319       0.04602693
Ga       2.50861363       3.18110625       8.82572949       0.00071698      -0.00069683      -0.02061371
Ga       0.93845659       1.10920353       1.35884790      -0.00012562      -0.00032916      -0.01411754
Ga       0.94856540       1.11433048       4.11134729      -0.00014503      -0.00046503       0.00368112
Sn       0.95834859       1.11924261       7.15009316      -0.00219181       0.00037400       0.03420193
18
Lattice="6.92690738688622 0.0466133843109936 -0.42187784652547866 -0.5228536331738347 6.326788745483255 -2.8315556342329047 -0.08363251364586734 0.04196911252373377 6.941428923929517" Properties=species:S:1:pos:R:3:forces:R:3 structure_index=14 total_energy=-49.778560638427734 stress="-0.01255172397941351 -0.0017308263340964913 0.003974103834480047 -0.001730732386931777 -0.0149789247661829 -0.0018676748732104897 0.003974334802478552 -0.0018677168991416693 -0.01318327710032463" pbc="T T T"
Li       1.63022507       3.70273927       2.54716650      -0.02218052      -0.02109174      -0.01353361
Li       1.07679312       1.70967704       4.39449905       0.01370215       0.00844587       0.04093032
Li       1.97117235       4.77521825      -1.76424233      -0.00562685      -0.01543999       0.02503742
Li       6.27160402       3.78533506       4.57975303      -0.00887858      -0.00567954      -0.03445420
Li      -0.32741882       4.72154250       0.67754369       0.00106300      -0.02393862      -0.00224414
Li       3.98338790       3.73491298       0.13859501      -0.03720899      -0.00206705      -0.01318652
Li       0.83273640       0.68831597       1.78388968       0.00132388       0.02207096      -0.00437787
Li       3.07491565       0.68357172       6.30280500      -0.01693518       0.00711715       0.00965852
Li       3.44850247       1.71905690       1.89587484       0.03661573       0.00123673       0.01476508
Li       5.79871255       1.75035506      -0.51317372       0.02921118       0.02437216       0.01627034
Li       4.27959724       4.81330978       2.67472045       0.00832515      -0.00499451      -0.01244307
Li       5.46321861       0.68362198       3.79906803       0.00365978       0.00977370      -0.02068941
Ga       1.41094071       2.70193549       0.00885278      -0.01566373       0.00837206       0.02434934
Ga       6.01838974       2.75210525       2.02517744       0.01974808      -0.00587212      -0.02456106
Sn       3.67354233       2.74873719       4.48791364       0.00112969       0.00111885      -0.00152480
Sn       2.27777620       5.85628596       0.82020465      -0.01564305      -0.00519442       0.00304976
Sn       4.63555453       5.92485907      -1.61380265       0.00940362       0.00533305      -0.00586103
Sn      -0.04870139       5.89027114       3.28503526      -0.00204532      -0.00356250      -0.00118510
9
Lattice="5.068957890423543 0.0076439059927010744 0.8843693929416226 2.527894431757529 4.361055786068822 0.4509847728125969 -0.8583485640238975 -0.013699584019040617 7.399307822449279" Properties=species:S:1:pos:R:3:forces:R:3 structure_index=15 total_energy=-25.857498168945312 stress="-0.03124483861029148 -0.0003926290955860168 0.015810072422027588 -0.00039274923619814217 0.027581093832850456 0.0007513876189477742 0.015810232609510422 0.0007515369798056781 0.009800632484257221" pbc="T T T"
Li       2.05785821       3.20425832       6.70319158      -0.00756110       0.03708142       0.00332555
Li       0.69574167       0.31233955       3.97172374      -0.00095372      -0.04066025      -0.00105537
Li       4.35250206       0.38827979       2.15218069       0.02234126      -0.01143642      -0.01254622
Li       4.38679076       3.21693905       2.13304521       0.01004112       0.03695643      -0.00183528
Li       2.10174557       0.37535132       6.67342714      -0.02178152      -0.00983093       0.01340609
Ga       5.76073347       3.36722042       4.86216446      -0.00168829       0.03084511      -0.00085081
Ga       3.22661295       1.80820777       4.41584862      -0.00080860      -0.04460473      -0.00165670
Sn       4.59517612       1.80985252       7.02892255      -0.00083245       0.00138491       0.03017825
Sn       1.85460138       1.81452941       1.80166247       0.00124332       0.00026448      -0.02896549
12
Lattice="4.227132333490911 0.0014649158905456333 0.0008575252536464667 -0.002059075740445122 5.942349880839778 0.25601260713119844 -0.0019552951117842512 0.2455439962196986 8.892750767310364" Properties=species:S:1:pos:R:3:forces:R:3 structure_index=16 total_energy=-35.11890411376953 stress="-0.013960062526166439 3.251569069107063e-05 4.829036697628908e-05 3.2577907404629514e-05 -0.027086244896054268 -0.0012614161241799593 4.831877231481485e-05 -0.001261277124285698 0.011208693496882915" pbc="T T T"
Li       0.22671636       0.05559830       1.02742693       0.00024745      -0.01205747      -0.00025413
Li       2.33856658       4.40195124       2.64741054      -0.00004333       0.00271117       0.01070679
Li       0.22513991       2.98114881       4.01267069       0.00024013       0.01346395       0.01063128
Li       0.22570293       0.29603885       6.83043369      -0.00010464      -0.00831608      -0.01090275
Li       2.33837756       1.76712339       8.59768802      -0.00026647      -0.01717293       0.00187709
Li       0.22442235       3.26252397       7.15720372       0.00024230       0.00416911       0.01409785
Ga       2.33788360       4.69105385       5.72582768      -0.00010250       0.01789708       0.00702779
Ga       0.22585062       2.92925045       1.19190429      -0.00009071      -0.01461190      -0.02421080
Ga       2.33945457       1.57023056       2.49324545       0.00018836      -0.01179194      -0.00193420
Sn       2.33722896       4.74035568       8.67442285       0.00000417      -0.00676638      -0.00467031
Sn       0.22416803       5.91540020       4.13059793       0.00007489       0.00197109       0.01075724
Sn       2.33898972       1.82686752       5.57512644      -0.00038964       0.03050430      -0.01312587
6
Lattice="4.527216776696795 -0.0013352582116414227 0.002171576570777246 -2.2297624692838935 3.941118813540511 -0.003915616707257842 -0.003626310964116161 0.006196219005878077 7.319463670538893" Properties=species:S:1:pos:R:3:forces:R:3 structure_index=17 total_energy=-18.394773483276367 stress="0.056577373296022415 -0.0018767042784020305 -0.00159172504208982 -0.0018767834408208728 0.05292542278766632 0.001936748856678605 -0.0015917230630293489 0.001936763641424477 0.04258023947477341" pbc="T T T"
Li       2.05252894       1.62692346       6.28222125       0.00083063       0.00136845       0.00078769
Li       2.09686788       1.59861518       2.63421090       0.00759653      -0.00353898       0.00040701
Ga       4.32365185       0.29954082       0.28918138      -0.00280992       0.00109326       0.02186769
Ga       4.32094761       0.30450875       4.98219712      -0.00163282      -0.00113425      -0.03307357
Sn      -0.17146284       2.92234484       1.11771104      -0.00160521       0.00085056      -0.01647460
Sn      -0.17316817       2.92571515       4.13815802      -0.00237922       0.00136097       0.02648577
4
Lattice="4.0994589100649605 -8.254677803625863e-05 0.0030202425385812723 0.0016019189704299453 4.0997611994849885 -0.0011735868105726696 -0.00015633625051467937 6.0806400175157504e-05 4.09664966007747" Properties=species:S:1:pos:R:3:forces:R:3 structure_index=18 total_energy=-11.290548324584961 stress="-0.05168388783931732 0.004219675902277231 0.007983674295246601 0.0042197913862764835 -0.049156688153743744 -0.0031058271415531635 0.007983776740729809 -0.003105803392827511 -0.07503242790699005" pbc="T T T"
Li       2.75811794       3.69650692       2.17210509      -0.00058899      -0.00309772      -0.00109412
Ga       0.70806186       3.69620077       0.12178665       0.00068109      -0.00250649       0.00070174
Ga       0.70737417       1.64496103       2.17095568       0.00026604       0.00303231      -0.00067364
Ga       2.75726077       1.64510582       0.12371723      -0.00035814       0.00257188       0.00106602
11
Lattice="3.06287269340963 -1.548851162550933e-05 -0.0002663178658396727 -8.980113282869832e-06 8.018490093064477 -0.5168151188864782 0.0008743113883738084 0.1330541640819104 9.586755904398263" Properties=species:S:1:pos:R:3:forces:R:3 structure_index=19 total_energy=-35.20464324951172 stress="-0.024564580991864204 4.696533778769663e-06 5.112801773066167e-06 4.6716218093934e-06 -0.014615669846534729 0.002635852200910449 5.102502200315939e-06 0.0026356405578553677 -0.023282669484615326" pbc="T T T"
Li       1.87968566       3.11305831       2.81028296      -0.00001484      -0.02973903      -0.00828868
Li       1.87955431       7.00335548       1.12016128      -0.00002145       0.03044236       0.00735899
Li       1.88016580       3.71669620       8.22758641      -0.00002198       0.01344090      -0.03111850
Li       1.87999254       6.53299818       5.28939555      -0.00008903      -0.01282761       0.03044871
Ga       0.34829749       5.63127153       3.13082354       0.00003423      -0.01419492       0.00953296
Ga       0.34802337       4.48542068       0.79955110       0.00005400       0.01517184      -0.00980941
Sn       0.34801428       1.49112931       0.53416644      -0.00001850       0.00641649      -0.03918606
Sn       0.34857933       1.11609405       7.01679567       0.00010900      -0.00180296       0.00120651
Sn       0.34851566       3.83992109       5.49039474      -0.00003169      -0.03290805      -0.01897184
Sn       0.34871980       6.40978495       8.02617169       0.00002685       0.03454813       0.01983406
Sn       0.34837195       0.60787197       3.91297123      -0.00002659      -0.00854716       0.03899329
4
Lattice="4.031045418418364 0.00012996711539294898 2.328134321234295 1.3411589032819562 3.8015044292658757 2.3283170709048693 6.000750582603173e-05 3.8101701702387486e-05 4.656587265431699" Properties=species:S:1:pos:R:3:forces:R:3 structure_index=20 total_energy=-11.746604919433594 stress="0.050441887229681015 -0.0015975239221006632 -0.0003650957078207284 -0.0015973406843841076 0.05344613268971443 -0.00016478430188726634 -0.00036487981560640037 -0.0001650208723731339 0.050967514514923096" pbc="T T T"
Li       3.79313753       2.05438771       6.72702072       0.00032871      -0.00010062      -0.00067539
Li       1.10699720       0.15347363       2.07038784       0.00039362       0.00018150      -0.00038871
Ga       2.44998683       1.10401649       4.39766720       0.00029216      -0.00016717       0.00209944
Sn       1.10542761       3.00458014       2.07071182      -0.00101448       0.00008629      -0.00103535
6
Lattice="4.732353739653371 -0.0024527118749228635 -0.00755380542183306 -2.3642975817067393 4.100955712558467 0.0014038033104728895 0.008760571676180775 0.005542064000241696 5.805503307953294" Properties=species:S:1:pos:R:3:forces:R:3 structure_index=21 total_energy=-18.122238159179688 stress="-0.04538937658071518 -0.003641515038907528 -0.0009491285309195518 -0.0036415483336895704 -0.036513522267341614 -0.0009966687066480517 -0.0009490787051618099 -0.0009966640500351787 0.07061127573251724" pbc="T T T"
Li       0.87027883       1.93944944       5.29176272      -0.00066554      -0.00013528      -0.00138290
Li       3.22876484       0.56728297       1.42454573       0.00209305       0.00071600       0.04245415
Li      -1.49827883       3.30578359       3.35193858      -0.00114472      -0.00039808      -0.04396528
Ga       0.86540832       1.93662989       2.38811784      -0.00023197      -0.00015791       0.00072198
Sn      -1.50259882       3.30214830       0.50203811      -0.00152210      -0.00004128      -0.03897094
Sn       3.23377837       0.57108592       4.27371502       0.00147129       0.00001654       0.04114299
10