# Thermal properties / unit cell (natom)

unit:
  temperature:   K
  free_energy:   kJ/mol
  entropy:       J/K/mol
  heat_capacity: J/K/mol

natom: 14   
cutoff_frequency: 0.00000
num_modes: 172788
num_integrated_modes: 172786

zero_point_energy:      55.8681541

thermal_properties:
- temperature:         0.0000000
  free_energy:        55.8681541
  entropy:             0.0000000
  heat_capacity:       0.0000000
  energy:             55.8681541

- temperature:        10.0000000
  free_energy:        55.8661749
  entropy:             0.8133974
  heat_capacity:       2.7503859
  energy:             55.8743089

- temperature:        20.0000000
  free_energy:        55.8334410
  entropy:             6.7931844
  heat_capacity:      17.9849740
  energy:             55.9693047

- temperature:        30.0000000
  free_energy:        55.7133056
  entropy:            17.8359833
  heat_capacity:      37.8947436
  energy:             56.2483850

- temperature:        40.0000000
  free_energy:        55.4684581
  entropy:            31.4117231
  heat_capacity:      57.2844367
  energy:             56.7249270

- temperature:        50.0000000
  free_energy:        55.0809910
  entropy:            46.2371799
  heat_capacity:      76.3053246
  energy:             57.3928500

- temperature:        60.0000000
  free_energy:        54.5411298
  entropy:            61.8454433
  heat_capacity:      95.5488400
  energy:             58.2518564

- temperature:        70.0000000
  free_energy:        53.8421511
  entropy:            78.0340476
  heat_capacity:     114.9917271
  energy:             59.3045345

- temperature:        80.0000000
  free_energy:        52.9790255
  entropy:            94.6494479
  heat_capacity:     134.2201724
  energy:             60.5509813

- temperature:        90.0000000
  free_energy:        51.9482546
  entropy:           111.5371895
  heat_capacity:     152.7516704
  energy:             61.9866016

- temperature:       100.0000000
  free_energy:        50.7478822
  entropy:           128.5452635
  heat_capacity:     170.2065225
  energy:             63.6024086

- temperature:       110.0000000
  free_energy:        49.3774099
  entropy:           145.5359004
  heat_capacity:     186.3539285
  energy:             65.3863590

- temperature:       120.0000000
  free_energy:        47.8376115
  entropy:           162.3931659
  heat_capacity:     201.0958399
  energy:             67.3247914

- temperature:       130.0000000
  free_energy:        46.1302998
  entropy:           179.0252374
  heat_capacity:     214.4312603
  energy:             69.4035807

- temperature:       140.0000000
  free_energy:        44.2580896
  entropy:           195.3631331
  heat_capacity:     226.4212755
  energy:             71.6089282

- temperature:       150.0000000
  free_energy:        42.2241834
  entropy:           211.3577056
  heat_capacity:     237.1616926
  energy:             73.9278392

- temperature:       160.0000000
  free_energy:        40.0321908
  entropy:           226.9761078
  heat_capacity:     246.7639980
  energy:             76.3483680

- temperature:       170.0000000
  free_energy:        37.6859827
  entropy:           242.1983907
  heat_capacity:     255.3431525
  energy:             78.8597091

- temperature:       180.0000000
  free_energy:        35.1895776
  entropy:           257.0145248
  heat_capacity:     263.0103470
  energy:             81.4521921

- temperature:       190.0000000
  free_energy:        32.5470553
  entropy:           271.4219320
  heat_capacity:     269.8691012
  energy:             84.1172223

- temperature:       200.0000000
  free_energy:        29.7624922
  entropy:           285.4235092
  heat_capacity:     276.0134954
  energy:             86.8471940

- temperature:       210.0000000
  free_energy:        26.8399154
  entropy:           299.0260824
  heat_capacity:     281.5276992
  energy:             89.6353927

- temperature:       220.0000000
  free_energy:        23.7832689
  entropy:           312.2392179
  heat_capacity:     286.4862427
  energy:             92.4758968

- temperature:       230.0000000
  free_energy:        20.5963913
  entropy:           325.0743196
  heat_capacity:     290.9546809
  energy:             95.3634848

- temperature:       240.0000000
  free_energy:        17.2830008
  entropy:           337.5439507
  heat_capacity:     294.9904334
  energy:             98.2935490

- temperature:       250.0000000
  free_energy:        13.8466864
  entropy:           349.6613306
  heat_capacity:     298.6436733
  energy:            101.2620191

- temperature:       260.0000000
  free_energy:        10.2909033
  entropy:           361.4399640
  heat_capacity:     301.9581920
  energy:            104.2652940

- temperature:       270.0000000
  free_energy:         6.6189712
  entropy:           372.8933724
  heat_capacity:     304.9722032
  energy:            107.3001818

- temperature:       280.0000000
  free_energy:         2.8340754
  entropy:           384.0349020
  heat_capacity:     307.7190692
  energy:            110.3638480

- temperature:       290.0000000
  free_energy:        -1.0607307
  entropy:           394.8775896
  heat_capacity:     310.2279453
  energy:            113.4537703

- temperature:       300.0000000
  free_energy:        -5.0625224
  entropy:           405.4340713
  heat_capacity:     312.5243444
  energy:            116.5676990

- temperature:       310.0000000
  free_energy:        -9.1684988
  entropy:           415.7165242
  heat_capacity:     314.6306275
  energy:            119.7036237

- temperature:       320.0000000
  free_energy:       -13.3759784
  entropy:           425.7366312
  heat_capacity:     316.5664290
  energy:            122.8597436

- temperature:       330.0000000
  free_energy:       -17.6823942
  entropy:           435.5055638
  heat_capacity:     318.3490216
  energy:            126.0344419

- temperature:       340.0000000
  free_energy:       -22.0852880
  entropy:           445.0339773
  heat_capacity:     319.9936315
  energy:            129.2262642

- temperature:       350.0000000
  free_energy:       -26.5823059
  entropy:           454.3320155
  heat_capacity:     321.5137083
  energy:            132.4338995

- temperature:       360.0000000
  free_energy:       -31.1711926
  entropy:           463.4093216
  heat_capacity:     322.9211574
  energy:            135.6561631

- temperature:       370.0000000
  free_energy:       -35.8497871
  entropy:           472.2750533
  heat_capacity:     324.2265394
  energy:            138.8919826

- temperature:       380.0000000
  free_energy:       -40.6160175
  entropy:           480.9379015
  heat_capacity:     325.4392420
  energy:            142.1403851

- temperature:       390.0000000
  free_energy:       -45.4678964
  entropy:           489.4061099
  heat_capacity:     326.5676273
  energy:            145.4004865

- temperature:       400.0000000
  free_energy:       -50.4035170
  entropy:           497.6874963
  heat_capacity:     327.6191591
  energy:            148.6714816

- temperature:       410.0000000
  free_energy:       -55.4210483
  entropy:           505.7894735
  heat_capacity:     328.6005135
  energy:            151.9526358

- temperature:       420.0000000
  free_energy:       -60.5187319
  entropy:           513.7190709
  heat_capacity:     329.5176734
  energy:            155.2432779

- temperature:       430.0000000
  free_energy:       -65.6948774
  entropy:           521.4829551
  heat_capacity:     330.3760112
  energy:            158.5427933

- temperature:       440.0000000
  free_energy:       -70.9478597
  entropy:           529.0874499
  heat_capacity:     331.1803599
  energy:            161.8506182

- temperature:       450.0000000
  free_energy:       -76.2761152
  entropy:           536.5385560
  heat_capacity:     331.9350761
  energy:            165.1662351

- temperature:       460.0000000
  free_energy:       -81.6781386
  entropy:           543.8419696
  heat_capacity:     332.6440932
  energy:            168.4891675

- temperature:       470.0000000
  free_energy:       -87.1524803
  entropy:           551.0030996
  heat_capacity:     333.3109697
  energy:            171.8189765

- temperature:       480.0000000
  free_energy:       -92.6977434
  entropy:           558.0270846
  heat_capacity:     333.9389297
  energy:            175.1552572

- temperature:       490.0000000
  free_energy:       -98.3125811
  entropy:           564.9188088
  heat_capacity:     334.5308998
  energy:            178.4976352

- temperature:       500.0000000
  free_energy:      -103.9956942
  entropy:           571.6829167
  heat_capacity:     335.0895406
  energy:            181.8457641

- temperature:       510.0000000
  free_energy:      -109.7458288
  entropy:           578.3238271
  heat_capacity:     335.6172749
  energy:            185.1993230

- temperature:       520.0000000
  free_energy:      -115.5617742
  entropy:           584.8457464
  heat_capacity:     336.1163123
  energy:            188.5580140

- temperature:       530.0000000
  free_energy:      -121.4423605
  entropy:           591.2526808
  heat_capacity:     336.5886708
  energy:            191.9215603

- temperature:       540.0000000
  free_energy:      -127.3864572
  entropy:           597.5484479
  heat_capacity:     337.0361965
  energy:            195.2897046

- temperature:       550.0000000
  free_energy:      -133.3929711
  entropy:           603.7366876
  heat_capacity:     337.4605805
  energy:            198.6622071

- temperature:       560.0000000
  free_energy:      -139.4608442
  entropy:           609.8208722
  heat_capacity:     337.8633739
  energy:            202.0388443

- temperature:       570.0000000
  free_energy:      -145.5890527
  entropy:           615.8043160
  heat_capacity:     338.2460015
  energy:            205.4194074

- temperature:       580.0000000
  free_energy:      -151.7766053
  entropy:           621.6901840
  heat_capacity:     338.6097736
  energy:            208.8037015

- temperature:       590.0000000
  free_energy:      -158.0225412
  entropy:           627.4815005
  heat_capacity:     338.9558971
  energy:            212.1915440

- temperature:       600.0000000
  free_energy:      -164.3259297
  entropy:           633.1811567
  heat_capacity:     339.2854847
  energy:            215.5827643

- temperature:       610.0000000
  free_energy:      -170.6858681
  entropy:           638.7919182
  heat_capacity:     339.5995636
  energy:            218.9772020

- temperature:       620.0000000
  free_energy:      -177.1014806
  entropy:           644.3164317
  heat_capacity:     339.8990832
  energy:            222.3747070

- temperature:       630.0000000
  free_energy:      -183.5719177
  entropy:           649.7572314
  heat_capacity:     340.1849221
  energy:            225.7751381

- temperature:       640.0000000
  free_energy:      -190.0963543
  entropy:           655.1167452
  heat_capacity:     340.4578939
  energy:            229.1783626

- temperature:       650.0000000
  free_energy:      -196.6739894
  entropy:           660.3973000
  heat_capacity:     340.7187535
  energy:            232.5842556

- temperature:       660.0000000
  free_energy:      -203.3040446
  entropy:           665.6011276
  heat_capacity:     340.9682014
  energy:            235.9926996

- temperature:       670.0000000
  free_energy:      -209.9857633
  entropy:           670.7303688
  heat_capacity:     341.2068887
  energy:            239.4035838

- temperature:       680.0000000
  free_energy:      -216.7184102
  entropy:           675.7870790
  heat_capacity:     341.4354210
  energy:            242.8168036

- temperature:       690.0000000
  free_energy:      -223.5012697
  entropy:           680.7732319
  heat_capacity:     341.6543623
  energy:            246.2322602

- temperature:       700.0000000
  free_energy:      -230.3336460
  entropy:           685.6907236
  heat_capacity:     341.8642381
  energy:            249.6498606

- temperature:       710.0000000
  free_energy:      -237.2148614
  entropy:           690.5413773
  heat_capacity:     342.0655389
  energy:            253.0695164

- temperature:       720.0000000
  free_energy:      -244.1442566
  entropy:           695.3269457
  heat_capacity:     342.2587223
  energy:            256.4911443

- temperature:       730.0000000
  free_energy:      -251.1211890
  entropy:           700.0491154
  heat_capacity:     342.4442164
  energy:            259.9146653

- temperature:       740.0000000
  free_energy:      -258.1450330
  entropy:           704.7095099
  heat_capacity:     342.6224214
  energy:            263.3400044

- temperature:       750.0000000
  free_energy:      -265.2151785
  entropy:           709.3096922
  heat_capacity:     342.7937120
  energy:            266.7670906

- temperature:       760.0000000
  free_energy:      -272.3310311
  entropy:           713.8511682
  heat_capacity:     342.9584391
  energy:            270.1958567

- temperature:       770.0000000
  free_energy:      -279.4920110
  entropy:           718.3353892
  heat_capacity:     343.1169322
  energy:            273.6262386

- temperature:       780.0000000
  free_energy:      -286.6975527
  entropy:           722.7637543
  heat_capacity:     343.2695000
  energy:            277.0581756

- temperature:       790.0000000
  free_energy:      -293.9471044
  entropy:           727.1376130
  heat_capacity:     343.4164327
  energy:            280.4916099

- temperature:       800.0000000
  free_energy:      -301.2401276
  entropy:           731.4582675
  heat_capacity:     343.5580030
  energy:            283.9264864

- temperature:       810.0000000
  free_energy:      -308.5760966
  entropy:           735.7269747
  heat_capacity:     343.6944673
  energy:            287.3627529

- temperature:       820.0000000
  free_energy:      -315.9544980
  entropy:           739.9449482
  heat_capacity:     343.8260672
  energy:            290.8003595

- temperature:       830.0000000
  free_energy:      -323.3748304
  entropy:           744.1133605
  heat_capacity:     343.9530298
  energy:            294.2392588

- temperature:       840.0000000
  free_energy:      -330.8366038
  entropy:           748.2333443
  heat_capacity:     344.0755696
  energy:            297.6794054

- temperature:       850.0000000
  free_energy:      -338.3393395
  entropy:           752.3059948
  heat_capacity:     344.1938887
  energy:            301.1207561

- temperature:       860.0000000
  free_energy:      -345.8825695
  entropy:           756.3323711
  heat_capacity:     344.3081778
  energy:            304.5632697

- temperature:       870.0000000
  free_energy:      -353.4658361
  entropy:           760.3134976
  heat_capacity:     344.4186171
  energy:            308.0069068

- temperature:       880.0000000
  free_energy:      -361.0886919
  entropy:           764.2503656
  heat_capacity:     344.5253768
  energy:            311.4516298

- temperature:       890.0000000
  free_energy:      -368.7506991
  entropy:           768.1439345
  heat_capacity:     344.6286180
  energy:            314.8974026

- temperature:       900.0000000
  free_energy:      -376.4514293
  entropy:           771.9951337
  heat_capacity:     344.7284928
  energy:            318.3441909

- temperature:       910.0000000
  free_energy:      -384.1904635
  entropy:           775.8048629
  heat_capacity:     344.8251455
  energy:            321.7919618

- temperature:       920.0000000
  free_energy:      -391.9673913
  entropy:           779.5739944
  heat_capacity:     344.9187128
  energy:            325.2406836

- temperature:       930.0000000
  free_energy:      -399.7818109
  entropy:           783.3033732
  heat_capacity:     345.0093239
  energy:            328.6903262

- temperature:       940.0000000
  free_energy:      -407.6333290
  entropy:           786.9938187
  heat_capacity:     345.0971017
  energy:            332.1408606

- temperature:       950.0000000
  free_energy:      -415.5215602
  entropy:           790.6461256
  heat_capacity:     345.1821627
  energy:            335.5922591

- temperature:       960.0000000
  free_energy:      -423.4461269
  entropy:           794.2610647
  heat_capacity:     345.2646174
  energy:            339.0444952

- temperature:       970.0000000
  free_energy:      -431.4066594
  entropy:           797.8393841
  heat_capacity:     345.3445708
  energy:            342.4975432

- temperature:       980.0000000
  free_energy:      -439.4027950
  entropy:           801.3818097
  heat_capacity:     345.4221228
  energy:            345.9513786

- temperature:       990.0000000
  free_energy:      -447.4341783
  entropy:           804.8890467
  heat_capacity:     345.4973683
  energy:            349.4059779

- temperature:      1000.0000000
  free_energy:      -455.5004609
  entropy:           808.3617794
  heat_capacity:     345.5703974
  energy:            352.8613186
