phonopy:
  version: "2.37.1"
  frequency_unit_conversion_factor: 15.633302
  symmetry_tolerance: 1.00000e-05

space_group:
  type: "I4/mmm"
  number: 139
  Hall_symbol: "-I 4 2"

primitive_matrix:
- [  0.000000000000000, -1.000000000000000, -0.000000000000000 ]
- [ -1.000000000000000,  0.000000000000000, -0.000000000000000 ]
- [  0.000000000000000,  0.000000000000000, -1.000000000000000 ]

supercell_matrix:
- [   2,   0,   0 ]
- [   0,   2,   0 ]
- [   0,   0,   2 ]

primitive_cell:
  lattice:
  - [    -1.796860954739963,    -4.733333121707040,     0.000000000000000 ] # a
  - [    -5.062919356351692,     0.000000000000001,     0.000000000000000 ] # b
  - [     3.429890078604715,     2.366666566324266,    -2.875394704849558 ] # c
  points:
  - symbol: Li # 1
    coordinates: [  0.000000001884513,  0.999999999507799,  0.000000000738488 ]
    mass: 6.940000
  - symbol: Ga # 2
    coordinates: [  0.750000000843560,  0.249999999206297,  0.499999999972059 ]
    mass: 69.723000
  - symbol: Ga # 3
    coordinates: [  0.250000000748682,  0.749999998501861,  0.499999999533358 ]
    mass: 69.723000
  - symbol: Ga # 4
    coordinates: [  0.499999996536183,  0.500000002798173,  0.999999999770250 ]
    mass: 69.723000
  reciprocal_lattice: # without 2pi
  - [    -0.000000000000000,    -0.211267615079531,    -0.173889170871917 ] # a*
  - [    -0.197514502921215,     0.074980164963756,    -0.173889165042118 ] # b*
  - [    -0.000000000000000,    -0.000000000000000,    -0.347778340939916 ] # c*

unit_cell:
  lattice:
  - [     5.062919356351693,     0.000000000000000,     0.000000000000000 ] # a
  - [     1.796860954739963,     4.733333121707041,     0.000000000000000 ] # b
  - [    -3.429890078604716,    -2.366666566324267,     2.875394704849558 ] # c
  points:
  - symbol: Li # 1
    coordinates: [  0.000000000492201,  0.999999998115487,  0.999999999261512 ]
    mass: 6.940000
    reduced_to: 1
  - symbol: Ga # 2
    coordinates: [  0.750000000793703,  0.249999999156440,  0.500000000027941 ]
    mass: 69.723000
    reduced_to: 2
  - symbol: Ga # 3
    coordinates: [  0.250000001498139,  0.749999999251318,  0.500000000466642 ]
    mass: 69.723000
    reduced_to: 3
  - symbol: Ga # 4
    coordinates: [  0.499999997201827,  0.500000003463817,  0.000000000229750 ]
    mass: 69.723000
    reduced_to: 4

supercell:
  lattice:
  - [    10.125838712703386,     0.000000000000000,     0.000000000000000 ] # a
  - [     3.593721909479927,     9.466666243414082,     0.000000000000000 ] # b
  - [    -6.859780157209432,    -4.733333132648533,     5.750789409699117 ] # c
  points:
  - symbol: Li # 1
    coordinates: [  0.000000000246100,  0.499999999057744,  0.499999999630756 ]
    mass: 6.940000
    reduced_to: 1
  - symbol: Li # 2
    coordinates: [  0.500000000246100,  0.499999999057744,  0.499999999630756 ]
    mass: 6.940000
    reduced_to: 1
  - symbol: Li # 3
    coordinates: [  0.000000000246100,  0.999999999057744,  0.499999999630756 ]
    mass: 6.940000
    reduced_to: 1
  - symbol: Li # 4
    coordinates: [  0.500000000246100,  0.999999999057744,  0.499999999630756 ]
    mass: 6.940000
    reduced_to: 1
  - symbol: Li # 5
    coordinates: [  0.000000000246100,  0.499999999057744,  0.999999999630756 ]
    mass: 6.940000
    reduced_to: 1
  - symbol: Li # 6
    coordinates: [  0.500000000246100,  0.499999999057744,  0.999999999630756 ]
    mass: 6.940000
    reduced_to: 1
  - symbol: Li # 7
    coordinates: [  0.000000000246100,  0.999999999057744,  0.999999999630756 ]
    mass: 6.940000
    reduced_to: 1
  - symbol: Li # 8
    coordinates: [  0.500000000246100,  0.999999999057744,  0.999999999630756 ]
    mass: 6.940000
    reduced_to: 1
  - symbol: Ga # 9
    coordinates: [  0.375000000396851,  0.124999999578220,  0.250000000013971 ]
    mass: 69.723000
    reduced_to: 9
  - symbol: Ga # 10
    coordinates: [  0.875000000396851,  0.124999999578220,  0.250000000013971 ]
    mass: 69.723000
    reduced_to: 9
  - symbol: Ga # 11
    coordinates: [  0.375000000396851,  0.624999999578220,  0.250000000013971 ]
    mass: 69.723000
    reduced_to: 9
  - symbol: Ga # 12
    coordinates: [  0.875000000396851,  0.624999999578220,  0.250000000013971 ]
    mass: 69.723000
    reduced_to: 9
  - symbol: Ga # 13
    coordinates: [  0.375000000396851,  0.124999999578220,  0.750000000013971 ]
    mass: 69.723000
    reduced_to: 9
  - symbol: Ga # 14
    coordinates: [  0.875000000396851,  0.124999999578220,  0.750000000013971 ]
    mass: 69.723000
    reduced_to: 9
  - symbol: Ga # 15
    coordinates: [  0.375000000396851,  0.624999999578220,  0.750000000013971 ]
    mass: 69.723000
    reduced_to: 9
  - symbol: Ga # 16
    coordinates: [  0.875000000396851,  0.624999999578220,  0.750000000013971 ]
    mass: 69.723000
    reduced_to: 9
  - symbol: Ga # 17
    coordinates: [  0.125000000749070,  0.374999999625659,  0.250000000233321 ]
    mass: 69.723000
    reduced_to: 17
  - symbol: Ga # 18
    coordinates: [  0.625000000749069,  0.374999999625659,  0.250000000233321 ]
    mass: 69.723000
    reduced_to: 17
  - symbol: Ga # 19
    coordinates: [  0.125000000749070,  0.874999999625659,  0.250000000233321 ]
    mass: 69.723000
    reduced_to: 17
  - symbol: Ga # 20
    coordinates: [  0.625000000749069,  0.874999999625659,  0.250000000233321 ]
    mass: 69.723000
    reduced_to: 17
  - symbol: Ga # 21
    coordinates: [  0.125000000749070,  0.374999999625659,  0.750000000233321 ]
    mass: 69.723000
    reduced_to: 17
  - symbol: Ga # 22
    coordinates: [  0.625000000749069,  0.374999999625659,  0.750000000233321 ]
    mass: 69.723000
    reduced_to: 17
  - symbol: Ga # 23
    coordinates: [  0.125000000749070,  0.874999999625659,  0.750000000233321 ]
    mass: 69.723000
    reduced_to: 17
  - symbol: Ga # 24
    coordinates: [  0.625000000749069,  0.874999999625659,  0.750000000233321 ]
    mass: 69.723000
    reduced_to: 17
  - symbol: Ga # 25
    coordinates: [  0.249999998600914,  0.250000001731908,  0.000000000114875 ]
    mass: 69.723000
    reduced_to: 25
  - symbol: Ga # 26
    coordinates: [  0.749999998600914,  0.250000001731908,  0.000000000114875 ]
    mass: 69.723000
    reduced_to: 25
  - symbol: Ga # 27
    coordinates: [  0.249999998600914,  0.750000001731908,  0.000000000114875 ]
    mass: 69.723000
    reduced_to: 25
  - symbol: Ga # 28
    coordinates: [  0.749999998600914,  0.750000001731908,  0.000000000114875 ]
    mass: 69.723000
    reduced_to: 25
  - symbol: Ga # 29
    coordinates: [  0.249999998600914,  0.250000001731908,  0.500000000114875 ]
    mass: 69.723000
    reduced_to: 25
  - symbol: Ga # 30
    coordinates: [  0.749999998600914,  0.250000001731908,  0.500000000114875 ]
    mass: 69.723000
    reduced_to: 25
  - symbol: Ga # 31
    coordinates: [  0.249999998600914,  0.750000001731908,  0.500000000114875 ]
    mass: 69.723000
    reduced_to: 25
  - symbol: Ga # 32
    coordinates: [  0.749999998600914,  0.750000001731908,  0.500000000114875 ]
    mass: 69.723000
    reduced_to: 25

displacements:
- atom:    1
  displacement:
    [   0.0100000000000000,  0.0000000000000000,  0.0000000000000000 ]
  forces:
  - [  -0.0157401002943516,  0.0005222021136433,  0.0000000782310963 ]
  - [   0.0013184233102947,  0.0001261911820620,  0.0000001627486199 ]
  - [   0.0004011406563222,  0.0004741032607853,  0.0000000018626451 ]
  - [  -0.0001599513925612,  0.0007975040934980,  0.0000000428408384 ]
  - [   0.0007144386181608,  0.0005112234503031, -0.0004038657061756 ]
  - [  -0.0005213475087658, -0.0008530900813639,  0.0006095869466662 ]
  - [  -0.0005213834811002, -0.0008529775659554, -0.0006094193086028 ]
  - [   0.0007138560758904,  0.0005112696089782,  0.0004036631435156 ]
  - [  -0.0001879353076220,  0.0000498644076288, -0.0000144382938743 ]
  - [   0.0003792066127062,  0.0005925213918090,  0.0003235917538404 ]
  - [  -0.0002085324376822,  0.0000585461966693,  0.0000126427039504 ]
  - [   0.0003668428398669,  0.0005948767066002, -0.0003309482708573 ]
  - [   0.0000009862706065,  0.0001478455960751, -0.0000334829092026 ]
  - [   0.0000029876828194,  0.0001477291807532,  0.0000226176343858 ]
  - [   0.0025120545178652,  0.0004653614014387,  0.0009942133910954 ]
  - [   0.0024131350219250,  0.0004674540832639, -0.0009340331889689 ]
  - [   0.0025123991072178,  0.0004646778106689, -0.0009945700876415 ]
  - [   0.0024136668071151,  0.0004667565226555,  0.0009344257414341 ]
  - [   0.0000011320225894,  0.0001472247531638,  0.0000334186479449 ]
  - [   0.0000031295930967,  0.0001476331817685, -0.0000225156545639 ]
  - [   0.0003793146461248,  0.0005916389636695, -0.0003234818577766 ]
  - [  -0.0001874305307865,  0.0000497731380165,  0.0000141472555697 ]
  - [   0.0003677532076836,  0.0005950410850346,  0.0003308709710836 ]
  - [  -0.0002088826149702,  0.0000575855374336, -0.0000128662213683 ]
  - [  -0.0006485952180810, -0.0002226879587397,  0.0000097696938610 ]
  - [   0.0000715393689461,  0.0000633156159893,  0.0000133657631523 ]
  - [   0.0000716632930562,  0.0000641493825242, -0.0000138623890962 ]
  - [  -0.0006483398610726, -0.0002223508199677, -0.0000096950680017 ]
  - [   0.0021482245065272, -0.0029526678845286, -0.0000000451691449 ]
  - [   0.0000552180863451, -0.0000622073421255, -0.0000000077998266 ]
  - [   0.0000650939182378, -0.0000502457842231,  0.0000006440095603 ]
  - [   0.0021202801726758, -0.0028982763178647, -0.0000000195577741 ]
- atom:    9
  displacement:
    [   0.0100000000000000,  0.0000000000000000,  0.0000000000000000 ]
  forces:
  - [  -0.0002001535613090,  0.0002255900762975, -0.0001477736514062 ]
  - [   0.0003765118308365,  0.0012643178924918,  0.0008816095069051 ]
  - [  -0.0001952522434294,  0.0002182987518609,  0.0001573548652232 ]
  - [   0.0003702668473125,  0.0012527126818895, -0.0008691442199051 ]
  - [   0.0000017582024157, -0.0000226754855248, -0.0001663891598582 ]
  - [   0.0000018475184334, -0.0000184085183719,  0.0001667137257755 ]
  - [   0.0024045859463513, -0.0001959653745871,  0.0014775247545913 ]
  - [   0.0025219840463251, -0.0002026324364124, -0.0015474911779165 ]
  - [  -0.0200777240097523,  0.0004434246802703, -0.0000181588729902 ]
  - [   0.0001932401210070,  0.0000080717727542,  0.0000060740858316 ]
  - [   0.0000129342079163,  0.0000767498277128, -0.0000020912848413 ]
  - [   0.0008073202334344,  0.0003881230950356, -0.0000006984919310 ]
  - [   0.0000819861888885,  0.0000760089606047, -0.0000822003930807 ]
  - [   0.0000070538371801, -0.0001896070316434,  0.0001589991152287 ]
  - [   0.0000061029568315, -0.0001902719959617, -0.0001577404327691 ]
  - [   0.0000806115567684,  0.0000701555982232,  0.0000773272477090 ]
  - [   0.0018709423020482, -0.0027972133830190,  0.0013463529758155 ]
  - [   0.0005040699616075,  0.0004388196393847, -0.0000487519428134 ]
  - [   0.0005364682292566,  0.0004610633477569,  0.0000508856028318 ]
  - [   0.0019226950826123, -0.0028924117796123, -0.0013815117999911 ]
  - [   0.0004886370152235, -0.0000830153003335, -0.0000094342976809 ]
  - [  -0.0017589721828699,  0.0007970561273396, -0.0000138664618134 ]
  - [   0.0013395808637142, -0.0003798049874604,  0.0000098152086139 ]
  - [  -0.0018498855642974, -0.0004906095564365,  0.0000049555674195 ]
  - [   0.0005044298013672,  0.0001661811838858, -0.0001262043369934 ]
  - [  -0.0002173083485104, -0.0002987915067933, -0.0001748793292791 ]
  - [   0.0005014540511183,  0.0001449722913094,  0.0001079711364582 ]
  - [  -0.0002211217652075, -0.0003051630337723,  0.0001768145011738 ]
  - [   0.0050494149327278,  0.0008576836553402, -0.0018846543971449 ]
  - [   0.0052736918441951,  0.0008703779894859,  0.0020090481266379 ]
  - [  -0.0001666804892011,  0.0001532441820018, -0.0001697593834251 ]
  - [  -0.0001704833703116,  0.0001537273055874,  0.0001693126687314 ]
- atom:   25
  displacement:
    [   0.0100000000000000,  0.0000000000000000,  0.0000000000000000 ]
  forces:
  - [  -0.0006481893360615, -0.0002216361463070, -0.0000095455907285 ]
  - [   0.0000710119493306,  0.0000641334336251,  0.0000109982211143 ]
  - [   0.0000713495537639,  0.0000637038610876, -0.0000110378023237 ]
  - [  -0.0006486019119620, -0.0002218219451606,  0.0000093649141490 ]
  - [   0.0021121685858816, -0.0028896245639771, -0.0000000125728548 ]
  - [   0.0000594982411712, -0.0000581376880291,  0.0000001098960638 ]
  - [   0.0000610470015090, -0.0000536371626367,  0.0000001530570444 ]
  - [   0.0021552154794335, -0.0029608448967338, -0.0000000712461770 ]
  - [   0.0004993248730898,  0.0026301043108106, -0.0021573053672910 ]
  - [  -0.0002242531627417,  0.0001795864664018,  0.0002170521765947 ]
  - [   0.0005059540271759,  0.0026351120322943,  0.0021524410694838 ]
  - [  -0.0002159315627068,  0.0001664850860834, -0.0002108039334416 ]
  - [   0.0052804853767157, -0.0016213590279222, -0.0040576839819551 ]
  - [   0.0050443578511477, -0.0016032801941037,  0.0039125443436205 ]
  - [  -0.0001674164086580, -0.0003181044012308,  0.0002147532068193 ]
  - [  -0.0001708287745714, -0.0003223866224289, -0.0002254541032016 ]
  - [   0.0050449296832085, -0.0016036424785852, -0.0039127944037318 ]
  - [   0.0052805822342634, -0.0016213720664382,  0.0040575442835689 ]
  - [  -0.0001703746384010, -0.0003234766772948,  0.0002256836742163 ]
  - [  -0.0001671532809269, -0.0003186163958162, -0.0002145497128367 ]
  - [   0.0005058143287897,  0.0026345523074269, -0.0021527069620788 ]
  - [  -0.0002151578664780,  0.0001669498160481,  0.0002110027708113 ]
  - [   0.0004997979849577,  0.0026291795074940,  0.0021569812670350 ]
  - [  -0.0002245816867799,  0.0001785811036825, -0.0002168510109186 ]
  - [  -0.0203465260565281,  0.0024581449106336,  0.0000002424825141 ]
  - [  -0.0026853776071221,  0.0000518789165653, -0.0000003685672425 ]
  - [   0.0000990057014860, -0.0010045154485852, -0.0000001707829256 ]
  - [  -0.0008592515368946,  0.0007375426357612, -0.0000001827720553 ]
  - [  -0.0013016326120123, -0.0004635092918761,  0.0012258376227692 ]
  - [   0.0010277727851644,  0.0007369252271019,  0.0001610332401469 ]
  - [   0.0010283769806847,  0.0007362783653662, -0.0001606143778190 ]
  - [  -0.0013014290016145, -0.0004631982883438, -0.0012255875626579 ]

force_constants:
  format: "full"
  shape: [ 32, 32 ]
  elements:
  - # (1, 1)
    - [     1.574015227817807,    -0.052217018670125,    -0.000000000757401 ]
    - [    -0.052217018670125,     1.613660323737983,     0.000000000634722 ]
    - [    -0.000000000757401,     0.000000000634722,     1.649690713529334 ]
  - # (1, 2)
    - [    -0.131841102521017,    -0.012600107385269,     0.000000000575510 ]
    - [    -0.012600108768237,    -0.017320353180157,    -0.000000000734106 ]
    - [     0.000000003115964,    -0.000000000610104,     0.002678210540943 ]
  - # (1, 3)
    - [    -0.040106688569330,    -0.047424191425034,     0.000000000505221 ]
    - [    -0.047424190605791,    -0.109054768464479,     0.000000000465476 ]
    - [     0.000000001836635,     0.000000001016615,     0.002678210594729 ]
  - # (1, 4)
    - [     0.016000337218604,    -0.079747217349212,    -0.000000000263478 ]
    - [    -0.079747217231586,     0.076547379929843,     0.000000001004829 ]
    - [    -0.000000000217280,     0.000000000978118,     0.131573946968567 ]
  - # (1, 5)
    - [    -0.071408637813485,    -0.051120840503860,     0.040380884979256 ]
    - [    -0.051120840656060,    -0.032595801422650,     0.027863311075560 ]
    - [     0.040380886115369,     0.027863311334913,    -0.042478808391490 ]
  - # (1, 6)
    - [     0.052141746297383,     0.085306578814571,    -0.060950318076557 ]
    - [     0.085306578774808,    -0.012626165294502,     0.088332206137595 ]
    - [    -0.060950316850611,     0.088332205955782,    -0.071488754281363 ]
  - # (1, 7)
    - [     0.052141748787978,     0.085306577669292,     0.060950313168177 ]
    - [     0.085306575119484,    -0.012626163568287,    -0.088332206715763 ]
    - [     0.060950313439770,    -0.088332211849920,    -0.071488762096169 ]
  - # (1, 8)
    - [    -0.071408637498838,    -0.051120840917791,    -0.040380885449114 ]
    - [    -0.051120841961859,    -0.032595802743667,    -0.027863309414692 ]
    - [    -0.040380884193112,    -0.027863308295551,    -0.042478805309190 ]
  - # (1, 9)
    - [     0.019872952055636,    -0.005470456609338,     0.001225158232280 ]
    - [    -0.022312468868395,     0.007370743716626,     0.002368117533984 ]
    - [     0.015087404363898,     0.011933237661233,     0.024390450113530 ]
  - # (1, 10)
    - [    -0.037327323332854,    -0.059366792853103,    -0.032759552119619 ]
    - [    -0.125895437145052,    -0.206100840475019,    -0.090751666889319 ]
    - [    -0.087517640833997,    -0.128535425993364,    -0.065062444338474 ]
  - # (1, 11)
    - [     0.019872952576311,    -0.005470456984286,    -0.001225160160912 ]
    - [    -0.022312468693328,     0.007370744227946,    -0.002368116485800 ]
    - [    -0.015087405656216,    -0.011933237624880,     0.024390449757302 ]
  - # (1, 12)
    - [    -0.037327321255987,    -0.059366793592055,     0.032759550409303 ]
    - [    -0.125895436403455,    -0.206100841265971,     0.090751670014893 ]
    - [     0.087517638785745,     0.128535427046842,    -0.065062448735473 ]
  - # (1, 13)
    - [    -0.000272940076069,    -0.014664715231387,     0.002648772740641 ]
    - [     0.002177297485708,     0.027516636896587,     0.000304944758863 ]
    - [     0.016511019224092,     0.009870065909117,     0.024390449121160 ]
  - # (1, 14)
    - [    -0.000272939747655,    -0.014664714920355,    -0.002648774652212 ]
    - [     0.002177297978001,     0.027516636357826,    -0.000304944616352 ]
    - [    -0.016511019308453,    -0.009870065246227,     0.024390450887602 ]
  - # (1, 15)
    - [    -0.246312860128836,    -0.046560654769328,    -0.096470472599133 ]
    - [     0.019967988452982,     0.002884699665634,     0.001581352087875 ]
    - [    -0.151228559161628,    -0.036202404114218,    -0.065062442274234 ]
  - # (1, 16)
    - [    -0.246312857227607,    -0.046560654776266,     0.096470477909258 ]
    - [     0.019967988038461,     0.002884697757885,    -0.001581351439179 ]
    - [     0.151228571441127,     0.036202407031090,    -0.065062450937645 ]
  - # (1, 17)
    - [    -0.246312857227607,    -0.046560654776266,     0.096470477909258 ]
    - [     0.019967988038461,     0.002884697757885,    -0.001581351439179 ]
    - [     0.151228571441127,     0.036202407031090,    -0.065062450937645 ]
  - # (1, 18)
    - [    -0.246312860128836,    -0.046560654769328,    -0.096470472599133 ]
    - [     0.019967988452982,     0.002884699665634,     0.001581352087875 ]
    - [    -0.151228559161628,    -0.036202404114218,    -0.065062442274234 ]
  - # (1, 19)
    - [    -0.000272939747655,    -0.014664714920355,    -0.002648774652212 ]
    - [     0.002177297978001,     0.027516636357826,    -0.000304944616352 ]
    - [    -0.016511019308453,    -0.009870065246227,     0.024390450887602 ]
  - # (1, 20)
    - [    -0.000272940076069,    -0.014664715231387,     0.002648772740641 ]
    - [     0.002177297485708,     0.027516636896587,     0.000304944758863 ]
    - [     0.016511019224092,     0.009870065909117,     0.024390449121160 ]
  - # (1, 21)
    - [    -0.037327321255987,    -0.059366793592055,     0.032759550409303 ]
    - [    -0.125895436403455,    -0.206100841265971,     0.090751670014893 ]
    - [     0.087517638785745,     0.128535427046842,    -0.065062448735473 ]
  - # (1, 22)
    - [     0.019872952576311,    -0.005470456984286,    -0.001225160160912 ]
    - [    -0.022312468693328,     0.007370744227946,    -0.002368116485800 ]
    - [    -0.015087405656215,    -0.011933237624880,     0.024390449757302 ]
  - # (1, 23)
    - [    -0.037327323332854,    -0.059366792853103,    -0.032759552119619 ]
    - [    -0.125895437145052,    -0.206100840475019,    -0.090751666889319 ]
    - [    -0.087517640833997,    -0.128535425993364,    -0.065062444338474 ]
  - # (1, 24)
    - [     0.019872952055635,    -0.005470456609338,     0.001225158232280 ]
    - [    -0.022312468868395,     0.007370743716626,     0.002368117533984 ]
    - [     0.015087404363898,     0.011933237661233,     0.024390450113530 ]
  - # (1, 25)
    - [     0.064850141886667,     0.022203137029429,    -0.000000002531928 ]
    - [     0.022203137503140,     0.047992699307210,     0.000000000171712 ]
    - [    -0.000000002022554,    -0.000000000465295,     0.032672261924712 ]
  - # (1, 26)
    - [    -0.007132481393169,    -0.006392092098646,     0.000000006032053 ]
    - [    -0.006392091794157,    -0.002279366561347,    -0.000000001596838 ]
    - [    -0.000000007895609,     0.000000000880910,    -0.637333463086181 ]
  - # (1, 27)
    - [    -0.007132481393169,    -0.006392092098646,     0.000000006032053 ]
    - [    -0.006392091794157,    -0.002279366561347,    -0.000000001596838 ]
    - [    -0.000000007895609,     0.000000000880910,    -0.637333463086181 ]
  - # (1, 28)
    - [     0.064850141886667,     0.022203137029429,    -0.000000002531928 ]
    - [     0.022203137503140,     0.047992699307211,     0.000000000171712 ]
    - [    -0.000000002022554,    -0.000000000465295,     0.032672261924712 ]
  - # (1, 29)
    - [    -0.213389873009249,     0.292526310097601,     0.000000001359540 ]
    - [     0.292526310384512,    -0.435486683235942,    -0.000000004843215 ]
    - [     0.000000001717317,    -0.000000004718083,     0.002131256391502 ]
  - # (1, 30)
    - [    -0.006014447206739,     0.005596414591447,    -0.000000001960077 ]
    - [     0.005596415061266,    -0.010263450888476,     0.000000000076566 ]
    - [    -0.000000001898391,     0.000000000050587,    -0.014125044601481 ]
  - # (1, 31)
    - [    -0.006014447206739,     0.005596414591447,    -0.000000001960077 ]
    - [     0.005596415061266,    -0.010263450888476,     0.000000000076566 ]
    - [    -0.000000001898391,     0.000000000050587,    -0.014125044601481 ]
  - # (1, 32)
    - [    -0.213389873009249,     0.292526310097601,     0.000000001359540 ]
    - [     0.292526310384512,    -0.435486683235942,    -0.000000004843215 ]
    - [     0.000000001717317,    -0.000000004718083,     0.002131256391502 ]
  - # (2, 1)
    - [    -0.131841102521017,    -0.012600108768237,     0.000000003115964 ]
    - [    -0.012600107385269,    -0.017320353180157,    -0.000000000610104 ]
    - [     0.000000000575510,    -0.000000000734106,     0.002678210540943 ]
  - # (2, 2)
    - [     1.574015160921532,    -0.052216975239719,    -0.000000038993670 ]
    - [    -0.052216975239719,     1.613660338346145,     0.000000038422760 ]
    - [    -0.000000038993670,     0.000000038422760,     1.649690764832915 ]
  - # (2, 3)
    - [     0.016000337055006,    -0.079747217431368,    -0.000000001209312 ]
    - [    -0.079747214616060,     0.076547378400426,     0.000000002657685 ]
    - [     0.000000000231009,     0.000000003664220,     0.131573948350662 ]
  - # (2, 4)
    - [    -0.040106687093660,    -0.047424192325246,     0.000000000298390 ]
    - [    -0.047424192439885,    -0.109054772597193,    -0.000000000870605 ]
    - [    -0.000000000652473,    -0.000000000362640,     0.002678210523119 ]
  - # (2, 5)
    - [     0.052141748381137,     0.085306578302058,    -0.060950316962167 ]
    - [     0.085306574033354,    -0.012626162978522,     0.088332204901462 ]
    - [    -0.060950312790248,     0.088332203467851,    -0.071488755430359 ]
  - # (2, 6)
    - [    -0.071408635861522,    -0.051120841577752,     0.040380887315186 ]
    - [    -0.051120841072475,    -0.032595802971632,     0.027863311907282 ]
    - [     0.040380886605350,     0.027863311021747,    -0.042478810509605 ]
  - # (2, 7)
    - [    -0.071408635993634,    -0.051120843158010,    -0.040380884794551 ]
    - [    -0.051120841464160,    -0.032595802503050,    -0.027863311214191 ]
    - [    -0.040380883296873,    -0.027863311951078,    -0.042478809200254 ]
  - # (2, 8)
    - [     0.052141749921296,     0.085306576863612,     0.060950315412600 ]
    - [     0.085306574310380,    -0.012626164497787,    -0.088332210505469 ]
    - [     0.060950309981268,    -0.088332210043132,    -0.071488762626349 ]
  - # (2, 9)
    - [    -0.037327322306996,    -0.059366794803656,    -0.032759551013988 ]
    - [    -0.125895437691819,    -0.206100844480589,    -0.090751669514654 ]
    - [    -0.087517639393876,    -0.128535429838957,    -0.065062447463046 ]
  - # (2, 10)
    - [     0.019872953781662,    -0.005470456868010,     0.001225159199959 ]
    - [    -0.022312469135429,     0.007370742719607,     0.002368116815474 ]
    - [     0.015087404455801,     0.011933237633646,     0.024390449056980 ]
  - # (2, 11)
    - [    -0.037327321946878,    -0.059366795343494,     0.032759553451978 ]
    - [    -0.125895435948716,    -0.206100839010462,     0.090751668495489 ]
    - [     0.087517642388883,     0.128535430551097,    -0.065062452067723 ]
  - # (2, 12)
    - [     0.019872953699504,    -0.005470457797311,    -0.001225159078764 ]
    - [    -0.022312470509866,     0.007370742519836,    -0.002368116759677 ]
    - [    -0.015087406130642,    -0.011933239422724,     0.024390448745744 ]
  - # (2, 13)
    - [    -0.000272938903702,    -0.014664715986102,    -0.002648772884222 ]
    - [     0.002177296280643,     0.027516636427187,    -0.000304945873450 ]
    - [    -0.016511019723108,    -0.009870067431200,     0.024390448649676 ]
  - # (2, 14)
    - [    -0.000272938590508,    -0.014664715677181,     0.002648773816745 ]
    - [     0.002177296717706,     0.027516635856107,     0.000304945214629 ]
    - [     0.016511019575529,     0.009870066575676,     0.024390449100112 ]
  - # (2, 15)
    - [    -0.246312855794454,    -0.046560658873587,     0.096470485017401 ]
    - [     0.019967987732385,     0.002884699726769,    -0.001581354364777 ]
    - [     0.151228575266449,     0.036202407524077,    -0.065062457487035 ]
  - # (2, 16)
    - [    -0.246312851311543,    -0.046560659756465,    -0.096470469461472 ]
    - [     0.019967990376429,     0.002884698571993,     0.001581353600244 ]
    - [    -0.151228555322332,    -0.036202406729788,    -0.065062442233816 ]
  - # (2, 17)
    - [    -0.246312851311543,    -0.046560659756465,    -0.096470469461472 ]
    - [     0.019967990376429,     0.002884698571993,     0.001581353600244 ]
    - [    -0.151228555322332,    -0.036202406729788,    -0.065062442233816 ]
  - # (2, 18)
    - [    -0.246312855794454,    -0.046560658873587,     0.096470485017401 ]
    - [     0.019967987732385,     0.002884699726769,    -0.001581354364777 ]
    - [     0.151228575266449,     0.036202407524077,    -0.065062457487035 ]
  - # (2, 19)
    - [    -0.000272938590508,    -0.014664715677181,     0.002648773816745 ]
    - [     0.002177296717706,     0.027516635856107,     0.000304945214629 ]
    - [     0.016511019575529,     0.009870066575676,     0.024390449100112 ]
  - # (2, 20)
    - [    -0.000272938903702,    -0.014664715986102,    -0.002648772884222 ]
    - [     0.002177296280643,     0.027516636427187,    -0.000304945873450 ]
    - [    -0.016511019723108,    -0.009870067431200,     0.024390448649676 ]
  - # (2, 21)
    - [     0.019872953699504,    -0.005470457797311,    -0.001225159078764 ]
    - [    -0.022312470509866,     0.007370742519836,    -0.002368116759677 ]
    - [    -0.015087406130642,    -0.011933239422724,     0.024390448745744 ]
  - # (2, 22)
    - [    -0.037327321946878,    -0.059366795343494,     0.032759553451978 ]
    - [    -0.125895435948716,    -0.206100839010462,     0.090751668495489 ]
    - [     0.087517642388883,     0.128535430551097,    -0.065062452067723 ]
  - # (2, 23)
    - [     0.019872953781662,    -0.005470456868010,     0.001225159199959 ]
    - [    -0.022312469135429,     0.007370742719607,     0.002368116815474 ]
    - [     0.015087404455801,     0.011933237633646,     0.024390449056980 ]
  - # (2, 24)
    - [    -0.037327322306997,    -0.059366794803656,    -0.032759551013988 ]
    - [    -0.125895437691819,    -0.206100844480589,    -0.090751669514654 ]
    - [    -0.087517639393876,    -0.128535429838957,    -0.065062447463046 ]
  - # (2, 25)
    - [    -0.007132480282798,    -0.006392092598720,    -0.000000008974928 ]
    - [    -0.006392092437489,    -0.002279367814075,     0.000000000514570 ]
    - [    -0.000000001653788,    -0.000000007939624,    -0.637333463341869 ]
  - # (2, 26)
    - [     0.064850142665453,     0.022203137428075,    -0.000000000950980 ]
    - [     0.022203136139853,     0.047992699634478,    -0.000000000382597 ]
    - [    -0.000000001342615,    -0.000000001082213,     0.032672260231812 ]
  - # (2, 27)
    - [     0.064850142665453,     0.022203137428075,    -0.000000000950980 ]
    - [     0.022203136139853,     0.047992699634478,    -0.000000000382597 ]
    - [    -0.000000001342615,    -0.000000001082213,     0.032672260231812 ]
  - # (2, 28)
    - [    -0.007132480282798,    -0.006392092598720,    -0.000000008974928 ]
    - [    -0.006392092437489,    -0.002279367814075,     0.000000000514570 ]
    - [    -0.000000001653788,    -0.000000007939624,    -0.637333463341869 ]
  - # (2, 29)
    - [    -0.006014445297382,     0.005596413576217,    -0.000000000191315 ]
    - [     0.005596413101632,    -0.010263451165092,    -0.000000001455476 ]
    - [    -0.000000000832378,    -0.000000001513218,    -0.014125046631915 ]
  - # (2, 30)
    - [    -0.213389863116927,     0.292526308367565,     0.000000008978365 ]
    - [     0.292526297311587,    -0.435486681994873,    -0.000000013634187 ]
    - [     0.000000001882138,    -0.000000005069584,     0.002131255200544 ]
  - # (2, 31)
    - [    -0.213389863116927,     0.292526308367565,     0.000000008978365 ]
    - [     0.292526297311587,    -0.435486681994872,    -0.000000013634187 ]
    - [     0.000000001882138,    -0.000000005069584,     0.002131255200544 ]
  - # (2, 32)
    - [    -0.006014445297382,     0.005596413576217,    -0.000000000191315 ]