# Thermal properties / unit cell (natom)

unit:
  temperature:   K
  free_energy:   kJ/mol
  entropy:       J/K/mol
  heat_capacity: J/K/mol

natom: 9    
cutoff_frequency: 0.00000
num_modes: 165186
num_integrated_modes: 165184

zero_point_energy:      30.9702571

thermal_properties:
- temperature:         0.0000000
  free_energy:        30.9702571
  entropy:             0.0000000
  heat_capacity:       0.0000000
  energy:             30.9702571

- temperature:        10.0000000
  free_energy:        30.9697552
  entropy:             0.1525991
  heat_capacity:       0.4248550
  energy:             30.9712812

- temperature:        20.0000000
  free_energy:        30.9639514
  entropy:             1.2866213
  heat_capacity:       4.1826973
  energy:             30.9896838

- temperature:        30.0000000
  free_energy:        30.9363814
  entropy:             4.6712206
  heat_capacity:      14.1996732
  energy:             31.0765181

- temperature:        40.0000000
  free_energy:        30.8616146
  entropy:            10.7044225
  heat_capacity:      29.0452424
  energy:             31.2897915

- temperature:        50.0000000
  free_energy:        30.7146813
  entropy:            19.0168630
  heat_capacity:      46.3445655
  energy:             31.6655244

- temperature:        60.0000000
  free_energy:        30.4755246
  entropy:            29.0564031
  heat_capacity:      64.3294764
  energy:             32.2189087

- temperature:        70.0000000
  free_energy:        30.1295624
  entropy:            40.2960151
  heat_capacity:      81.7813831
  energy:             32.9502834

- temperature:        80.0000000
  free_energy:        29.6671026
  entropy:            52.2893297
  heat_capacity:      97.9601640
  energy:             33.8502490

- temperature:        90.0000000
  free_energy:        29.0824467
  entropy:            64.6843844
  heat_capacity:     112.5141728
  energy:             34.9040413

- temperature:       100.0000000
  free_energy:        28.3729595
  entropy:            77.2185952
  heat_capacity:     125.3592306
  energy:             36.0948190

- temperature:       110.0000000
  free_energy:        27.5382416
  entropy:            89.7047397
  heat_capacity:     136.5678258
  energy:             37.4057629

- temperature:       120.0000000
  free_energy:        26.5794570
  entropy:           102.0146526
  heat_capacity:     146.2891743
  energy:             38.8212153

- temperature:       130.0000000
  free_energy:        25.4988196
  entropy:           114.0642869
  heat_capacity:     154.6996067
  energy:             40.3271769

- temperature:       140.0000000
  free_energy:        24.2992151
  entropy:           125.8015075
  heat_capacity:     161.9751698
  energy:             41.9114262

- temperature:       150.0000000
  free_energy:        22.9839312
  entropy:           137.1967323
  heat_capacity:     168.2782974
  energy:             43.5634410

- temperature:       160.0000000
  free_energy:        21.5564681
  entropy:           148.2360217
  heat_capacity:     173.7525926
  energy:             45.2742316

- temperature:       170.0000000
  free_energy:        20.0204089
  entropy:           158.9160952
  heat_capacity:     178.5219320
  energy:             47.0361451

- temperature:       180.0000000
  free_energy:        18.3793313
  entropy:           169.2407892
  heat_capacity:     182.6916630
  energy:             48.8426733

- temperature:       190.0000000
  free_energy:        16.6367498
  entropy:           179.2185666
  heat_capacity:     186.3506630
  energy:             50.6882775

- temperature:       200.0000000
  free_energy:        14.7960787
  entropy:           188.8607787
  heat_capacity:     189.5736151
  energy:             52.5682344

- temperature:       210.0000000
  free_energy:        12.8606094
  entropy:           198.1804612
  heat_capacity:     192.4231877
  energy:             54.4785063

- temperature:       220.0000000
  free_energy:        10.8334983
  entropy:           207.1915072
  heat_capacity:     194.9519858
  energy:             56.4156299

- temperature:       230.0000000
  free_energy:         8.7177608
  entropy:           215.9081051
  heat_capacity:     197.2042339
  energy:             58.3766249

- temperature:       240.0000000
  free_energy:         6.5162706
  entropy:           224.3443623
  heat_capacity:     199.2171962
  energy:             60.3589176

- temperature:       250.0000000
  free_energy:         4.2317620
  entropy:           232.5140589
  heat_capacity:     201.0223603
  energy:             62.3602767

- temperature:       260.0000000
  free_energy:         1.8668336
  entropy:           240.4304921
  heat_capacity:     202.6464163
  energy:             64.3787615

- temperature:       270.0000000
  free_energy:        -0.5760461
  entropy:           248.1063833
  heat_capacity:     204.1120632
  energy:             66.4126774

- temperature:       280.0000000
  free_energy:        -3.0945327
  entropy:           255.5538297
  heat_capacity:     205.4386724
  energy:             68.4605396

- temperature:       290.0000000
  free_energy:        -5.6863995
  entropy:           262.7842842
  heat_capacity:     206.6428333
  energy:             70.5210429

- temperature:       300.0000000
  free_energy:        -8.3495312
  entropy:           269.8085568
  heat_capacity:     207.7388023
  energy:             72.5930359

- temperature:       310.0000000
  free_energy:       -11.0819173
  entropy:           276.6368285
  heat_capacity:     208.7388735
  energy:             74.6754995

- temperature:       320.0000000
  free_energy:       -13.8816464
  entropy:           283.2786740
  heat_capacity:     209.6536843
  energy:             76.7675293

- temperature:       330.0000000
  free_energy:       -16.7468994
  entropy:           289.7430889
  heat_capacity:     210.4924698
  energy:             78.8683199

- temperature:       340.0000000
  free_energy:       -19.6759449
  entropy:           296.0385210
  heat_capacity:     211.2632730
  energy:             80.9771522

- temperature:       350.0000000
  free_energy:       -22.6671331
  entropy:           302.1729010
  heat_capacity:     211.9731212
  energy:             83.0933823

- temperature:       360.0000000
  free_energy:       -25.7188910
  entropy:           308.1536751
  heat_capacity:     212.6281727
  energy:             85.2164321

- temperature:       370.0000000
  free_energy:       -28.8297179
  entropy:           313.9878354
  heat_capacity:     213.2338402
  energy:             87.3457812

- temperature:       380.0000000
  free_energy:       -31.9981809
  entropy:           319.6819503
  heat_capacity:     213.7948948
  energy:             89.4809602

- temperature:       390.0000000
  free_energy:       -35.2229107
  entropy:           325.2421928
  heat_capacity:     214.3155534
  energy:             91.6215445

- temperature:       400.0000000
  free_energy:       -38.5025979
  entropy:           330.6743676
  heat_capacity:     214.7995531
  energy:             93.7671491

- temperature:       410.0000000
  free_energy:       -41.8359894
  entropy:           335.9839363
  heat_capacity:     215.2502145
  energy:             95.9174245

- temperature:       420.0000000
  free_energy:       -45.2218851
  entropy:           341.1760412
  heat_capacity:     215.6704950
  energy:             98.0720522

- temperature:       430.0000000
  free_energy:       -48.6591349
  entropy:           346.2555275
  heat_capacity:     216.0630352
  energy:            100.2307419

- temperature:       440.0000000
  free_energy:       -52.1466355
  entropy:           351.2269633
  heat_capacity:     216.4301980
  energy:            102.3932283

- temperature:       450.0000000
  free_energy:       -55.6833284
  entropy:           356.0946595
  heat_capacity:     216.7741029
  energy:            104.5592684

- temperature:       460.0000000
  free_energy:       -59.2681965
  entropy:           360.8626864
  heat_capacity:     217.0966546
  energy:            106.7286392

- temperature:       470.0000000
  free_energy:       -62.9002627
  entropy:           365.5348910
  heat_capacity:     217.3995689
  energy:            108.9011360

- temperature:       480.0000000
  free_energy:       -66.5785871
  entropy:           370.1149113
  heat_capacity:     217.6843941
  energy:            111.0765703

- temperature:       490.0000000
  free_energy:       -70.3022652
  entropy:           374.6061907
  heat_capacity:     217.9525302
  energy:            113.2547683

- temperature:       500.0000000
  free_energy:       -74.0704260
  entropy:           379.0119910
  heat_capacity:     218.2052455
  energy:            115.4355695

- temperature:       510.0000000
  free_energy:       -77.8822304
  entropy:           383.3354040
  heat_capacity:     218.4436911
  energy:            117.6188257

- temperature:       520.0000000
  free_energy:       -81.7368692
  entropy:           387.5793625
  heat_capacity:     218.6689135
  energy:            119.8043993

- temperature:       530.0000000
  free_energy:       -85.6335621
  entropy:           391.7466511
  heat_capacity:     218.8818656
  energy:            121.9921630

- temperature:       540.0000000
  free_energy:       -89.5715555
  entropy:           395.8399151
  heat_capacity:     219.0834168
  energy:            124.1819986

- temperature:       550.0000000
  free_energy:       -93.5501220
  entropy:           399.8616692
  heat_capacity:     219.2743611
  energy:            126.3737960

- temperature:       560.0000000
  free_energy:       -97.5685585
  entropy:           403.8143061
  heat_capacity:     219.4554252
  energy:            128.5674529

- temperature:       570.0000000
  free_energy:      -101.6261854
  entropy:           407.7001038
  heat_capacity:     219.6272750
  energy:            130.7628738

- temperature:       580.0000000
  free_energy:      -105.7223450
  entropy:           411.5212324
  heat_capacity:     219.7905216
  energy:            132.9599697

- temperature:       590.0000000
  free_energy:      -109.8564013
  entropy:           415.2797607
  heat_capacity:     219.9457264
  energy:            135.1586575

- temperature:       600.0000000
  free_energy:      -114.0277382
  entropy:           418.9776623
  heat_capacity:     220.0934063
  energy:            137.3588592

- temperature:       610.0000000
  free_energy:      -118.2357588
  entropy:           422.6168211
  heat_capacity:     220.2340372
  energy:            139.5605021

- temperature:       620.0000000
  free_energy:      -122.4798848
  entropy:           426.1990366
  heat_capacity:     220.3680585
  energy:            141.7635179

- temperature:       630.0000000
  free_energy:      -126.7595555
  entropy:           429.7260286
  heat_capacity:     220.4958759
  energy:            143.9678426

- temperature:       640.0000000
  free_energy:      -131.0742268
  entropy:           433.1994418
  heat_capacity:     220.6178646
  energy:            146.1734160

- temperature:       650.0000000
  free_energy:      -135.4233709
  entropy:           436.6208501
  heat_capacity:     220.7343719
  energy:            148.3801816

- temperature:       660.0000000
  free_energy:      -139.8064755
  entropy:           439.9917602
  heat_capacity:     220.8457200
  energy:            150.5880862

- temperature:       670.0000000
  free_energy:      -144.2230426
  entropy:           443.3136156
  heat_capacity:     220.9522077
  energy:            152.7970798

- temperature:       680.0000000
  free_energy:      -148.6725889
  entropy:           446.5878000
  heat_capacity:     221.0541126
  energy:            155.0071151

- temperature:       690.0000000
  free_energy:      -153.1546442
  entropy:           449.8156403
  heat_capacity:     221.1516927
  energy:            157.2181476

- temperature:       700.0000000
  free_energy:      -157.6687515
  entropy:           452.9984097
  heat_capacity:     221.2451885
  energy:            159.4301354

- temperature:       710.0000000
  free_energy:      -162.2144662
  entropy:           456.1373306
  heat_capacity:     221.3348238
  energy:            161.6430385

- temperature:       720.0000000
  free_energy:      -166.7913558
  entropy:           459.2335771
  heat_capacity:     221.4208075
  energy:            163.8568197

- temperature:       730.0000000
  free_energy:      -171.3989993
  entropy:           462.2882773
  heat_capacity:     221.5033345
  energy:            166.0714432

- temperature:       740.0000000
  free_energy:      -176.0369865
  entropy:           465.3025161
  heat_capacity:     221.5825869
  energy:            168.2868754

- temperature:       750.0000000
  free_energy:      -180.7049182
  entropy:           468.2773370
  heat_capacity:     221.6587352
  energy:            170.5030846

- temperature:       760.0000000
  free_energy:      -185.4024052
  entropy:           471.2137441
  heat_capacity:     221.7319387
  energy:            172.7200403

- temperature:       770.0000000
  free_energy:      -190.1290683
  entropy:           474.1127043
  heat_capacity:     221.8023470
  energy:            174.9377140

- temperature:       780.0000000
  free_energy:      -194.8845376
  entropy:           476.9751487
  heat_capacity:     221.8701000
  energy:            177.1560784

- temperature:       790.0000000
  free_energy:      -199.6684525
  entropy:           479.8019748
  heat_capacity:     221.9353291
  energy:            179.3751076

- temperature:       800.0000000
  free_energy:      -204.4804612
  entropy:           482.5940478
  heat_capacity:     221.9981579
  energy:            181.5947770

- temperature:       810.0000000
  free_energy:      -209.3202204
  entropy:           485.3522019
  heat_capacity:     222.0587023
  energy:            183.8150632

- temperature:       820.0000000
  free_energy:      -214.1873949
  entropy:           488.0772423
  heat_capacity:     222.1170713
  energy:            186.0359438

- temperature:       830.0000000
  free_energy:      -219.0816575
  entropy:           490.7699460
  heat_capacity:     222.1733677
  energy:            188.2573977

- temperature:       840.0000000
  free_energy:      -224.0026885
  entropy:           493.4310632
  heat_capacity:     222.2276882
  energy:            190.4794046

- temperature:       850.0000000
  free_energy:      -228.9501759
  entropy:           496.0613188
  heat_capacity:     222.2801239
  energy:            192.7019452

- temperature:       860.0000000
  free_energy:      -233.9238144
  entropy:           498.6614133
  heat_capacity:     222.3307607
  energy:            194.9250010

- temperature:       870.0000000
  free_energy:      -238.9233058
  entropy:           501.2320236
  heat_capacity:     222.3796799
  energy:            197.1485546

- temperature:       880.0000000
  free_energy:      -243.9483587
  entropy:           503.7738045
  heat_capacity:     222.4269580
  energy:            199.3725892

- temperature:       890.0000000
  free_energy:      -248.9986880
  entropy:           506.2873894
  heat_capacity:     222.4726674
  energy:            201.5970886

- temperature:       900.0000000
  free_energy:      -254.0740146
  entropy:           508.7733912
  heat_capacity:     222.5168767
  energy:            203.8220375

- temperature:       910.0000000
  free_energy:      -259.1740658
  entropy:           511.2324035
  heat_capacity:     222.5596505
  energy:            206.0474213

- temperature:       920.0000000
  free_energy:      -264.2985746
  entropy:           513.6650006
  heat_capacity:     222.6010502
  energy:            208.2732260

- temperature:       930.0000000
  free_energy:      -269.4472796
  entropy:           516.0717393
  heat_capacity:     222.6411340
  energy:            210.4994379

- temperature:       940.0000000
  free_energy:      -274.6199250
  entropy:           518.4531590
  heat_capacity:     222.6799568
  energy:            212.7260444

- temperature:       950.0000000
  free_energy:      -279.8162602
  entropy:           520.8097823
  heat_capacity:     222.7175709
  energy:            214.9530331

- temperature:       960.0000000
  free_energy:      -285.0360397
  entropy:           523.1421163
  heat_capacity:     222.7540259
  energy:            217.1803920

- temperature:       970.0000000
  free_energy:      -290.2790232
  entropy:           525.4506526
  heat_capacity:     222.7893688
  energy:            219.4081099

- temperature:       980.0000000
  free_energy:      -295.5449750
  entropy:           527.7358682
  heat_capacity:     222.8236442
  energy:            221.6361758

- temperature:       990.0000000
  free_energy:      -300.8336643
  entropy:           529.9982259
  heat_capacity:     222.8568947
  energy:            223.8645793

- temperature:      1000.0000000
  free_energy:      -306.1448648
  entropy:           532.2381752
  heat_capacity:     222.8891606
  energy:            226.0933104
