12
Lattice="4.707094298696548 0.0016768596577221091 -0.0021213457583809095 -0.00174906884976344 5.077853776384475 -0.01454466479512843 0.004104819311193421 0.02724141051275218 8.796595970894849" Properties=species:S:1:pos:R:3:forces:R:3 structure_index=0 total_energy=-33.277381896972656 stress="-0.02812269516289234 -9.686606790637597e-05 -1.8067501514451578e-05 -9.686198609415442e-05 -0.034223977476358414 -0.0021022246219217777 -1.7821332221501507e-05 -0.0021020572166889906 -0.03351668268442154" pbc="T T T"
Li       1.73424903       3.47188884       2.15076065       0.00010033      -0.00324706      -0.00363804
Li       1.73713636       3.56585827       8.11269396      -0.00000663       0.00696587       0.00140546
Li       4.09048167       2.62601910       6.77193997      -0.00001945      -0.00575684      -0.01277359
Li       4.08899838       5.05625944       5.18917473      -0.00039917       0.01578327       0.00475827
Li       4.08893485       0.05439776       2.11995920      -0.00010480      -0.01529914       0.00634694
Li       1.73429305       1.00359139       0.73168682       0.00031694       0.00769773       0.00311430
Li       1.73750761       0.81817887       6.65881437      -0.00004991       0.00531501       0.01324665
Ga       4.08742921       2.64059286       0.67909429      -0.00008915      -0.01539914      -0.01521517
Ga       4.08885076       2.59438340       3.46023075      -0.00045985       0.00052181      -0.00959103
Ga       4.09183946       0.11895657       8.19227463       0.00001898      -0.00843530       0.00280624
Sn       1.73608273       3.35179847       5.26378488       0.00002359       0.00739353       0.00413616
Sn       1.73571818       0.86084076       3.60886365       0.00066911       0.00446027       0.00540378
5
Lattice="3.648954317005238 0.004159347709168122 1.8148802525427337 1.5593748544570236 4.9167805115746015 1.4399291648784367 -0.20147916397023372 -0.6003691913241245 5.000391621138287" Properties=species:S:1:pos:R:3:forces:R:3 structure_index=1 total_energy=-14.607721328735352 stress="0.01048200111836195 0.014335881918668747 0.0356600321829319 0.014335872605443 -0.026348264887928963 -0.0031360702123492956 0.03565987944602966 -0.003136224113404751 0.03883548825979233" pbc="T T T"
Li       3.18219524       2.69404349       4.77101362       0.00919901      -0.00233205      -0.01487191
Li       0.08686292      -0.10818070       1.84190146      -0.00922484       0.00211343       0.01495317
Ga       1.07142109       0.69684346       4.44376816      -0.00552205      -0.02643972       0.01114145
Ga       2.19758746       1.88877798       2.16928523       0.00556578       0.02653070      -0.01128955
Sn       4.13795505       3.45306133       7.43405271      -0.00001792       0.00012761       0.00006683
12
Lattice="4.63297728132612 0.0014936246147215148 0.002445550105291174 -0.0023286475172887714 6.412752241561187 -0.013962054735984492 0.0050650572917410345 0.01980521811207031 8.610224179877184" Properties=species:S:1:pos:R:3:forces:R:3 structure_index=2 total_energy=-36.82020568847656 stress="0.005405044183135033 3.680980080389418e-05 -0.0001564875856274739 3.683109025587328e-05 0.018699340522289276 0.000756003602873534 -0.00015653927403036505 0.0007560175727121532 0.005305185914039612" pbc="T T T"
Li       4.29458260       2.93944665       3.20613828      -0.00034558      -0.00435197      -0.00697503
Li       1.97922639       6.13701761       7.51147230      -0.00026172       0.01308106      -0.01448703
Li       1.97712890       2.93585719       6.59513473       0.00032316       0.00377062       0.00702006
Li       4.28958613       6.15059075       2.27613682       0.00031973      -0.01276434       0.01429465
Ga       1.97799790       4.73310959       4.11444800       0.00010549      -0.03521009      -0.00273780
Ga       4.29665455       4.36278812       8.42215856       0.00014993       0.03326566      -0.00686715
Ga       4.29376143       1.14140376       5.68696056      -0.00004903       0.03667200       0.00184988
Ga       1.97450279       1.51244183       1.37893873      -0.00029398      -0.03419334       0.00726924
Sn       4.29395919       4.75044282       5.65952157      -0.00006220      -0.02617878      -0.00585687
Sn       1.97780654       1.12477873       4.14160228      -0.00003329       0.02506433       0.00637323
Sn       1.97461860       4.31615695       1.35764159      -0.00008922       0.03098460      -0.01594370
Sn       4.29651252       1.55866830       8.44358775       0.00023673      -0.03013976       0.01606051
10
Lattice="3.249883068751927 -0.00037607409330735816 0.00030858551356496014 0.0003734631862959451 3.2498836125582042 -0.00012025383109620358 -0.001414582448793044 0.0007513632670538404 17.426901547900442" Properties=species:S:1:pos:R:3:forces:R:3 structure_index=3 total_energy=-29.9678897857666 stress="-0.03262469917535782 -1.8524342522141524e-05 1.5453778701157717e-07 -1.8442729924572632e-05 -0.03263607993721962 -1.0895572813751642e-05 4.365565757780132e-07 -1.0993361684086267e-05 -0.009447755292057991" pbc="T T T"
Li       2.04006925       2.75581536       9.00692226       0.00025840       0.00025830      -0.00737847
Li       2.04091011       2.75612229       2.19254243       0.00003554      -0.00004140       0.00347900
Li       2.03971078       2.75661546      15.83502051       0.00019205      -0.00010342      -0.02423282
Li       2.04056932       2.75609423       5.99162390      -0.00009786      -0.00019995       0.02665000
Li       2.04014217       2.75628463      12.83224109      -0.00016576      -0.00002630       0.00435249
Ga       0.41483653       1.13169185      14.34241948      -0.00011273      -0.00000007      -0.00179535
Ga       0.41517773       1.13118247       7.48976329       0.00006625       0.00006511       0.00014409
Sn       0.41499477       1.13120189      10.92356085      -0.00001925       0.00016825      -0.00789710
Sn       0.41588608       1.13125520       0.29388781       0.00001999      -0.00003554      -0.03753905
Sn       0.41571491       1.13139924       4.09536382      -0.00017660      -0.00008500       0.04421718
6
Lattice="4.563993691303312 -0.0010199057303426214 -0.0004283148955460884 -2.2809166984700124 3.9532435499379655 0.0007359628927748719 0.000993822213743185 -0.0012602420435041432 7.481954073652892" Properties=species:S:1:pos:R:3:forces:R:3 structure_index=4 total_energy=-18.664531707763672 stress="-0.01947193779051304 0.00042224006028845906 -3.4604239772306755e-05 0.00042222594493068755 -0.019053814932703972 -6.0324524383759126e-05 -3.4783257433446124e-05 -6.050872980267741e-05 -0.001009825267829001" pbc="T T T"
Li       0.79635910       0.21243489       2.71535040       0.00114070       0.00006961      -0.00252700
Li       0.79789083       0.21196760       6.45586714      -0.00082427       0.00035404      -0.00204353
Ga       0.79786716       2.84748513       5.69853506       0.00235934      -0.00155945      -0.02001103
Ga       3.07947344       1.52966617       1.95723838      -0.00229844       0.00023580      -0.02021964
Sn       0.79738409       2.84798751       1.03168712       0.00107128      -0.00024130       0.02392348
Sn       3.07982676       1.52919996       4.77266208      -0.00144862       0.00114126       0.02087771
10
Lattice="3.0116872373086694 -0.00010015120014145034 0.0005871903866953629 0.0002996411478584111 7.906338752028551 -0.0002306240402902473 -0.001514620265948381 6.0182858117917857e-05 7.904584967998782" Properties=species:S:1:pos:R:3:forces:R:3 structure_index=5 total_energy=-28.909061431884766 stress="-0.03680703788995743 1.1161852853547316e-05 2.646874236233998e-05 1.0983505490003154e-05 -0.037327080965042114 1.6920843336265534e-05 2.6363206416135654e-05 1.6591051462455653e-05 -0.037769317626953125" pbc="T T T"
Li       0.53019518       1.28986279       3.12175653       0.00049313       0.01736690      -0.01595854
Li       0.52975218       6.37214565       5.94784287       0.00069601      -0.01730673       0.01627116
Li       0.52976113       2.41773683       7.07612852       0.00005030      -0.01739518      -0.01874626
Li       0.53098027       5.24421995       1.99344108      -0.00032085       0.01693778       0.01831866
Ga       2.03558419       4.75960823       7.55784615      -0.00008765      -0.02226024       0.02120228
Ga       2.03592168       0.80684819       5.46454026      -0.00037227      -0.02066150      -0.02302226
Ga       2.03660878       2.90176377       1.51174889       0.00010800       0.02270243      -0.02011666
Ga       2.03632592       6.85496456       3.60618823       0.00005684       0.02104606       0.02175665
Sn       2.03647914       3.83151990       4.53521934      -0.00043279      -0.00109509      -0.00039899
Sn       2.03715736       7.78350448       0.58235448      -0.00019075       0.00066558       0.00069401
4
Lattice="4.446608303460925 -0.010175359496434612 0.01042668804735712 0.007163547768766635 4.055298702093239 0.010161342395937767 -0.01248413918184362 -0.008949818203776006 4.055168054877405" Properties=species:S:1:pos:R:3:forces:R:3 structure_index=6 total_energy=-11.800275802612305 stress="0.06904375553131104 -0.0071794805116951466 -0.00978284701704979 -0.007179433014243841 0.0088386544957757 0.011178654618561268 -0.009782799519598484 0.011178609915077686 0.008242207579314709" pbc="T T T"
Li       2.26641950       0.64291710       3.83884128       0.00016167       0.00001500      -0.00067734
Li       2.27643864       2.67524805       1.81570950      -0.00021144      -0.00042968       0.00105605
Ga       0.04977643       0.65239103       1.80603982      -0.00048039      -0.00014587      -0.00088379
Sn       0.04664383       2.67547446       3.83845400       0.00053017       0.00056056       0.00050508
19
Lattice="6.868413086009949 0.028069224956753378 -2.2276896771979717 -3.400308774752605 6.302778074880348 -2.646567547637899 -0.025985005806195026 -0.0488254963907341 7.58696853615653" Properties=species:S:1:pos:R:3:forces:R:3 structure_index=7 total_energy=-53.42616653442383 stress="0.01279541477560997 0.004087334498763084 0.004135036841034889 0.004087258130311966 0.010416487231850624 0.0018155784346163273 0.004135011229664087 0.0018155566649511456 0.0176084004342556" pbc="T T T"
Li       4.59194474       0.58648057       5.50572902       0.00797379       0.00826449       0.01139482
Li       1.47040107       1.98779946       3.40692123      -0.00496884       0.01589721      -0.01222847
Li      -0.04368450       3.88437775      -0.97865167      -0.03845112      -0.03023981       0.00109833
Li      -0.41581601       1.19370912       5.48643408      -0.00048115      -0.00608383      -0.00540072
Li      -2.33393453       5.56313076      -0.40713651       0.01249953       0.02029824       0.00583734
Li       5.49099765       0.88753474       0.59553614       0.00516062      -0.01562966       0.00429798
Li       3.20494792       2.61871810       1.06692521      -0.01327898      -0.02109004      -0.00411362
Ga       1.81405667       4.58706314      -3.18396041       0.01570613       0.01171438       0.00074582
Ga       3.74930351       0.27926399       2.77986880       0.00153018      -0.00518220      -0.01726172
Ga       3.62548086       5.13935158       2.21254999       0.01186737       0.03093254       0.02317285
Ga       4.88804648       3.32951691      -1.01344664       0.02026457      -0.01027386      -0.01012358
Ga      -0.44373714       6.15587411      -2.61890071      -0.01079784       0.02217487       0.02004651
Ga      -1.45619468       5.90445295       2.24248664       0.01960552       0.03051310       0.01627091
Ga       2.68336269       4.98448843      -0.44669769      -0.00435607       0.00058034      -0.00459348
Ga      -0.93630519       3.54707473       3.89513000      -0.01160468      -0.02051700      -0.02453613
Ga       2.32876050       2.30393594      -1.58031242      -0.02856125       0.00255496       0.01597330
Ga       0.89200803       4.34476243       1.74912431       0.01578831      -0.03947907      -0.02161691
Ga       4.13857907       2.87527434       3.79239158      -0.00231908      -0.01389566       0.01132248
Sn       0.46253001       1.57794724       0.67934646       0.00442292       0.01946099      -0.01028570
10
Lattice="3.012779687414244 9.654996129409432e-05 0.00013426187577667988 -0.000309571751686666 7.905857789712268 0.001271008267289473 -0.0004217857102692605 -0.0017794749146459504 7.906650552897709" Properties=species:S:1:pos:R:3:forces:R:3 structure_index=8 total_energy=-28.908544540405273 stress="-0.01813461445271969 2.6015886760433204e-06 -1.1040485333069228e-05 2.4012056201172527e-06 -0.017095284536480904 0.00038394011789932847 -1.11444032881991e-05 0.0003837879921775311 -0.018036598339676857" pbc="T T T"
Li       2.12394711       6.43092427       2.24486064      -0.00091001      -0.02239829       0.02320650
Li       2.12370503       1.34394849       7.32925978      -0.00064497       0.02341787      -0.02250671
Li       2.12241435       2.48232917       3.37625089       0.00186758      -0.02821041      -0.02535465
Li       2.12402000       5.29621148       6.19728846      -0.00115788       0.02746081       0.02611702
Ga       0.61703868       4.81827108       3.85882602       0.00030066      -0.01483594       0.01696999
Ga       0.61696217       0.86535104       1.76299440       0.00047858      -0.01693380      -0.01633033
Ga       0.61685673       6.91031059       7.81208778       0.00083530       0.01740798       0.01639713
Ga       0.61695432       2.95872926       5.71658167       0.00030904       0.01512316      -0.01696551
Sn       0.61721518       7.84237557       4.78728124      -0.00036447      -0.00108682      -0.00003540
Sn       0.61791156       3.88874755       0.83416000      -0.00071384       0.00005547      -0.00149797
13
Lattice="4.189940036734234 0.002126210000922796 1.2592303744677957 1.7300459453340544 7.122966282517705 1.8332453929386485 -0.05371414271901079 0.029856317488635827 7.783595854026484" Properties=species:S:1:pos:R:3:forces:R:3 structure_index=9 total_energy=-36.48904800415039 stress="0.0019033488351851702 0.0012797729577869177 0.0009824560256674886 0.0012795522343367338 0.004549139179289341 -0.0020155988167971373 0.0009821635903790593 -0.0020157399121671915 0.002306087175384164" pbc="T T T"
Li       3.37064109       6.94276007       8.72834860       0.00523529      -0.03372197      -0.02026838
Li       4.45466631       4.98625424       5.12310972      -0.00568308       0.02561937       0.01811209
Li       3.19803080       1.55004529       1.71210275       0.00139416       0.02332983      -0.00906201
Li       2.43551458       0.49369867       4.24876182      -0.00172065       0.01106921       0.00590842
Li       1.30900069       3.14261645       7.99660957       0.00675778      -0.03020093      -0.02390764
Li       2.60762103       6.88570764       3.66544140      -0.00368951       0.01222638       0.01241413
Li       3.97011465       1.50041502       6.73847304       0.00536547      -0.02374845      -0.01234973
Li       2.13593656       3.23059614       5.24152740       0.00042679       0.00214005      -0.00261225
Ga       5.10768156       6.17955074      10.54934920       0.00496328       0.01200804      -0.01327390
Ga       3.73124799       4.07953939       7.53500984      -0.00826688      -0.01305780       0.02587445
Sn       2.95471514       4.31933014       2.51072122      -0.00788394       0.01040815       0.03216464
Sn       1.77673296       5.86005004       6.43389512       0.00171318      -0.01687597      -0.00664193
Sn       0.56510211       2.32105965       2.86912279       0.00138807       0.02080414      -0.00635786
4
Lattice="4.034933439894101 -8.753802394304149e-05 2.329770510655537 1.3444151775005808 3.8043087146693 2.3312786781476627 -0.00012577074662421047 -0.00010994257979985242 4.660089558194961" Properties=species:S:1:pos:R:3:forces:R:3 structure_index=10 total_energy=-11.746513366699219 stress="0.10878806561231613 -1.8952330719912425e-05 0.0005145875038579106 -1.9071094357059337e-05 0.10835376381874084 0.0010290509089827538 0.0005146123003214598 0.0010291747748851776 0.11007491499185562" pbc="T T T"
Li       2.15059673       3.56990194       4.02992314      -0.00109507      -0.00039673      -0.00102437
Li       3.49510443       1.66708088       6.35823506       0.00041114       0.00083224       0.00109284
Ga       4.84077948       2.61856356       4.02859180      -0.00098652      -0.00007407       0.00071315
Sn       2.15012809       0.71647129       4.02866307       0.00167045      -0.00036143      -0.00078162
4
Lattice="4.440861053684889 0.00046361090453452366 -0.0002254348112561443 -0.0003511160914185896 4.060648385126928 -0.0006499773535424204 0.0002527864162862387 0.00044255945674217466 4.06061193346027" Properties=species:S:1:pos:R:3:forces:R:3 structure_index=11 total_energy=-11.800251007080078 stress="0.04704449325799942 0.00023999283439479768 0.00016035336011555046 0.00023996397794689983 0.09388890117406845 -0.0019215932115912437 0.00016031409904826432 -0.0019216634100303054 0.09370846301317215" pbc="T T T"
Li       2.78506235       2.11420164       1.10684173      -0.00033956      -0.00015133      -0.00007722
Li       2.78538022       0.08401916       3.13745304      -0.00037746       0.00002495      -0.00006528
Ga       0.56478433       2.11397300       3.13718505      -0.00008178       0.00065642      -0.00001954
Sn       0.56456152       0.08360620       1.10718360       0.00079879      -0.00053004       0.00016204
4
Lattice="4.355218413825564 0.0012213541961998175 -0.0010127658227003977 -0.0008690404623357212 4.277228468862398 -0.0003750830565300174 0.0013819715775482545 0.00041695268375626423 4.277720917594697" Properties=species:S:1:pos:R:3:forces:R:3 structure_index=12 total_energy=-12.15866756439209 stress="-0.028329426422715187 0.0016524095553904772 0.0019483648939058185 0.0016522868536412716 -0.02297041565179825 0.00012635992607101798 0.0019482066854834557 0.00012617123138625175 -0.019387856125831604" pbc="T T T"
Li       2.73029933       1.31246415       2.97813645      -0.00005195       0.00032132       0.00106165
Ga       0.55232154       3.45091939       2.97900251      -0.00056529      -0.00028276       0.00012820
Ga       0.55171253       1.31205150       0.84093349       0.00031733      -0.00047180      -0.00111659
Sn       2.72894503       3.45093425       0.83938466       0.00029991       0.00043325      -0.00007324
4
Lattice="4.0580467040899455 0.003960873618318759 -0.005775735891762443 -0.005935380538962098 4.057566518327476 -0.008253971145648029 0.006800926669260049 0.009766078206157805 4.447285708550671" Properties=species:S:1:pos:R:3:forces:R:3 structure_index=13 total_energy=-11.800249099731445 stress="0.06570761650800705 -0.018308017402887344 0.0015614766161888838 -0.018308067694306374 0.06321533024311066 0.0022806222550570965 0.0015614272560924292 0.0022805982735008 0.10221683233976364" pbc="T T T"
Li       4.01075352       1.92815361       0.18424447      -0.00035928      -0.00019013       0.00115511
Li       1.97877664       3.95482910       0.18372381      -0.00031858       0.00019364      -0.00018726
Ga       4.01078503       3.96169967       2.40451591       0.00040828       0.00024615      -0.00051243
Sn       1.98478358       1.93099814       2.41131110       0.00026958      -0.00024966      -0.00045541
4
Lattice="3.606657428281836 0.0004681868821778689 0.0005522730406771686 -0.000726556687940274 3.625229064893511 -0.0005422916286545716 -0.0005185481564012297 0.0007813828768604657 5.522762973944743" Properties=species:S:1:pos:R:3:forces:R:3 structure_index=14 total_energy=-11.123560905456543 stress="0.10154657810926437 -0.0007193033234216273 0.00034558269544504583 -0.0007192607154138386 -0.019230185076594353 -0.00026399357011541724 0.0003456865670159459 -0.00026416152832098305 0.017411651089787483" pbc="T T T"
Li       1.77169023       2.28011441       0.97417322      -0.00001349      -0.00003829       0.00100472
Ga       1.77163809       2.28095866       3.73609678      -0.00028167      -0.00066715      -0.00113235
Ga       3.57513424       0.46844569       5.11426892       0.00008242       0.00027897      -0.01555280
Ga       3.57515967       0.46790066       2.35851043       0.00021275       0.00042646       0.01568043
18
Lattice="5.265645492160168 -0.023462762544968967 0.05967896917841207 -0.05368135361142677 8.443189016454973 3.4841879627852554 -0.11183174523029349 -0.06391369835219088 7.929308620664995" Properties=species:S:1:pos:R:3:forces:R:3 structure_index=15 total_energy=-53.760047912597656 stress="-0.019885744899511337 -0.0009855407988652587 -0.0001223152648890391 -0.0009855880634859204 -0.021020282059907913 0.00037185216206125915 -0.00012221571523696184 0.0003720514359883964 -0.019674716517329216" pbc="T T T"
Li       2.81630343       3.23827320       6.29935065       0.00288529       0.01715356      -0.01214394
Li       1.91055212       5.67147568       4.60301681       0.01424364      -0.02576530       0.00611867
Li       4.48329683       1.41995379       2.89724784       0.02142888       0.00293051       0.00879782
Li       3.51524914       6.54862275      10.36498584      -0.01493333       0.00473203      -0.01381817
Li       2.77898807       6.06549115       7.56947771      -0.01042450       0.02644000       0.00232177
Li       3.60856242       0.79848391       7.94780351      -0.01516541      -0.00389954       0.02017588
Li       1.88589338       2.90306060       3.48696561      -0.00678203      -0.01695229      -0.02062801
Li       0.07984084       7.43874702       8.08898238      -0.00109223       0.03054657      -0.00502437
Li       1.85424194       8.33107363       5.79525953       0.03104391      -0.01275662       0.01626878
Ga       0.93987103       7.77836193      10.89178570       0.00055462      -0.01459444      -0.01059878
Ga       4.54349989       4.25707874       4.06284726       0.03119173      -0.01497881      -0.03401046
Ga       0.90495575       5.24777916       9.86240228      -0.01421870       0.01400787       0.00400512
Sn       0.13051643       1.86277230       5.67013509      -0.01173380       0.01279717      -0.00776627
Sn       4.46208342       7.05231209       5.21167662       0.02229093      -0.03721557       0.02185602
Sn       1.02916385       2.06237640       8.61999853      -0.01774093      -0.01433550      -0.00881332
Sn       3.51275000       3.74018219       9.23175042      -0.01820111       0.00402525      -0.02370561
Sn       2.74253049       0.36113980       5.08445973      -0.00446671       0.01194215       0.01867437
Sn       0.25336836       4.71455202       6.92798302      -0.00888017       0.01592301       0.03829052
14
Lattice="5.793083959608734 -0.0037601905062628884 0.00016000529019330925 0.004565469649379974 6.587981311038408 -3.466239565587068 -0.0007408027859378214 -0.005269085989960036 6.932404008149086" Properties=species:S:1:pos:R:3:forces:R:3 structure_index=16 total_energy=-42.02779769897461 stress="0.01703803241252899 -0.00014242839824873954 -4.0548697143094614e-05 -0.00014217266289051622 0.01640128903090954 0.0002258269814774394 -4.051340147270821e-05 0.00022557888587471098 0.014702812768518925" pbc="T T T"
Li       1.17949757       4.93085417       4.13957887       0.00088834      -0.04879540       0.00338198
Li       4.07488914       1.93783238       4.12662162       0.00028832      -0.00029796      -0.00004890
Li       4.07677866       5.53428183       0.64632533       0.00093153       0.04849850      -0.00289280
Li       1.17854360       1.93976248       4.12652413      -0.00018573      -0.00049413      -0.00016238
Li       4.07800669       4.92930435       4.14068139      -0.00109445      -0.04911210       0.00280179
Li       1.18205990       5.53616017       0.64728725      -0.00079639       0.04852187      -0.00353664
Ga       2.62549132       0.56504199       6.14804882       0.00060711      -0.01930756      -0.00219950
Ga       2.62865167       3.30530407      -0.77428413      -0.00060119       0.01772476       0.00028510
Ga       5.52491066       3.31028384       2.10541000      -0.00068847       0.01933072       0.00149211
Ga       5.52173087       0.57521265       2.09490376       0.00149375      -0.01719150       0.00027387
Sn       5.52200273       0.43047669       6.20845676      -0.00053597      -0.01310470      -0.00603416
Sn       2.62529999       0.45802121       2.03266428      -0.00046900      -0.00574561       0.00560038
Sn       5.52523513       3.42223074      -0.71175346       0.00019946       0.00672463      -0.00495199
Sn       2.62849077       3.44471220       2.04456322      -0.00003726       0.01324840       0.00599116
18
Lattice="4.783697838841737 0.0013487097238851797 0.0008664456321106899 -0.0016289583251605 5.057124187081666 1.095292480951644 -0.0027595633193451844 0.09219597778518941 13.647221901870363" Properties=species:S:1:pos:R:3:forces:R:3 structure_index=17 total_energy=-51.6093864440918 stress="0.010189857333898544 -8.965415327111259e-05 6.978127203183249e-05 -8.960811101133004e-05 0.001309107057750225 -0.004626634996384382 6.995711737545207e-05 -0.004626707173883915 0.010799861513078213" pbc="T T T"
Li       3.44880303       3.87329022      11.01141417      -0.00018474      -0.00439173      -0.02299540
Li       3.44957056       2.64407261       3.12277901      -0.00033217      -0.01150582       0.00011099
Li       3.44846879       4.41356383       8.21953201      -0.00010240      -0.00828857       0.00954522
Li       1.05713227       3.86426791       6.55675535      -0.00051219       0.00172474       0.01448416
Li       1.05772006       1.52647007       4.52963407       0.00015131       0.01094025      -0.00180558
Li       1.05789048       2.09012284       1.52180445       0.00036633      -0.01480456       0.01028264
Li       3.45027864       0.30523250       1.09427494       0.00019207      -0.00116545      -0.01443288
Li       1.05804246       0.38489469      10.28689385      -0.00044984       0.00489105       0.02244859
Li       1.05465771       4.90516613      14.17521479       0.00018029       0.00696248      -0.01035756
Li       3.44947117       2.07995229       6.12976498      -0.00036893       0.01452528      -0.00983633
Ga       1.05658960       2.55188036      12.14264082      -0.00051291      -0.00035869       0.00339019
Ga       3.44927393       1.70716381       9.15532573      -0.00004969       0.00146400      -0.00316441
Ga       1.05702701       3.23815636       9.52067060       0.00000620       0.01655335      -0.00303365
Ga       3.44869719       1.02124132      11.77679512       0.00054483      -0.01598616       0.00440811
Sn       3.44843463       4.89844794       5.21405569       0.00041234       0.00267781       0.01046410
Sn       3.44715921       3.23530447      13.88048567      -0.00007154      -0.00370533      -0.01947055
Sn       1.05753061       1.02563922       7.41773825       0.00039654       0.00430148       0.01949500
Sn       1.05694284       4.32951464       3.53261883       0.00033454      -0.00383415      -0.00953265
8
Lattice="4.557790116296016 -0.0005265091176621954 0.0004464279530698683 0.0012082288685587755 4.899641814908168 -2.825957939947268 0.00016345914672373204 0.004212139135175845 5.653389692157444" Properties=species:S:1:pos:R:3:forces:R:3 structure_index=18 total_energy=-18.98341178894043 stress="0.05294405296444893 6.562136695720255e-05 -8.562834409531206e-05 6.567274976987392e-05 -0.01742430590093136 0.0014703312190249562 -8.572079241275787e-05 0.0014698002487421036 -0.019805509597063065" pbc="T T T"
Li       3.69912546       0.89499092       4.65928742       0.00040822       0.00147797      -0.00858861
Li       1.42062693       4.09353791       1.82887413       0.00068770       0.00132304      -0.00698110
Li       3.69932428       3.24290497       3.30182104       0.00097222      -0.00461481       0.00136968
Li       3.69989809       0.89431992       1.94751447      -0.00072635       0.00052181       0.00650551
Li       1.42144774       4.09401463      -0.88264626      -0.00060727      -0.00252847       0.00771396
Li       1.42119410       1.74527535       0.47415014      -0.00099039       0.00548972      -0.00134015
Ga       1.42046624       1.68049132       3.30100369       0.00003849      -0.00055819       0.00005781
Ga       3.69998331       3.30864116       0.47479449       0.00021738      -0.00111114       0.00126290
15
Lattice="6.090242261752617 -0.0708063113461596 0.03167482497415077 0.09164818277732262 6.896091263377852 -0.211765051104654 -0.010255749792689459 -0.11451472139446002 7.0096596343664554" Properties=species:S:1:pos:R:3:forces:R:3 structure_index=19 total_energy=-44.31016159057617 stress="-7.468491094186902e-05 0.0002947047760244459 -0.00018111935060005635 0.0002947341708932072 -0.0011079548858106136 0.0007826243527233601 -0.00018109501979779452 0.0007825736538507044 0.0003348170721437782" pbc="T T T"
Li       5.40453275       0.82944141       5.08341662       0.01000817      -0.00989309       0.01241275
Li       5.50022259       4.79662800       4.41589135       0.00361057       0.01147882       0.00297067
Li       2.41648764       0.80780319       5.12600503      -0.01323757      -0.00704264      -0.00546536
Li       4.01679043       6.59860528       2.55884375       0.00402329       0.01036202      -0.00369509
Li       2.42275440       4.40823964       1.41327159       0.01862182      -0.02530161       0.03538588
Li       5.47736384       1.39652218       1.03280027      -0.00857318       0.01241488      -0.01511630
Li       2.41637290       4.81273165       4.49896612       0.00457256      -0.00152868      -0.02250716
Ga       5.55587794       4.37064379       1.47479289      -0.01105232      -0.00373753      -0.00247114
Ga       2.38926149       1.37065287       0.98348963       0.00077009       0.01598293      -0.00096025