12
Lattice="4.453712685195323 0.006026587840712512 -0.0001442716255242972 -2.2357940703852375 6.884254335995827 -0.25336890267178863 0.00014400952095712876 0.016524711901519877 6.615128559910576" Properties=species:S:1:pos:R:3:forces:R:3 structure_index=0 total_energy=-32.56683349609375 stress="-0.02824653871357441 -0.00021516610286198556 0.0004940627259202302 -0.00021519477013498545 0.024150613695383072 0.006612695287913084 0.0004939985810779035 0.006612920202314854 0.006217331159859896" pbc="T T T"
Li       3.23484059       1.13836056       2.71081956       0.00062554       0.01711249      -0.01304723
Li       1.00870631       0.92925318       1.07031445      -0.00065095      -0.01450869       0.01229834
Li       3.23204874       3.39841192       0.97928511      -0.00105233       0.01480330       0.00229595
Li       1.00507429       3.19585352       5.89721565       0.00090963      -0.01453064      -0.00189782
Li      -1.22519580       5.52104070       2.59257603      -0.00008767      -0.03198804      -0.02852367
Li      -1.22565680       5.65823391       5.80705327       0.00100350       0.01560101      -0.01451799
Li       1.00209892       5.45651184       4.16581889      -0.00065105      -0.01795947       0.01242067
Li       1.00852535       1.06785123       4.28390043      -0.00032812       0.03146122       0.02886978
Ga       1.00520963       3.13703844       2.67391287       0.00092496       0.00459087      -0.00357390
Ga       3.23190416       3.45746893       4.20145322      -0.00097680      -0.00474454       0.00555551
Sn       1.00142235       5.50937569       0.95973483       0.00104045       0.00955534       0.02024434
Sn       3.23545558       1.08537362       5.91672165      -0.00075718      -0.00939281      -0.02012399
4
Lattice="4.062223650728658 -0.0031871150850800757 0.0018815709053025544 0.003269712210796384 4.061873851062285 0.0010931927640471287 -0.0016334468151318845 -0.00095046930376525 4.433574260105309" Properties=species:S:1:pos:R:3:forces:R:3 structure_index=1 total_energy=-11.800226211547852 stress="0.09121766686439514 0.0007689997437410057 0.0013567473506554961 0.0007689896156080067 0.08948513865470886 0.0007827586377970874 0.0013566444395110011 0.0007827226654626429 -0.0320531502366066" pbc="T T T"
Li       3.14810761       2.81951454       4.16246268       0.00027022      -0.00001004      -0.00100327
Li       1.11559188       0.78967376       4.16093223      -0.00046873       0.00090145      -0.00090329
Ga       1.11794005       2.82151539       1.94452960      -0.00046551       0.00143413       0.00016711
Sn       3.14727383       0.78951816       1.94453686       0.00066403      -0.00232554       0.00173946
4
Lattice="4.744858872328358 0.0025948811678550795 -0.0005666054906033782 -0.0005197226107752187 4.741664644180247 -0.0010952818889664645 0.0010963575746189423 0.0021615340564488258 4.2730258921676265" Properties=species:S:1:pos:R:3:forces:R:3 structure_index=2 total_energy=-13.120362281799316 stress="0.03878055885434151 0.0031572235748171806 0.0027114341501146555 0.0031571516301482916 0.023436130955815315 0.005407124757766724 0.002711421577259898 0.005407144781202078 -0.0447995699942112" pbc="T T T"
Ga       3.53612370       3.41387066       2.68870123      -0.00041558       0.00002458       0.00336177
Ga       1.16218668       1.04307994       2.68967169       0.00071436      -0.00034849       0.00326317
Sn       1.16292022       3.41229994       0.55704032       0.00016754      -0.00007059      -0.00406414
Sn       3.53485145       1.04190543       0.55124204      -0.00046632       0.00039449      -0.00256080
3
Lattice="3.9337984594308497 0.0014507783037533257 2.2660276172336595 1.3095643488362039 3.707586841994782 2.268402842159412 0.0014287855920299983 0.0004531093312588291 4.539632823119668" Properties=species:S:1:pos:R:3:forces:R:3 structure_index=3 total_energy=-9.425332069396973 stress="0.06925418972969055 -0.004887050949037075 -0.008583851158618927 -0.004886995535343885 0.058883074671030045 0.0007482898072339594 -0.008583774790167809 0.0007483935332857072 0.054726492613554" pbc="T T T"
Li       2.52250096       1.29459662       5.84827643       0.00108537       0.00115111       0.00035832
Ga       3.83387756       2.22279611       3.57781248      -0.00034404      -0.00392671       0.00283040
Sn       1.21167293       3.14798775       3.58124206      -0.00074134       0.00277560      -0.00318873
10
Lattice="3.1305084612641947 -0.0009722735064449182 -5.2101417526786685e-05 0.0009642883879174671 3.130503931037852 0.00016008713776652218 5.262415086596981e-05 -0.0009068439631167035 16.955714733285653" Properties=species:S:1:pos:R:3:forces:R:3 structure_index=4 total_energy=-28.039134979248047 stress="-0.014697810634970665 -9.028268686961383e-05 -1.9157218957843725e-06 -9.030343790072948e-05 -0.014720243401825428 2.1187768197705736e-06 -1.5110708773136139e-06 2.246065150757204e-06 -0.0265768151730299" pbc="T T T"
Li       0.81842143       0.81076725       0.65347371       0.00006416       0.00011968       0.00963034
Li       0.81862376       0.80965776      14.43080264      -0.00015657       0.00021834       0.03294617
Li       0.81892372       0.81084779       7.09625401      -0.00015241      -0.00014860      -0.01060937
Li       0.81895940       0.80999479      10.26926971      -0.00005957       0.00049128      -0.02990957
Li       0.81847264       0.81108660       3.87512334       0.00026274      -0.00009741      -0.00002411
Ga       2.38447851       2.37589240       5.47204101      -0.00011481      -0.00039283       0.00344037
Ga       2.38424126       2.37455477      16.00555569       0.00012466      -0.00007068       0.04140579
Ga       2.38416920       2.37575114       2.27846031       0.00006229      -0.00011302      -0.00510543
Ga       2.38470387       2.37526883       8.69879714      -0.00008779      -0.00024546      -0.04421338
Sn       2.38447882       2.37438949      12.34874646       0.00005734       0.00023870       0.00243918
16
Lattice="4.297871937348127 -0.024688607431735992 0.007585589905200052 -2.122040070136256 4.88679196358174 0.5016832511629316 -0.02999004646661301 0.6182764685701301 15.914644512477858" Properties=species:S:1:pos:R:3:forces:R:3 structure_index=5 total_energy=-48.275856018066406 stress="0.009332863613963127 0.00030966330086812377 3.915363413398154e-05 0.0003096469445154071 0.010258912108838558 -0.00187548843678087 3.9376274798996747e-05 -0.0018758802907541394 0.01131427101790905" pbc="T T T"
Li       1.26995529       2.00144216      10.52177766       0.00043935       0.00798601       0.02192927
Li       3.41866119       1.29853998       8.62972537       0.00003883       0.02232406      -0.01942530
Li       1.29555532       3.29035441       3.54408739      -0.00076439      -0.01862697       0.00352366
Li       3.40694963       1.07604996      15.16193137      -0.00041964      -0.00329938      -0.01152306
Li       1.28246079       4.73048484      12.14364375       0.00031577      -0.00820960       0.00931619
Li       1.28303085       3.39851383       7.74459564       0.00037668       0.00576792      -0.00733286
Li       1.26535964       2.03671923      13.61729779       0.00001004      -0.01956440      -0.01913501
Li      -0.84288155       4.38141999       1.59724681      -0.00004063      -0.02372042      -0.00959907
Ga       1.27885714       0.25467332       3.86449269      -0.00016630       0.00228781       0.00964002
Ga      -0.87827770       2.60005990      12.20129940       0.00001069      -0.02791831      -0.00923624
Sn       1.29730578       2.43142900       0.48994065      -0.00099520      -0.02310301       0.02124432
Sn      -0.87247360       4.13381927      14.55319151      -0.00019677       0.01524097       0.00932753
Sn       3.43670694       1.35070018       2.30293550       0.00075116       0.00309493      -0.01970853
Sn      -0.86607356       2.52047124       5.63853110       0.00050121      -0.00425045       0.02273672
Sn      -0.86597328       4.10264449       9.83600277       0.00063549       0.02635609       0.01528616
Sn       1.26950878       0.59862974       6.66091560      -0.00049629       0.04563474      -0.01704379
4
Lattice="4.270921374704859 0.0018261331192455296 -0.00037838247354785373 -0.0043361413241036996 4.271288250642932 -0.0019355348393766247 0.00026359634114619555 0.0013644661879872008 4.36178728231029" Properties=species:S:1:pos:R:3:forces:R:3 structure_index=6 total_energy=-12.158611297607422 stress="-0.08157243579626083 -0.007631126791238785 -0.0005905205034650862 -0.007631075568497181 -0.0789484828710556 -0.002978811739012599 -0.0005905189900659025 -0.0029787502717226744 -0.028976406902074814" pbc="T T T"
Li       0.72097082       4.15948859       0.76619517      -0.00062729       0.00039122       0.00165827
Ga       0.72310540       2.02520396       2.94945188      -0.00041956      -0.00107751      -0.00229596
Ga       2.85617460       4.16083188       2.94842410       0.00041087       0.00095674      -0.00263437
Sn       2.85829472       2.02468070       0.76749600       0.00063598      -0.00027044       0.00327206
12
Lattice="3.336243115698197 -5.883574965420077e-05 -0.0006859125121197233 0.0003860463351367037 7.834913602043785 -0.04625600032583071 0.0018952116683815421 -0.24319452393319352 9.574100383738463" Properties=species:S:1:pos:R:3:forces:R:3 structure_index=7 total_energy=-36.47858810424805 stress="0.004853314720094204 2.3496997528127395e-05 2.6405441531096585e-06 2.3543063434772193e-05 0.004153034649789333 -0.00020080062677152455 2.5665992779977387e-06 -0.00020091987971682101 0.006569251883774996" pbc="T T T"
Li       0.16550906       0.93272569       8.49882233       0.00035682      -0.01625559       0.01223872
Li       0.16525659       5.03435624       0.69868381      -0.00036152      -0.02556622       0.03539054
Li       0.16487744       0.71382401       3.15841896      -0.00001258       0.03334673      -0.03477651
Li       1.83309815       5.98773186       3.62687941       0.00019188       0.00299125      -0.02972353
Li       1.83301663       2.09221961       5.54023557       0.00026363       0.01859213      -0.00656936
Ga       1.83285184       2.46881081       1.22198527      -0.00011554      -0.01844838       0.04005382
Ga       1.83362926       6.29044095       7.90709978       0.00033192      -0.00801702      -0.01991719
Ga       0.16516888       4.61460754       6.02225342       0.00023910       0.01075239       0.00853430
Sn       0.16546538       7.43906550       5.75297070      -0.00025322       0.01234665      -0.02895745
Sn       1.83428732       3.41790445       8.14345692      -0.00049279      -0.01005898       0.03599789
Sn       1.83313303       7.45915346       1.02470105      -0.00011025      -0.00605302      -0.03375182
Sn       0.16500393       3.56140895       3.36606686      -0.00003743       0.00637005       0.02148063
12
Lattice="4.914905739275626 -0.6453058503095392 -1.0888984681260807 -0.9829484467008259 4.856361269706492 -1.0954292607333456 0.24055967689126775 0.2503336259803586 9.609855915398805" Properties=species:S:1:pos:R:3:forces:R:3 structure_index=8 total_energy=-34.44777297973633 stress="0.01911018416285515 0.005364696960896254 0.007210840005427599 0.005364777520298958 0.005798527039587498 -0.005282681901007891 0.007210721727460623 -0.005282622762024403 0.02814418636262417" pbc="T T T"
Li       0.88153696       1.19725679       2.09891465       0.00060012       0.00075131      -0.00028690
Li       0.03248809       3.23839662       0.17252638      -0.00702402      -0.00304973      -0.02338850
Li       0.74907450       4.01270970       2.92970811       0.00469254       0.00473152       0.02341104
Li       3.69368055       1.25695152       2.93533655       0.00633389       0.00712261       0.02252175
Li       2.98361328       0.49683405       0.17239051      -0.00627278      -0.00748163      -0.02209716
Li       2.36625660       2.79858737       7.85249984      -0.00059256      -0.00625647      -0.00382312
Li       3.56894285       4.06207190       3.76956340       0.00031283       0.00384875       0.00512480
Ga       2.48310639      -0.04200097       6.90072946      -0.00166779      -0.00333107       0.00140697
Ga       4.43358591       2.04158086       5.81868797       0.00249386       0.00501679      -0.00256316
Sn       1.61573236       2.00232465       4.96894002       0.00027621      -0.00328871       0.00042052
Sn       0.38721825       0.64301087       8.83876360       0.00139803       0.00446927      -0.00060102
Sn       2.84781163       3.30535384       1.00618325      -0.00055035      -0.00253263      -0.00012519
8
Lattice="3.069439736592239 0.0004399624745374169 -4.2033541872026656e-06 -0.001518404710314701 7.75416888495655 -2.539717275655829 0.0005755014431847998 -0.5507849624174774 8.141251656571022" Properties=species:S:1:pos:R:3:forces:R:3 structure_index=9 total_energy=-25.83120346069336 stress="-0.012608218938112259 0.000436326110502705 -0.00044164140126667917 0.00043627945706248283 -0.030082592740654945 0.007016980089247227 -0.00044163846177980304 0.00701700197532773 -0.03364347666501999" pbc="T T T"
Li       0.28082291       2.05968914       5.72295918       0.00009372       0.00121813      -0.00039294
Li       0.28041253       6.21502497       0.38008427      -0.00040390      -0.00002274       0.00027351
Ga       1.81596618       0.53597933       0.25189480      -0.00008293       0.00003264      -0.00069891
Ga       1.81446947       4.13914560       3.04967837       0.00018569      -0.00035256       0.00042203
Sn       1.81324332       7.05401000       3.01821587       0.00125902       0.00902020      -0.01202129
Sn       1.81611973       4.82366484       5.88457840      -0.00071999      -0.00927909       0.01223157
Sn       1.81550997       3.45199424       0.21614593      -0.00012638       0.00943813      -0.01104578
Sn       1.81581956       1.22361959       3.08559554      -0.00020522      -0.01005468       0.01123179
14
Lattice="4.240865116366282 0.008079626605510063 -0.8514802048732484 -0.1820526213412549 5.853230196576039 -0.850923934974114 -0.05893448934629677 -0.1509295703769763 10.692823023399603" Properties=species:S:1:pos:R:3:forces:R:3 structure_index=10 total_energy=-41.56622314453125 stress="0.028904056176543236 0.0004212703788653016 2.2336491383612156e-05 0.00042135355761274695 0.01350485347211361 0.0013349965447559953 2.2380480004358105e-05 0.0013348852517083287 0.029421769082546234" pbc="T T T"
Li       1.19885932       5.15011728       7.16551538      -0.00117767       0.00650645      -0.00661261
Li       2.50083516       3.16017637       2.64152258       0.00248475      -0.02287458       0.01450511
Li       0.15080282       1.51371266       1.90817103       0.00026112       0.00482695       0.00081019
Li       1.83434872       5.64619908      -0.65431597      -0.00268489       0.00689505      -0.01018620
Li       0.64688230       4.84150269       4.41283143       0.00142057      -0.01677117       0.00478593
Li       0.74573321       1.90395175       4.87709638       0.00013348      -0.01915318      -0.00200388
Li       1.30356420       2.26859433       7.65986102       0.00088872       0.00798230       0.00404326
Ga       3.18134909       0.60787556       6.00927929      -0.00089223      -0.00002438      -0.00460144
Ga       1.93238617       2.71233398      -0.19384214       0.00231468       0.01712441       0.01606517
Ga       3.65779104       3.89644825       8.41399229       0.00090799       0.01135813       0.00303217
Sn       3.08751708       3.52627695       5.56850948       0.00037018      -0.00729001       0.00542668
Sn       2.60929866       0.31742369       3.15440026      -0.00329479      -0.01011151      -0.01179998
Sn       0.05777592       4.39554838       1.47373743      -0.00144183      -0.00018502      -0.01246907
Sn       3.75201178       0.95622146       8.85555633       0.00070996       0.02171654      -0.00099534
16
Lattice="5.044709147148242 0.007688977065544278 -0.09112593064783621 0.015803736073942757 5.818462741120339 -0.04104488973033703 -0.07270986412131132 -0.02179420413577126 9.73230573936847" Properties=species:S:1:pos:R:3:forces:R:3 structure_index=11 total_energy=-45.01311111450195 stress="0.005340164992958307 -0.0005139918066561222 0.0012766375439241529 -0.0005139542045071721 0.002591825556010008 0.0007495059981010854 0.0012764872517436743 0.0007493931334465742 0.00971825048327446" pbc="T T T"
Li       3.93483111       1.63430092       4.85314966       0.01657299       0.00345861      -0.00834196
Li       4.57964616       0.10389528       7.44165596      -0.00413382      -0.01406759       0.00006536
Li       1.45221620       0.12238225       5.06136359       0.01092942       0.01073816       0.00731134
Li       2.20224323       4.46360042       2.54381669       0.00192810       0.00047985      -0.01451749
Li       2.08674458       1.67128759       7.50434145      -0.01127423      -0.01481269       0.00500819
Li       4.64983356       0.11806589       2.46003961      -0.01243216       0.03213796      -0.01412987
Li       1.43432003       0.14278543       0.13866954      -0.01205470       0.01030178       0.02434255
Ga       1.48914588       3.18837107       5.03229398       0.01984215      -0.00875045       0.03101134
Ga       3.96207153       4.57027874       0.15676267       0.01667912      -0.01128206      -0.00157468
Ga       4.69738870       3.12835565       2.46105219      -0.01778600      -0.00484263      -0.02752868
Ga       2.11539404       4.66341247       7.45143234      -0.00786750      -0.01814474       0.02052328
Ga       1.51282183       3.11280331       0.10498697      -0.00084402       0.01561183      -0.00244372
Ga       3.96687620       1.59047837       0.08788872      -0.00348285       0.01256306       0.00193795
Ga       3.97488790       4.60038292       4.80438913       0.03993059      -0.02422582      -0.01624904
Sn       4.60825572       3.06479540       7.32710090      -0.02962446      -0.02647281      -0.02298263
Sn       2.11078849       1.51935912       2.60042383      -0.00638264       0.03730754       0.01756806
11
Lattice="3.066055930225746 -0.00023806654877861158 0.0009760242015527371 0.0007703046982301389 8.016306772243905 -0.4906263095813922 -0.0029954329723594453 0.10058790725702763 9.547517892782876" Properties=species:S:1:pos:R:3:forces:R:3 structure_index=12 total_energy=-35.19327163696289 stress="0.015365377999842167 1.3878366189601365e-06 8.651737744003185e-07 1.3590027947429917e-06 0.007006592117249966 -0.0001789038215065375 9.017919637699379e-07 -0.0001788631489034742 0.0051302723586559296" pbc="T T T"
Li       0.90100540       2.64395643       5.03850919      -0.00004653       0.03201259       0.00880302
Li       0.89977620       2.23561837       9.19171525      -0.00013092      -0.04205764       0.01535319
Li       0.90096294       6.82597624       6.24358615      -0.00006950      -0.03084409      -0.00898275
Li       0.90199533       7.23672286       2.08949024       0.00021486       0.04192646      -0.01428372
Ga       2.43345457       1.31222822       7.05169548      -0.00016513      -0.01387289       0.00238011
Ga       2.43375334       0.14220687       4.72164430       0.00010091       0.01317318      -0.00240048
Sn       2.43443487       5.15447113       3.98825114       0.00003531       0.02247227      -0.02917685
Sn       2.43469288       1.92620232       2.35834777       0.00005582       0.03918791       0.01591908
Sn       2.43347680       4.31590361       7.29422124      -0.00004392      -0.02099280       0.03101251
Sn       2.43314488       7.54601907       8.92468055       0.00001093      -0.04088628      -0.01667736
Sn       2.43541201       4.68573180       0.86782148       0.00003814      -0.00011872      -0.00194678
12
Lattice="4.844843938349193 -0.3475155142001071 -1.849489956805515 -2.4723086705103174 5.098005190336271 -1.085043406493554 0.5948313667881525 0.22049689411471063 10.0910429345065" Properties=species:S:1:pos:R:3:forces:R:3 structure_index=13 total_energy=-36.83132553100586 stress="-0.005772193893790245 -0.002091986360028386 0.0020116912201046944 -0.0020918326918035746 -0.0013474097941070795 -0.000666502513922751 0.002011633478105068 -0.0006662696832790971 0.003857293399050832" pbc="T T T"
Li       4.35765914       1.38573519       7.44934512      -0.01978102      -0.00387485       0.01886119
Li       2.82309415       3.82561117       1.85996789      -0.01926016      -0.00390996       0.02006348
Li       1.33550260       1.97229193       4.03856124       0.01894280       0.00466870      -0.01956278
Li      -0.19715686       4.41052074      -1.54929517       0.01869221       0.00466926      -0.01898989
Ga      -0.55772587       2.93748843       6.22050547       0.03965156      -0.00674904      -0.01403433
Ga      -0.12723387       3.20750747       1.52828701      -0.04032656       0.00704700       0.01338171
Ga       0.38019790       0.27780739       1.71727875       0.04113064      -0.00588740      -0.01282740
Ga       1.40561686       0.76948115       7.11672128      -0.03989257       0.00528807       0.01242500
Sn       3.32242605       0.89502279       1.96371450       0.04461467       0.02284536      -0.01531226
Sn       1.77556809       2.24372878      -0.56719944      -0.04489071      -0.02487418       0.01422062
Sn       2.38444403       3.55321589       6.46563684       0.04511090       0.02525690      -0.01352238
Sn       0.83578098       4.90328760       3.93592838      -0.04399177      -0.02447985       0.01529702
7
Lattice="4.358609544534739 -0.0054887920634910286 1.4161709204801864 1.952945010547554 3.895586446903785 1.4202206405181688 -0.22092939511482687 -0.14345619895015269 8.094827956513098" Properties=species:S:1:pos:R:3:forces:R:3 structure_index=14 total_energy=-20.915027618408203 stress="0.02029525861144066 -0.0008934379438869655 0.003134138649329543 -0.0008935439982451499 0.021913276985287666 0.0030087167397141457 0.0031339123379439116 0.0030089032370597124 0.0114755779504776" pbc="T T T"
Li       2.15478655       2.28347095       9.13278932      -0.00004491      -0.00001519       0.00003880
Li       2.99224252       0.10993340       6.54715319       0.00111066       0.00053714      -0.00364608
Li       3.94409667       0.69952099       3.61954673      -0.00126167      -0.00064445       0.00378245
Ga       3.33041122       3.01193906       5.51766281       0.01400866       0.00781113      -0.04242329
Ga       1.20026138       1.69859098       4.65336803      -0.01398084      -0.00779540       0.04218312
Sn       4.68873100       1.15427580       8.74498619      -0.00429531      -0.00253279       0.01328993
Sn       4.20034516       3.55062004       2.84204129       0.00446341       0.00263957      -0.01322489
4
Lattice="4.277393397635524 -0.000315950543455079 0.002147405362234606 0.001109638730011907 4.277713024555756 0.0014119348673499576 -0.001120300262672524 -0.000735166997472994 4.362789764430028" Properties=species:S:1:pos:R:3:forces:R:3 structure_index=15 total_energy=-12.158641815185547 stress="0.03834618255496025 0.0023779552429914474 0.005196778569370508 0.0023780346382409334 0.04063758626580238 0.0034230502787977457 0.005196806974709034 0.0034229906741529703 0.08960895985364914" pbc="T T T"
Li       3.91069536       1.48736713       1.02966271      -0.00024232      -0.00022782       0.00014175
Ga       1.77132752       1.48689769       3.21030374       0.00029729       0.00027450      -0.00034800
Ga       3.91086720       3.62553577       3.21181611      -0.00066844       0.00022660       0.00032300
Sn       1.77244280       3.62633961       1.02954673       0.00061346      -0.00027329      -0.00011675
9
Lattice="3.756730251312966 -0.002042725237273349 1.284414681226071 1.9387321892783382 6.267500751526181 0.48018047125386754 -0.14963457709395478 0.015528486952001246 6.5787701045054465" Properties=species:S:1:pos:R:3:forces:R:3 structure_index=16 total_energy=-24.86989974975586 stress="0.00909134466201067 -0.0002237097651232034 -0.0017476623179391026 -0.0002237116714240983 0.024072781205177307 0.01976599544286728 -0.00174739770591259 0.019766243174672127 0.03351905196905136" pbc="T T T"
Li       1.78798818       0.47888488       1.89792593       0.00090246       0.00722721      -0.00203728
Li       1.11633207       2.46763613       3.86944736      -0.00418056      -0.01997622       0.01174898
Li       1.85368524       4.67540156       1.71540945       0.00652704       0.01149323      -0.01824859
Li       3.00108781       4.72656856       4.49752238      -0.00158585       0.00764970       0.00656396
Li       2.32495888       2.54908667       6.47233940      -0.00240009      -0.00156234       0.00648318
Ga       2.96243931       0.42228607       4.60171268      -0.00262955      -0.00811167       0.00539739
Ga       4.24425005       4.72277895       6.99950513       0.00226425       0.00697169      -0.00735916
Ga       0.44392346       0.43434979       5.83196793       0.00155323      -0.00331614      -0.00286257
Sn       3.66883424       2.59478037       2.53835707      -0.00045089      -0.00037543       0.00031403
8
Lattice="5.090734681227276 0.0936622084201308 -2.8945330354255128 -1.6123266169689785 4.832803463567189 -2.889927941016596 0.0185122648747889 0.020211992755918763 5.79152460483811" Properties=species:S:1:pos:R:3:forces:R:3 structure_index=17 total_energy=-22.8903751373291 stress="0.023044267669320107 -0.0007754504913464189 9.671280713519081e-05 -0.0007751878001727164 0.025221968069672585 -0.001100547960959375 9.676747140474617e-05 -0.0011006928980350494 0.02198593132197857" pbc="T T T"
Li       2.82639206       0.95654848       2.12267296      -0.00093511       0.00066220       0.00132104
Li       0.27195411       0.89704963       0.67319702      -0.00213281       0.00159571      -0.00138840
Li      -0.52688146       3.32337912       2.12354291      -0.00048952       0.00325271      -0.00122995
Ga       2.00738635       3.36119622      -2.22073301       0.00588651       0.00349605      -0.00011598
Ga       2.02125683       3.37412029       0.67964947      -0.00095641      -0.00005857      -0.00182474
Ga       2.81238304       0.95054612      -0.77337294       0.00155715      -0.00463335      -0.00196787
Ga      -0.52778481       3.31574008      -0.77145715      -0.00730861      -0.00293909       0.00067204
Sn       0.27664616       0.90616479       3.56679986       0.00437883      -0.00137571       0.00453386
2
Lattice="3.40680601088178 0.0008991171669044259 -0.0019461376586119396 -0.001723744635666931 3.409377012865702 -0.0013695153425354585 0.0009994057653387968 0.0006861773031199467 3.4110498213105545" Properties=species:S:1:pos:R:3:forces:R:3 structure_index=18 total_energy=-6.38481330871582 stress="-0.11511009186506271 -0.00652266014367342 -0.007402127608656883 -0.006522558629512787 -0.10519717633724213 -0.0052525983192026615 -0.007402032148092985 -0.005252753384411335 -0.0988490954041481" pbc="T T T"
Li       3.08907852       2.28264180       2.40133221      -0.00130387      -0.00054772      -0.00036278
Sn       1.38535998       0.57687579       0.69727687       0.00130387       0.00054771       0.00036277
14
Lattice="4.074371651276688 0.0015724308315499549 0.0011990488281129206 -2.038463191457241 4.601216727359952 -0.5826837850637874 -0.004629590559406899 -0.1154024192883916 13.357906929895398" Properties=species:S:1:pos:R:3:forces:R:3 structure_index=19 total_energy=-40.02970886230469 stress="-0.025863241404294968 0.0012544244527816772 -0.0012313391780480742 0.0012543387711048126 -0.017862685024738312 0.0010310696670785546 -0.00123137969058007 0.001031155581586063 -0.024632327258586884" pbc="T T T"
Li       2.00519521       3.48272452       6.16907302      -0.00135143       0.00043009      -0.00485592
Li       2.00592453       2.21541647       3.21439968       0.00027360       0.01392375       0.02235132
Li       2.00153563       3.44585274      12.82454404       0.00000998       0.02671427       0.00041007
Li      -0.03515632       1.51581660      12.06188652       0.00021779      -0.04084806       0.00097574
Li      -0.03042816       0.20308794       2.54975875       0.00016182       0.00033839       0.00939614
Li       2.00221784       2.23363631       9.92572688       0.00096296      -0.02027949       0.00568388
Ga      -0.03354425       2.82261125       8.01692550       0.00021011      -0.02631325      -0.01673801
Ga       2.00458281       0.81632234       7.40263280       0.00035578       0.00985404      -0.03393329
Ga      -0.03073007       2.86053431       1.31980826      -0.00102325       0.00607636      -0.00039824
Ga       2.00681908       0.98753231       0.77478524       0.00034480       0.00027363      -0.04512466
Ga      -0.03161655       4.05312129       3.85967134      -0.00106367       0.02081292       0.02514520
Ga      -0.03326290       0.27213257       9.26649553      -0.00054037      -0.01844452       0.02442602
Sn      -0.03563647       4.17603698      10.77138417       0.00073337       0.02898769       0.00281103
Sn      -0.03174090       1.43854521       5.24425828       0.00070851      -0.00152583       0.00985075
9
Lattice="4.912689016093875 0.02791517924711006 0.002837562306637293 -2.4348110972645975 4.262907851462817 -0.003587691452403271 0.010553442329301735 -0.002761120765922406 8.790910708424901" Properties=species:S:1:pos:R:3:forces:R:3 structure_index=20 total_energy=-27.634660720825195 stress="0.01457727700471878 0.00032987748272717 -0.0004053928714711219 0.00032965317950583994 0.015316139906644821 0.00020389733253978193 -0.00040543731302022934 0.0002038755192188546 0.034598980098962784" pbc="T T T"
Li       4.78268911       0.15020694       8.53673240      -0.00285579       0.00123586       0.01810963
Li       4.78138109       0.15005478       5.62767445       0.00047071      -0.00022399      -0.00878055
Li       4.76730350       0.15643495       2.71646870       0.00365572      -0.00198010      -0.03156792