# Thermal properties / unit cell (natom)

unit:
  temperature:   K
  free_energy:   kJ/mol
  entropy:       J/K/mol
  heat_capacity: J/K/mol

natom: 4    
cutoff_frequency: 0.00000
num_modes: 159936
num_integrated_modes: 155331

zero_point_energy:      15.3589323

thermal_properties:
- temperature:         0.0000000
  free_energy:        15.3589323
  entropy:             0.0000000
  heat_capacity:       0.0000000
  energy:             15.3589323

- temperature:        10.0000000
  free_energy:        15.3553397
  entropy:             1.0688257
  heat_capacity:       2.1532000
  energy:             15.3660280

- temperature:        20.0000000
  free_energy:        15.3303380
  entropy:             4.2384955
  heat_capacity:       7.9252449
  energy:             15.4151079

- temperature:        30.0000000
  free_energy:        15.2670107
  entropy:             8.4919007
  heat_capacity:      13.1229732
  energy:             15.5217677

- temperature:        40.0000000
  free_energy:        15.1603194
  entropy:            12.8302938
  heat_capacity:      17.1441284
  energy:             15.6735312

- temperature:        50.0000000
  free_energy:        15.0107168
  entropy:            17.0819329
  heat_capacity:      21.1839186
  energy:             15.8648135

- temperature:        60.0000000
  free_energy:        14.8186526
  entropy:            21.3408701
  heat_capacity:      25.7726679
  energy:             16.0991048

- temperature:        70.0000000
  free_energy:        14.5835895
  entropy:            25.6906545
  heat_capacity:      30.8556605
  energy:             16.3819353

- temperature:        80.0000000
  free_energy:        14.3044478
  entropy:            30.1565400
  heat_capacity:      36.1650612
  energy:             16.7169710

- temperature:        90.0000000
  free_energy:        13.9801255
  entropy:            34.7217730
  heat_capacity:      41.4317203
  energy:             17.1050850

- temperature:       100.0000000
  free_energy:        13.6098020
  entropy:            39.3499990
  heat_capacity:      46.4600739
  energy:             17.5448019

- temperature:       110.0000000
  free_energy:        13.1930519
  entropy:            44.0004438
  heat_capacity:      51.1347812
  energy:             18.0331007

- temperature:       120.0000000
  free_energy:        12.7298442
  entropy:            48.6357927
  heat_capacity:      55.4034203
  energy:             18.5661393

- temperature:       130.0000000
  free_energy:        12.2204896
  entropy:            53.2253017
  heat_capacity:      59.2558091
  energy:             19.1397788

- temperature:       140.0000000
  free_energy:        11.6655705
  entropy:            57.7453330
  heat_capacity:      62.7071061
  energy:             19.7499171

- temperature:       150.0000000
  free_energy:        11.0658724
  entropy:            62.1787093
  heat_capacity:      65.7859365
  energy:             20.3926788

- temperature:       160.0000000
  free_energy:        10.4223249
  entropy:            66.5136508
  heat_capacity:      68.5267572
  energy:             21.0645090

- temperature:       170.0000000
  free_energy:         9.7359528
  entropy:            70.7426682
  heat_capacity:      70.9652728
  energy:             21.7622064

- temperature:       180.0000000
  free_energy:         9.0078388
  entropy:            74.8615716
  heat_capacity:      73.1358745
  energy:             22.4829217

- temperature:       190.0000000
  free_energy:         8.2390944
  entropy:            78.8686463
  heat_capacity:      75.0703472
  energy:             23.2241372

- temperature:       200.0000000
  free_energy:         7.4308385
  entropy:            82.7639947
  heat_capacity:      76.7973386
  energy:             23.9836374

- temperature:       210.0000000
  free_energy:         6.5841823
  entropy:            86.5490243
  heat_capacity:      78.3422654
  energy:             24.7594774

- temperature:       220.0000000
  free_energy:         5.7002180
  entropy:            90.2260570
  heat_capacity:      79.7274532
  energy:             25.5499506

- temperature:       230.0000000
  free_energy:         4.7800114
  entropy:            93.7980342
  heat_capacity:      80.9723922
  energy:             26.3535593

- temperature:       240.0000000
  free_energy:         3.8245964
  entropy:            97.2682969
  heat_capacity:      82.0940351
  energy:             27.1689877

- temperature:       250.0000000
  free_energy:         2.8349726
  entropy:           100.6404226
  heat_capacity:      83.1071009
  energy:             27.9950783

- temperature:       260.0000000
  free_energy:         1.8121028
  entropy:           103.9181067
  heat_capacity:      84.0243610
  energy:             28.8308105

- temperature:       270.0000000
  free_energy:         0.7569128
  entropy:           107.1050755
  heat_capacity:      84.8569007
  energy:             29.6752832

- temperature:       280.0000000
  free_energy:        -0.3297087
  entropy:           110.2050252
  heat_capacity:      85.6143504
  energy:             30.5276984

- temperature:       290.0000000
  free_energy:        -1.4469097
  entropy:           113.2215782
  heat_capacity:      86.3050883
  energy:             31.3873480

- temperature:       300.0000000
  free_energy:        -2.5938740
  entropy:           116.1582540
  heat_capacity:      86.9364161
  energy:             32.2536022

- temperature:       310.0000000
  free_energy:        -3.7698199
  entropy:           119.0184499
  heat_capacity:      87.5147090
  energy:             33.1258996

- temperature:       320.0000000
  free_energy:        -4.9739989
  entropy:           121.8054289
  heat_capacity:      88.0455457
  energy:             34.0037383

- temperature:       330.0000000
  free_energy:        -6.2056948
  entropy:           124.5223137
  heat_capacity:      88.5338182
  energy:             34.8866687

- temperature:       340.0000000
  free_energy:        -7.4642215
  entropy:           127.1720844
  heat_capacity:      88.9838262
  energy:             35.7742872

- temperature:       350.0000000
  free_energy:        -8.7489222
  entropy:           129.7575789
  heat_capacity:      89.3993575
  energy:             36.6662304

- temperature:       360.0000000
  free_energy:       -10.0591678
  entropy:           132.2814957
  heat_capacity:      89.7837566
  energy:             37.5621706

- temperature:       370.0000000
  free_energy:       -11.3943555
  entropy:           134.7463975
  heat_capacity:      90.1399834
  energy:             38.4618116

- temperature:       380.0000000
  free_energy:       -12.7539072
  entropy:           137.1547167
  heat_capacity:      90.4706633
  energy:             39.3648851

- temperature:       390.0000000
  free_energy:       -14.1372689
  entropy:           139.5087601
  heat_capacity:      90.7781303
  energy:             40.2711475

- temperature:       400.0000000
  free_energy:       -15.5439088
  entropy:           141.8107153
  heat_capacity:      91.0644640
  energy:             41.1803773

- temperature:       410.0000000
  free_energy:       -16.9733165
  entropy:           144.0626563
  heat_capacity:      91.3315210
  energy:             42.0923726

- temperature:       420.0000000
  free_energy:       -18.4250018
  entropy:           146.2665495
  heat_capacity:      91.5809626
  energy:             43.0069490

- temperature:       430.0000000
  free_energy:       -19.8984935
  entropy:           148.4242597
  heat_capacity:      91.8142783
  energy:             43.9239381

- temperature:       440.0000000
  free_energy:       -21.3933389
  entropy:           150.5375551
  heat_capacity:      92.0328063
  energy:             44.8431853

- temperature:       450.0000000
  free_energy:       -22.9091022
  entropy:           152.6081137
  heat_capacity:      92.2377511
  energy:             45.7645490

- temperature:       460.0000000
  free_energy:       -24.4453641
  entropy:           154.6375277
  heat_capacity:      92.4301991
  energy:             46.6878987

- temperature:       470.0000000
  free_energy:       -26.0017207
  entropy:           156.6273090
  heat_capacity:      92.6111317
  energy:             47.6131146

- temperature:       480.0000000
  free_energy:       -27.5777829
  entropy:           158.5788934
  heat_capacity:      92.7814374
  energy:             48.5400859

- temperature:       490.0000000
  free_energy:       -29.1731758
  entropy:           160.4936456
  heat_capacity:      92.9419218
  energy:             49.4687106

- temperature:       500.0000000
  free_energy:       -30.7875374
  entropy:           162.3728629
  heat_capacity:      93.0933164
  energy:             50.3988941

- temperature:       510.0000000
  free_energy:       -32.4205187
  entropy:           164.2177795
  heat_capacity:      93.2362870
  energy:             51.3305488

- temperature:       520.0000000
  free_energy:       -34.0717826
  entropy:           166.0295699
  heat_capacity:      93.3714400
  energy:             52.2635938

- temperature:       530.0000000
  free_energy:       -35.7410034
  entropy:           167.8093525
  heat_capacity:      93.4993291
  energy:             53.1979534

- temperature:       540.0000000
  free_energy:       -37.4278665
  entropy:           169.5581931
  heat_capacity:      93.6204601
  energy:             54.1335578

- temperature:       550.0000000
  free_energy:       -39.1320675
  entropy:           171.2771076
  heat_capacity:      93.7352963
  energy:             55.0703417

- temperature:       560.0000000
  free_energy:       -40.8533121
  entropy:           172.9670648
  heat_capacity:      93.8442620
  energy:             56.0082442

- temperature:       570.0000000
  free_energy:       -42.5913154
  entropy:           174.6289895
  heat_capacity:      93.9477472
  energy:             56.9472086

- temperature:       580.0000000
  free_energy:       -44.3458014
  entropy:           176.2637646
  heat_capacity:      94.0461098
  energy:             57.8871820

- temperature:       590.0000000
  free_energy:       -46.1165030
  entropy:           177.8722336
  heat_capacity:      94.1396796
  energy:             58.8281149

- temperature:       600.0000000
  free_energy:       -47.9031611
  entropy:           179.4552029
  heat_capacity:      94.2287604
  energy:             59.7699607

- temperature:       610.0000000
  free_energy:       -49.7055246
  entropy:           181.0134437
  heat_capacity:      94.3136324
  energy:             60.7126760

- temperature:       620.0000000
  free_energy:       -51.5233500
  entropy:           182.5476938
  heat_capacity:      94.3945547
  energy:             61.6562202

- temperature:       630.0000000
  free_energy:       -53.3564009
  entropy:           184.0586598
  heat_capacity:      94.4717667
  energy:             62.6005548

- temperature:       640.0000000
  free_energy:       -55.2044478
  entropy:           185.5470183
  heat_capacity:      94.5454902
  energy:             63.5456439

- temperature:       650.0000000
  free_energy:       -57.0672681
  entropy:           187.0134180
  heat_capacity:      94.6159307
  energy:             64.4914536

- temperature:       660.0000000
  free_energy:       -58.9446451
  entropy:           188.4584807
  heat_capacity:      94.6832790
  energy:             65.4379522

- temperature:       670.0000000
  free_energy:       -60.8363685
  entropy:           189.8828030
  heat_capacity:      94.7477121
  energy:             66.3851095

- temperature:       680.0000000
  free_energy:       -62.7422339
  entropy:           191.2869576
  heat_capacity:      94.8093950
  energy:             67.3328973

- temperature:       690.0000000
  free_energy:       -64.6620423
  entropy:           192.6714943
  heat_capacity:      94.8684809
  energy:             68.2812887

- temperature:       700.0000000
  free_energy:       -66.5956002
  entropy:           194.0369412
  heat_capacity:      94.9251127
  energy:             69.2302587

- temperature:       710.0000000
  free_energy:       -68.5427192
  entropy:           195.3838063
  heat_capacity:      94.9794237
  energy:             70.1797833

- temperature:       720.0000000
  free_energy:       -70.5032160
  entropy:           196.7125775
  heat_capacity:      95.0315382
  energy:             71.1298398

- temperature:       730.0000000
  free_energy:       -72.4769120
  entropy:           198.0237248
  heat_capacity:      95.0815724
  energy:             72.0804071

- temperature:       740.0000000
  free_energy:       -74.4636332
  entropy:           199.3177000
  heat_capacity:      95.1296351
  energy:             73.0314647

- temperature:       750.0000000
  free_energy:       -76.4632102
  entropy:           200.5949383
  heat_capacity:      95.1758278
  energy:             73.9829936

- temperature:       760.0000000
  free_energy:       -78.4754776
  entropy:           201.8558592
  heat_capacity:      95.2202459
  energy:             74.9349754

- temperature:       770.0000000
  free_energy:       -80.5002743
  entropy:           203.1008665
  heat_capacity:      95.2629787
  energy:             75.8873929

- temperature:       780.0000000
  free_energy:       -82.5374432
  entropy:           204.3303497
  heat_capacity:      95.3041099
  energy:             76.8402296

- temperature:       790.0000000
  free_energy:       -84.5868308
  entropy:           205.5446846
  heat_capacity:      95.3437182
  energy:             77.7934700

- temperature:       800.0000000
  free_energy:       -86.6482876
  entropy:           206.7442334
  heat_capacity:      95.3818776
  energy:             78.7470991

- temperature:       810.0000000
  free_energy:       -88.7216674
  entropy:           207.9293461
  heat_capacity:      95.4186575
  energy:             79.7011029

- temperature:       820.0000000
  free_energy:       -90.8068275
  entropy:           209.1003603
  heat_capacity:      95.4541233
  energy:             80.6554679

- temperature:       830.0000000
  free_energy:       -92.9036287
  entropy:           210.2576023
  heat_capacity:      95.4883366
  energy:             81.6101812

- temperature:       840.0000000
  free_energy:       -95.0119347
  entropy:           211.4013874
  heat_capacity:      95.5213555
  energy:             82.5652307

- temperature:       850.0000000
  free_energy:       -97.1316126
  entropy:           212.5320202
  heat_capacity:      95.5532347
  energy:             83.5206045

- temperature:       860.0000000
  free_energy:       -99.2625323
  entropy:           213.6497953
  heat_capacity:      95.5840259
  energy:             84.4762917

- temperature:       870.0000000
  free_energy:      -101.4045666
  entropy:           214.7549979
  heat_capacity:      95.6137778
  energy:             85.4322816

- temperature:       880.0000000
  free_energy:      -103.5575912
  entropy:           215.8479037
  heat_capacity:      95.6425364
  energy:             86.3885640

- temperature:       890.0000000
  free_energy:      -105.7214846
  entropy:           216.9287795
  heat_capacity:      95.6703454
  energy:             87.3451292

- temperature:       900.0000000
  free_energy:      -107.8961276
  entropy:           217.9978838
  heat_capacity:      95.6972459
  energy:             88.3019679

- temperature:       910.0000000
  free_energy:      -110.0814038
  entropy:           219.0554671
  heat_capacity:      95.7232770
  energy:             89.2590712

- temperature:       920.0000000
  free_energy:      -112.2771993
  entropy:           220.1017717
  heat_capacity:      95.7484756
  energy:             90.2164306

- temperature:       930.0000000
  free_energy:      -114.4834025
  entropy:           221.1370328
  heat_capacity:      95.7728767
  energy:             91.1740380

- temperature:       940.0000000
  free_energy:      -116.6999039
  entropy:           222.1614782
  heat_capacity:      95.7965134
  energy:             92.1318856

- temperature:       950.0000000
  free_energy:      -118.9265967
  entropy:           223.1753290
  heat_capacity:      95.8194173
  energy:             93.0899659

- temperature:       960.0000000
  free_energy:      -121.1633759
  entropy:           224.1787995
  heat_capacity:      95.8416183
  energy:             94.0482716

- temperature:       970.0000000
  free_energy:      -123.4101388
  entropy:           225.1720977
  heat_capacity:      95.8631447
  energy:             95.0067960

- temperature:       980.0000000
  free_energy:      -125.6667846
  entropy:           226.1554255
  heat_capacity:      95.8840236
  energy:             95.9655323

- temperature:       990.0000000
  free_energy:      -127.9332147
  entropy:           227.1289789
  heat_capacity:      95.9042805
  energy:             96.9244744

- temperature:      1000.0000000
  free_energy:      -130.2093323
  entropy:           228.0929482
  heat_capacity:      95.9239398
  energy:             97.8836160
