phonopy:
  version: "2.37.1"
  frequency_unit_conversion_factor: 15.633302
  symmetry_tolerance: 1.00000e-05

space_group:
  type: "P1"
  number: 1
  Hall_symbol: "P 1"

primitive_matrix:
- [ -1.000000000000000,  0.000000000000000,  0.000000000000000 ]
- [  0.000000000000000, -1.000000000000000, -0.000000000000000 ]
- [  0.000000000000000,  0.000000000000000,  1.000000000000000 ]

supercell_matrix:
- [   2,   0,   0 ]
- [   0,   2,   0 ]
- [   0,   0,   2 ]

primitive_cell:
  lattice:
  - [    -5.658649859703187,     0.000000000000000,     0.000000000000000 ] # a
  - [     0.000860904212832,    -7.029579935695870,     0.000000000000000 ] # b
  - [     0.001090486069899,     0.280969684063501,     7.231841489994420 ] # c
  points:
  - symbol: Sn # 1
    coordinates: [  0.280814985110979,  0.863044090189082,  0.921295169113270 ]
    mass: 118.710000
  - symbol: Sn # 2
    coordinates: [  0.281145839950460,  0.263425730853874,  0.121665044623801 ]
    mass: 118.710000
  - symbol: Sn # 3
    coordinates: [  0.780542009630858,  0.562880735673569,  0.522385191582135 ]
    mass: 118.710000
  - symbol: Sn # 4
    coordinates: [  0.781568247257113,  0.962657025041756,  0.722189403849263 ]
    mass: 118.710000
  - symbol: Sn # 5
    coordinates: [  0.780807766994803,  0.362561328420868,  0.922085879658920 ]
    mass: 118.710000
  - symbol: Sn # 6
    coordinates: [  0.781691855482416,  0.162702693492470,  0.322216064023071 ]
    mass: 118.710000
  - symbol: Sn # 7
    coordinates: [  0.280884248662402,  0.462773054623899,  0.721285918867616 ]
    mass: 118.710000
  - symbol: Sn # 8
    coordinates: [  0.281090231911051,  0.663416144780083,  0.321443743651179 ]
    mass: 118.710000
  - symbol: Sn # 9
    coordinates: [  0.281114518802592,  0.063973044923829,  0.521663074242731 ]
    mass: 118.710000
  - symbol: Sn # 10
    coordinates: [  0.780835657883283,  0.762268440658807,  0.122029926917433 ]
    mass: 118.710000
  reciprocal_lattice: # without 2pi
  - [    -0.176720600283343,    -0.000021642759691,     0.000027488477520 ] # a*
  - [    -0.000000000000000,    -0.142256010906434,     0.005526894705286 ] # b*
  - [    -0.000000000000000,    -0.000000000000000,     0.138277367027962 ] # c*

unit_cell:
  lattice:
  - [     5.658649859703186,     0.000000000000000,     0.000000000000000 ] # a
  - [    -0.000860904212832,     7.029579935695868,     0.000000000000000 ] # b
  - [     0.001090486069899,     0.280969684063501,     7.231841489994419 ] # c
  points:
  - symbol: Sn # 1
    coordinates: [  0.719185014889022,  0.136955909810918,  0.921295169113270 ]
    mass: 118.710000
    reduced_to: 1
  - symbol: Sn # 2
    coordinates: [  0.718854160049540,  0.736574269146126,  0.121665044623801 ]
    mass: 118.710000
    reduced_to: 2
  - symbol: Sn # 3
    coordinates: [  0.219457990369142,  0.437119264326431,  0.522385191582135 ]
    mass: 118.710000
    reduced_to: 3
  - symbol: Sn # 4
    coordinates: [  0.218431752742887,  0.037342974958244,  0.722189403849263 ]
    mass: 118.710000
    reduced_to: 4
  - symbol: Sn # 5
    coordinates: [  0.219192233005197,  0.637438671579133,  0.922085879658920 ]
    mass: 118.710000
    reduced_to: 5
  - symbol: Sn # 6
    coordinates: [  0.218308144517584,  0.837297306507530,  0.322216064023071 ]
    mass: 118.710000
    reduced_to: 6
  - symbol: Sn # 7
    coordinates: [  0.719115751337598,  0.537226945376101,  0.721285918867616 ]
    mass: 118.710000
    reduced_to: 7
  - symbol: Sn # 8
    coordinates: [  0.718909768088949,  0.336583855219917,  0.321443743651179 ]
    mass: 118.710000
    reduced_to: 8
  - symbol: Sn # 9
    coordinates: [  0.718885481197408,  0.936026955076171,  0.521663074242731 ]
    mass: 118.710000
    reduced_to: 9
  - symbol: Sn # 10
    coordinates: [  0.219164342116717,  0.237731559341193,  0.122029926917433 ]
    mass: 118.710000
    reduced_to: 10

supercell:
  lattice:
  - [    11.317299719406373,     0.000000000000000,     0.000000000000000 ] # a
  - [    -0.001721808425664,    14.059159871391737,     0.000000000000000 ] # b
  - [     0.002180972139798,     0.561939368127002,    14.463682979988837 ] # c
  points:
  - symbol: Sn # 1
    coordinates: [  0.359592507444511,  0.068477954905459,  0.460647584556635 ]
    mass: 118.710000
    reduced_to: 1
  - symbol: Sn # 2
    coordinates: [  0.859592507444511,  0.068477954905459,  0.460647584556635 ]
    mass: 118.710000
    reduced_to: 1
  - symbol: Sn # 3
    coordinates: [  0.359592507444511,  0.568477954905459,  0.460647584556635 ]
    mass: 118.710000
    reduced_to: 1
  - symbol: Sn # 4
    coordinates: [  0.859592507444511,  0.568477954905459,  0.460647584556635 ]
    mass: 118.710000
    reduced_to: 1
  - symbol: Sn # 5
    coordinates: [  0.359592507444511,  0.068477954905459,  0.960647584556635 ]
    mass: 118.710000
    reduced_to: 1
  - symbol: Sn # 6
    coordinates: [  0.859592507444511,  0.068477954905459,  0.960647584556635 ]
    mass: 118.710000
    reduced_to: 1
  - symbol: Sn # 7
    coordinates: [  0.359592507444511,  0.568477954905459,  0.960647584556635 ]
    mass: 118.710000
    reduced_to: 1
  - symbol: Sn # 8
    coordinates: [  0.859592507444511,  0.568477954905459,  0.960647584556635 ]
    mass: 118.710000
    reduced_to: 1
  - symbol: Sn # 9
    coordinates: [  0.359427080024770,  0.368287134573063,  0.060832522311901 ]
    mass: 118.710000
    reduced_to: 9
  - symbol: Sn # 10
    coordinates: [  0.859427080024770,  0.368287134573063,  0.060832522311901 ]
    mass: 118.710000
    reduced_to: 9
  - symbol: Sn # 11
    coordinates: [  0.359427080024770,  0.868287134573063,  0.060832522311901 ]
    mass: 118.710000
    reduced_to: 9
  - symbol: Sn # 12
    coordinates: [  0.859427080024770,  0.868287134573063,  0.060832522311901 ]
    mass: 118.710000
    reduced_to: 9
  - symbol: Sn # 13
    coordinates: [  0.359427080024770,  0.368287134573063,  0.560832522311901 ]
    mass: 118.710000
    reduced_to: 9
  - symbol: Sn # 14
    coordinates: [  0.859427080024770,  0.368287134573063,  0.560832522311901 ]
    mass: 118.710000
    reduced_to: 9
  - symbol: Sn # 15
    coordinates: [  0.359427080024770,  0.868287134573063,  0.560832522311901 ]
    mass: 118.710000
    reduced_to: 9
  - symbol: Sn # 16
    coordinates: [  0.859427080024770,  0.868287134573063,  0.560832522311901 ]
    mass: 118.710000
    reduced_to: 9
  - symbol: Sn # 17
    coordinates: [  0.109728995184571,  0.218559632163216,  0.261192595791068 ]
    mass: 118.710000
    reduced_to: 17
  - symbol: Sn # 18
    coordinates: [  0.609728995184571,  0.218559632163216,  0.261192595791068 ]
    mass: 118.710000
    reduced_to: 17
  - symbol: Sn # 19
    coordinates: [  0.109728995184571,  0.718559632163216,  0.261192595791068 ]
    mass: 118.710000
    reduced_to: 17
  - symbol: Sn # 20
    coordinates: [  0.609728995184571,  0.718559632163216,  0.261192595791068 ]
    mass: 118.710000
    reduced_to: 17
  - symbol: Sn # 21
    coordinates: [  0.109728995184571,  0.218559632163216,  0.761192595791067 ]
    mass: 118.710000
    reduced_to: 17
  - symbol: Sn # 22
    coordinates: [  0.609728995184571,  0.218559632163216,  0.761192595791067 ]
    mass: 118.710000
    reduced_to: 17
  - symbol: Sn # 23
    coordinates: [  0.109728995184571,  0.718559632163216,  0.761192595791067 ]
    mass: 118.710000
    reduced_to: 17
  - symbol: Sn # 24
    coordinates: [  0.609728995184571,  0.718559632163216,  0.761192595791067 ]
    mass: 118.710000
    reduced_to: 17
  - symbol: Sn # 25
    coordinates: [  0.109215876371443,  0.018671487479122,  0.361094701924631 ]
    mass: 118.710000
    reduced_to: 25
  - symbol: Sn # 26
    coordinates: [  0.609215876371443,  0.018671487479122,  0.361094701924631 ]
    mass: 118.710000
    reduced_to: 25
  - symbol: Sn # 27
    coordinates: [  0.109215876371443,  0.518671487479122,  0.361094701924631 ]
    mass: 118.710000
    reduced_to: 25
  - symbol: Sn # 28
    coordinates: [  0.609215876371443,  0.518671487479122,  0.361094701924631 ]
    mass: 118.710000
    reduced_to: 25
  - symbol: Sn # 29
    coordinates: [  0.109215876371443,  0.018671487479122,  0.861094701924631 ]
    mass: 118.710000
    reduced_to: 25
  - symbol: Sn # 30
    coordinates: [  0.609215876371443,  0.018671487479122,  0.861094701924631 ]
    mass: 118.710000
    reduced_to: 25
  - symbol: Sn # 31
    coordinates: [  0.109215876371443,  0.518671487479122,  0.861094701924631 ]
    mass: 118.710000
    reduced_to: 25
  - symbol: Sn # 32
    coordinates: [  0.609215876371443,  0.518671487479122,  0.861094701924631 ]
    mass: 118.710000
    reduced_to: 25
  - symbol: Sn # 33
    coordinates: [  0.109596116502599,  0.318719335789566,  0.461042939829460 ]
    mass: 118.710000
    reduced_to: 33
  - symbol: Sn # 34
    coordinates: [  0.609596116502599,  0.318719335789566,  0.461042939829460 ]
    mass: 118.710000
    reduced_to: 33
  - symbol: Sn # 35
    coordinates: [  0.109596116502599,  0.818719335789566,  0.461042939829460 ]
    mass: 118.710000
    reduced_to: 33
  - symbol: Sn # 36
    coordinates: [  0.609596116502599,  0.818719335789566,  0.461042939829460 ]
    mass: 118.710000
    reduced_to: 33
  - symbol: Sn # 37
    coordinates: [  0.109596116502599,  0.318719335789566,  0.961042939829460 ]
    mass: 118.710000
    reduced_to: 33
  - symbol: Sn # 38
    coordinates: [  0.609596116502599,  0.318719335789566,  0.961042939829460 ]
    mass: 118.710000
    reduced_to: 33
  - symbol: Sn # 39
    coordinates: [  0.109596116502599,  0.818719335789566,  0.961042939829460 ]
    mass: 118.710000
    reduced_to: 33
  - symbol: Sn # 40
    coordinates: [  0.609596116502599,  0.818719335789566,  0.961042939829460 ]
    mass: 118.710000
    reduced_to: 33
  - symbol: Sn # 41
    coordinates: [  0.109154072258792,  0.418648653253765,  0.161108032011536 ]
    mass: 118.710000
    reduced_to: 41
  - symbol: Sn # 42
    coordinates: [  0.609154072258792,  0.418648653253765,  0.161108032011536 ]
    mass: 118.710000
    reduced_to: 41
  - symbol: Sn # 43
    coordinates: [  0.109154072258792,  0.918648653253765,  0.161108032011536 ]
    mass: 118.710000
    reduced_to: 41
  - symbol: Sn # 44
    coordinates: [  0.609154072258792,  0.918648653253765,  0.161108032011536 ]
    mass: 118.710000
    reduced_to: 41
  - symbol: Sn # 45
    coordinates: [  0.109154072258792,  0.418648653253765,  0.661108032011536 ]
    mass: 118.710000
    reduced_to: 41
  - symbol: Sn # 46
    coordinates: [  0.609154072258792,  0.418648653253765,  0.661108032011536 ]
    mass: 118.710000
    reduced_to: 41
  - symbol: Sn # 47
    coordinates: [  0.109154072258792,  0.918648653253765,  0.661108032011536 ]
    mass: 118.710000
    reduced_to: 41
  - symbol: Sn # 48
    coordinates: [  0.609154072258792,  0.918648653253765,  0.661108032011536 ]
    mass: 118.710000
    reduced_to: 41
  - symbol: Sn # 49
    coordinates: [  0.359557875668799,  0.268613472688050,  0.360642959433808 ]
    mass: 118.710000
    reduced_to: 49
  - symbol: Sn # 50
    coordinates: [  0.859557875668799,  0.268613472688050,  0.360642959433808 ]
    mass: 118.710000
    reduced_to: 49
  - symbol: Sn # 51
    coordinates: [  0.359557875668799,  0.768613472688050,  0.360642959433808 ]
    mass: 118.710000
    reduced_to: 49
  - symbol: Sn # 52
    coordinates: [  0.859557875668799,  0.768613472688050,  0.360642959433808 ]
    mass: 118.710000
    reduced_to: 49
  - symbol: Sn # 53
    coordinates: [  0.359557875668799,  0.268613472688050,  0.860642959433808 ]
    mass: 118.710000
    reduced_to: 49
  - symbol: Sn # 54
    coordinates: [  0.859557875668799,  0.268613472688050,  0.860642959433808 ]
    mass: 118.710000
    reduced_to: 49
  - symbol: Sn # 55
    coordinates: [  0.359557875668799,  0.768613472688050,  0.860642959433808 ]
    mass: 118.710000
    reduced_to: 49
  - symbol: Sn # 56
    coordinates: [  0.859557875668799,  0.768613472688050,  0.860642959433808 ]
    mass: 118.710000
    reduced_to: 49
  - symbol: Sn # 57
    coordinates: [  0.359454884044474,  0.168291927609958,  0.160721871825590 ]
    mass: 118.710000
    reduced_to: 57
  - symbol: Sn # 58
    coordinates: [  0.859454884044474,  0.168291927609958,  0.160721871825590 ]
    mass: 118.710000
    reduced_to: 57
  - symbol: Sn # 59
    coordinates: [  0.359454884044474,  0.668291927609958,  0.160721871825590 ]
    mass: 118.710000
    reduced_to: 57
  - symbol: Sn # 60
    coordinates: [  0.859454884044474,  0.668291927609958,  0.160721871825590 ]
    mass: 118.710000
    reduced_to: 57
  - symbol: Sn # 61
    coordinates: [  0.359454884044474,  0.168291927609958,  0.660721871825590 ]
    mass: 118.710000
    reduced_to: 57
  - symbol: Sn # 62
    coordinates: [  0.859454884044474,  0.168291927609958,  0.660721871825590 ]
    mass: 118.710000
    reduced_to: 57
  - symbol: Sn # 63
    coordinates: [  0.359454884044474,  0.668291927609958,  0.660721871825590 ]
    mass: 118.710000
    reduced_to: 57
  - symbol: Sn # 64
    coordinates: [  0.859454884044474,  0.668291927609958,  0.660721871825590 ]
    mass: 118.710000
    reduced_to: 57
  - symbol: Sn # 65
    coordinates: [  0.359442740598704,  0.468013477538086,  0.260831537121366 ]
    mass: 118.710000
    reduced_to: 65
  - symbol: Sn # 66
    coordinates: [  0.859442740598704,  0.468013477538086,  0.260831537121366 ]
    mass: 118.710000
    reduced_to: 65
  - symbol: Sn # 67
    coordinates: [  0.359442740598704,  0.968013477538086,  0.260831537121366 ]
    mass: 118.710000
    reduced_to: 65
  - symbol: Sn # 68
    coordinates: [  0.859442740598704,  0.968013477538086,  0.260831537121366 ]
    mass: 118.710000
    reduced_to: 65
  - symbol: Sn # 69
    coordinates: [  0.359442740598704,  0.468013477538086,  0.760831537121366 ]
    mass: 118.710000
    reduced_to: 65
  - symbol: Sn # 70
    coordinates: [  0.859442740598704,  0.468013477538086,  0.760831537121366 ]
    mass: 118.710000
    reduced_to: 65
  - symbol: Sn # 71
    coordinates: [  0.359442740598704,  0.968013477538086,  0.760831537121366 ]
    mass: 118.710000
    reduced_to: 65
  - symbol: Sn # 72
    coordinates: [  0.859442740598704,  0.968013477538086,  0.760831537121366 ]
    mass: 118.710000
    reduced_to: 65
  - symbol: Sn # 73
    coordinates: [  0.109582171058358,  0.118865779670597,  0.061014963458716 ]
    mass: 118.710000
    reduced_to: 73
  - symbol: Sn # 74
    coordinates: [  0.609582171058358,  0.118865779670597,  0.061014963458716 ]
    mass: 118.710000
    reduced_to: 73
  - symbol: Sn # 75
    coordinates: [  0.109582171058358,  0.618865779670597,  0.061014963458716 ]
    mass: 118.710000
    reduced_to: 73
  - symbol: Sn # 76
    coordinates: [  0.609582171058358,  0.618865779670597,  0.061014963458716 ]
    mass: 118.710000
    reduced_to: 73
  - symbol: Sn # 77
    coordinates: [  0.109582171058358,  0.118865779670597,  0.561014963458716 ]
    mass: 118.710000
    reduced_to: 73
  - symbol: Sn # 78
    coordinates: [  0.609582171058358,  0.118865779670597,  0.561014963458716 ]
    mass: 118.710000
    reduced_to: 73
  - symbol: Sn # 79
    coordinates: [  0.109582171058358,  0.618865779670597,  0.561014963458716 ]
    mass: 118.710000
    reduced_to: 73
  - symbol: Sn # 80
    coordinates: [  0.609582171058358,  0.618865779670597,  0.561014963458716 ]
    mass: 118.710000
    reduced_to: 73

displacements:
- atom:    1
  displacement:
    [   0.0100000000000000,  0.0000000000000000,  0.0000000000000000 ]
  forces:
  - [  -0.0204175133258104, -0.0028518871404231,  0.0054064714349806 ]
  - [  -0.0009356949012727, -0.0028987415134907,  0.0053266189061105 ]
  - [  -0.0029866832774132, -0.0028980290517211,  0.0053288042545319 ]
  - [  -0.0029694831464440, -0.0028980863280594,  0.0053294152021408 ]
  - [  -0.0029435711912811, -0.0028964029625058,  0.0053296275436878 ]
  - [  -0.0030128750950098, -0.0028946031816304,  0.0053310878574848 ]
  - [  -0.0029869198333472, -0.0028979582712054,  0.0053289956413209 ]
  - [  -0.0029709092341363, -0.0028975498862565,  0.0053288219496608 ]
  - [  -0.0001946128904819,  0.0055332705378532, -0.0017075752839446 ]
  - [  -0.0001863143406808,  0.0055336682125926, -0.0017075169598684 ]
  - [  -0.0001533637987450,  0.0055346232838929, -0.0017061331309378 ]
  - [  -0.0002270463155583,  0.0055342265404761, -0.0017082244157791 ]
  - [  -0.0000608002301306,  0.0055304314009845, -0.0017122731078416 ]
  - [  -0.0003095862921327,  0.0055343890562654, -0.0017095955554396 ]
  - [   0.0002249616663903,  0.0055774217471480, -0.0017299272585660 ]
  - [  -0.0003928516525775,  0.0055390209890902, -0.0017110457411036 ]
  - [  -0.0036062700673938,  0.0029672903474420, -0.0059723081067204 ]
  - [  -0.0036111650988460,  0.0029164927545935, -0.0062588611617684 ]
  - [  -0.0039265719242394,  0.0029260781593621, -0.0061741527169943 ]
  - [  -0.0039273174479604,  0.0030067395418882, -0.0060764602385461 ]
  - [  -0.0040699383243918,  0.0026492921169847, -0.0067284153774381 ]
  - [  -0.0040772547945380,  0.0032774291466922, -0.0055263456888497 ]
  - [  -0.0039264131337404,  0.0030316777992994, -0.0061624990776181 ]
  - [  -0.0039251260459423,  0.0028889859095216, -0.0060881832614541 ]
  - [   0.0078272242099047, -0.0004655171651393, -0.0002700617769733 ]
  - [   0.0081705152988434, -0.0026040561497211, -0.0043697655200958 ]
  - [   0.0050688851624727, -0.0015634696464986, -0.0021685925312340 ]
  - [   0.0050679245032370, -0.0013874047435820, -0.0022692666389048 ]
  - [   0.0050696944817901, -0.0014970062766224, -0.0021666893735528 ]
  - [   0.0050667282193899, -0.0014614614192396, -0.0022686617448926 ]
  - [   0.0050687044858932, -0.0014915093779564, -0.0021796296350658 ]
  - [   0.0050692455843091, -0.0014626546762884, -0.0022507950197905 ]
  - [  -0.0015328231966123, -0.0021216319873929, -0.0010591690661386 ]
  - [  -0.0015343801351264, -0.0019263373687863, -0.0008554718224332 ]
  - [  -0.0015218828339130, -0.0018833731301129, -0.0008701015030965 ]
  - [  -0.0015308705624193, -0.0020876848138869, -0.0010769712971523 ]
  - [  -0.0018408475443721, -0.0020024599507451, -0.0009933364344761 ]
  - [  -0.0018419168191031, -0.0020154158119112, -0.0009327481966466 ]
  - [  -0.0018401433480904, -0.0020160698331892, -0.0009351540356874 ]
  - [  -0.0018417180981487, -0.0020043440163136, -0.0009977906011045 ]
  - [   0.0051035964861512, -0.0005124751478434, -0.0035577402450144 ]
  - [   0.0051051159389317, -0.0003530974499881, -0.0036387885920703 ]
  - [   0.0049655223265290, -0.0001307695638388, -0.0030126245692372 ]
  - [   0.0049556735903025, -0.0007502690423280, -0.0041876123286784 ]
  - [   0.0051044868305326, -0.0003991629928350, -0.0035490454174578 ]
  - [   0.0051034991629422, -0.0004775556735694, -0.0036458512768149 ]
  - [   0.0054110181517899, -0.0004397653974593, -0.0037469279486686 ]
  - [   0.0054068681783974, -0.0004049837589264, -0.0034612098243088 ]
  - [   0.0009077999275178, -0.0108371032401919,  0.0077175246551633 ]
  - [   0.0003084857016802, -0.0108019504696131,  0.0076982555910945 ]
  - [   0.0006413223454729, -0.0107919378206134,  0.0076991273090243 ]
  - [   0.0003936882130802, -0.0107948835939169,  0.0076967934146523 ]
  - [   0.0005506199086085, -0.0107941525056958,  0.0077005727216601 ]
  - [   0.0004764681216329, -0.0107937715947628,  0.0077012823894620 ]
  - [   0.0005101866554469, -0.0107943816110492,  0.0076982355676591 ]
  - [   0.0005161296576262, -0.0107934763655066,  0.0076981950551271 ]
  - [   0.0024453899823129,  0.0015067774802446,  0.0036630337126553 ]
  - [   0.0021954698022455,  0.0015069867949933,  0.0036584814079106 ]
  - [   0.0023303432390094,  0.0015085453633219,  0.0036562741734087 ]
  - [   0.0023052736651152,  0.0015097206924111,  0.0036543975584209 ]
  - [   0.0012424127198756,  0.0015203056391329,  0.0036809202283621 ]
  - [   0.0041913436725736,  0.0015165491495281,  0.0036749157588929 ]
  - [   0.0023072669282556,  0.0015073898248374,  0.0036529568023980 ]
  - [   0.0023171755019575,  0.0015075309202075,  0.0036545847542584 ]
  - [  -0.0027058525010943,  0.0170999206602573, -0.0036134324036539 ]
  - [  -0.0026971674524248,  0.0171012207865715, -0.0036140037700534 ]
  - [  -0.0037700720131397,  0.0170860514044762, -0.0036450724583119 ]
  - [  -0.0008323593065143,  0.0170904472470284, -0.0036353634204715 ]
  - [  -0.0026854604948312,  0.0171010475605726, -0.0036169409286231 ]
  - [  -0.0027117251884192,  0.0171005241572857, -0.0036146701313555 ]
  - [  -0.0025657133664936,  0.0170993767678738, -0.0036216904409230 ]
  - [  -0.0028175984043628,  0.0171005316078663, -0.0036160664167255 ]
  - [  -0.0013664605794474, -0.0094719836488366,  0.0014954134821892 ]
  - [  -0.0013660371769220, -0.0095056332647800,  0.0015980107709765 ]
  - [  -0.0013664667494595, -0.0094739580526948,  0.0015070317313075 ]
  - [  -0.0013659588294104, -0.0095044039189816,  0.0015799483517185 ]
  - [   0.0013377761933953, -0.0105056688189507, -0.0003521308535710 ]
  - [   0.0015211559366435, -0.0084018539637327,  0.0035809567198157 ]
  - [  -0.0013663173886016, -0.0093992892652750,  0.0014944041613489 ]
  - [  -0.0013679246185347, -0.0095878010615706,  0.0016017472371459 ]
- atom:    1
  displacement:
    [  -0.0100000000000000,  0.0000000000000000,  0.0000000000000000 ]
  forces:
  - [   0.0144526129588485, -0.0029363646171987,  0.0052547957748175 ]
  - [  -0.0050210524350405, -0.0028976760804653,  0.0053301067091525 ]
  - [  -0.0029704952612519, -0.0028992402367294,  0.0053294235840440 ]
  - [  -0.0029858513735235, -0.0028978239279240,  0.0053292950615287 ]
  - [  -0.0030134413391352, -0.0028957286849618,  0.0053293481469154 ]
  - [  -0.0029427732806653, -0.0028945398516953,  0.0053305616602302 ]
  - [  -0.0029709120281041, -0.0028976348694414,  0.0053293560631573 ]
  - [  -0.0029868946876377, -0.0028976383619010,  0.0053292261436582 ]
  - [  -0.0001888039987534,  0.0055344416759908, -0.0017083820421249 ]
  - [  -0.0001917837653309,  0.0055338423699141, -0.0017075518844649 ]
  - [  -0.0002266018418595,  0.0055342847481370, -0.0017069518798962 ]
  - [  -0.0001574693014845,  0.0055345185101032, -0.0017080678371713 ]
  - [  -0.0003194489981979,  0.0055323904380202, -0.0017087298911065 ]
  - [  -0.0000723300036043,  0.0055335815995932, -0.0017082546837628 ]
  - [  -0.0006025586044416,  0.0055552469566464, -0.0017177283298224 ]
  - [   0.0000171277206391,  0.0055374982766807, -0.0017070745816454 ]
  - [  -0.0042420942336321,  0.0029313503764570, -0.0062680598348379 ]
  - [  -0.0042448304593563,  0.0029813745059073, -0.0059818415902555 ]
  - [  -0.0039268606342375,  0.0030058710835874, -0.0060779238119721 ]
  - [  -0.0039271516725421,  0.0029229540377855, -0.0061749732121825 ]
  - [  -0.0037758168764412,  0.0032753346022218, -0.0055300784297287 ]
  - [  -0.0037843044847250,  0.0026486900169402, -0.0067295888438821 ]
  - [  -0.0039263251237571,  0.0028902750927955, -0.0060878042131662 ]
  - [  -0.0039251474663615,  0.0030319381039590, -0.0061633493751287 ]
  - [   0.0021262457594275, -0.0025593978352845, -0.0042843921110034 ]
  - [   0.0021577980369329, -0.0004237215034664, -0.0001903716474771 ]
  - [   0.0050684856250882, -0.0013872594572604, -0.0022688955068588 ]
  - [   0.0050684446468949, -0.0015643995720893, -0.0021685461979359 ]
  - [   0.0050690723583102, -0.0014627829659730, -0.0022666393779218 ]
  - [   0.0050673172809184, -0.0014954714570194, -0.0021674993913621 ]
  - [   0.0050690136849880, -0.0014619772555307, -0.0022511456627399 ]
  - [   0.0050687687471509, -0.0014924914576113, -0.0021799034439027 ]
  - [  -0.0021520527079701, -0.0019160292576998, -0.0008578941342421 ]
  - [  -0.0021543926559389, -0.0021113900002092, -0.0010623615235090 ]
  - [  -0.0021564960479736, -0.0021041338331997, -0.0010715118842199 ]
  - [  -0.0021566259674728, -0.0018991366960108, -0.0008617547573522 ]
  - [  -0.0018410531338304, -0.0020149662159383, -0.0009325904538855 ]
  - [  -0.0018416286911815, -0.0020024252589792, -0.0009933237452060 ]
  - [  -0.0018398829270154, -0.0020044068805873, -0.0009968214435503 ]
  - [  -0.0018418497638777, -0.0020140009000897, -0.0009331222390756 ]
  - [   0.0051025426946580, -0.0003569759428501, -0.0036388500593603 ]
  - [   0.0051057455129921, -0.0005149210337549, -0.0035544501151890 ]
  - [   0.0052482504397631, -0.0007466885726899, -0.0041814977303147 ]
  - [   0.0052431244403124, -0.0001276927068830, -0.0030056992545724 ]
  - [   0.0051051001064479, -0.0004767777863890, -0.0036463928408921 ]
  - [   0.0051030423492193, -0.0003984309732914, -0.0035474947653711 ]
  - [   0.0047936043702066, -0.0004130422603339, -0.0034572947770357 ]
  - [   0.0047913906164467, -0.0004463251680136, -0.0037447337526828 ]
  - [   0.0001234153751284, -0.0108189992606640,  0.0077086957171559 ]
  - [   0.0007220960687846, -0.0107976160943508,  0.0076979259029031 ]
  - [   0.0003797782119364, -0.0107954507693648,  0.0076983156614006 ]
  - [   0.0006344879511744, -0.0107975453138351,  0.0076959468424320 ]
  - [   0.0004760238807648, -0.0107951378449798,  0.0076982546597719 ]
  - [   0.0005465487483889, -0.0107949469238520,  0.0076999487355351 ]
  - [   0.0005157743580639, -0.0107944905757904,  0.0076987370848656 ]
  - [   0.0005106576718390, -0.0107934121042490,  0.0076980390585959 ]
  - [   0.0021859749685973,  0.0015081500168890,  0.0036581894382834 ]
  - [   0.0024349410086870,  0.0015081914607435,  0.0036553123500198 ]
  - [   0.0023059658706188,  0.0015069791115820,  0.0036549684591591 ]
  - [   0.0023300556931645,  0.0015087728388608,  0.0036538266576827 ]
  - [   0.0033888677135110,  0.0015128161758184,  0.0036655007861555 ]
  - [   0.0004473754670471,  0.0015123796183616,  0.0036666970700026 ]
  - [   0.0023264030460268,  0.0015093556139618,  0.0036518997512758 ]
  - [   0.0023128101602197,  0.0015081035671756,  0.0036542804446071 ]
  - [  -0.0026912593748420,  0.0170995108783245, -0.0036128726787865 ]
  - [  -0.0027018375694752,  0.0171005986630917, -0.0036136703565717 ]
  - [  -0.0016242698766291,  0.0170978698879480, -0.0036223342176527 ]
  - [  -0.0045642559416592,  0.0170960612595081, -0.0036239414475858 ]
  - [  -0.0027102618478239,  0.0171007309108973, -0.0036163725890219 ]
  - [  -0.0026869771536440,  0.0171006098389626, -0.0036148650106043 ]
  - [  -0.0028283924330026,  0.0171015169471502, -0.0036175337154418 ]
  - [  -0.0025784266181290,  0.0171018373221159, -0.0036169541999698 ]
  - [  -0.0013663418358192, -0.0095059778541327,  0.0015962498728186 ]
  - [  -0.0013662064447999, -0.0094714276492596,  0.0014927997253835 ]
  - [  -0.0013665322912857, -0.0095044663175941,  0.0015800567343831 ]
  - [  -0.0013662162236869, -0.0094739384949207,  0.0015070078661665 ]
  - [  -0.0042471387423575, -0.0084090456366539,  0.0035679612774402 ]
  - [  -0.0040796929970384, -0.0105117624625564, -0.0003661582304630 ]
  - [  -0.0013665452133864, -0.0095852687954903,  0.0016001018229872 ]
  - [  -0.0013675827067345, -0.0093960994854569,  0.0014914150815457 ]
- atom:    1
  displacement:
    [  -0.0000012246879817,  0.0099999999250070,  0.0000000000000000 ]
  forces:
  - [  -0.0029337850864977, -0.0277409553527832,  0.0092178238555789 ]
  - [  -0.0029793449211866, -0.0030884181614965,  0.0047857887111604 ]
  - [  -0.0029775118455291, -0.0029193744994700,  0.0055540222674608 ]
  - [  -0.0029779302421957, -0.0029399122577161,  0.0053162714466453 ]
  - [  -0.0029791672714055, -0.0030677923932672,  0.0051749479025602 ]
  - [  -0.0029776773881167, -0.0028778559062630,  0.0053132716566324 ]
  - [  -0.0029792264103889, -0.0029970007017255,  0.0054022986441851 ]
  - [  -0.0029789109248668, -0.0028744428418577,  0.0053326785564423 ]
  - [  -0.0001912610605359,  0.0053659658879042, -0.0016937926411629 ]
  - [  -0.0001891548745334,  0.0055360728874803, -0.0016998578794301 ]
  - [  -0.0001895703608170,  0.0057819983921945, -0.0011744805378839 ]
  - [  -0.0001925099641085,  0.0055291242897511, -0.0016908994875848 ]
  - [  -0.0001906924881041,  0.0058738617226481, -0.0016397449653596 ]
  - [  -0.0001905413810164,  0.0055973362177610, -0.0016713796649128 ]
  - [  -0.0001881434582174,  0.0116162663325667, -0.0046762502752244 ]
  - [  -0.0001876681344584,  0.0055495467968285, -0.0016494174487889 ]
  - [  -0.0039045624434948,  0.0032993161585182, -0.0062092654407024 ]
  - [  -0.0039404048584402,  0.0033007597085088, -0.0062149222940207 ]
  - [  -0.0039686826057732,  0.0027842579875141, -0.0061835804954171 ]
  - [  -0.0038863446097821,  0.0027828742749989, -0.0061836773529649 ]
  - [  -0.0042404965497553,  0.0031430704984814, -0.0058926744386554 ]
  - [  -0.0036175367422402,  0.0031427899375558, -0.0058927261270583 ]
  - [  -0.0038530067540705,  0.0028323049191386, -0.0061075259000063 ]
  - [  -0.0039941850118339,  0.0028317912947387, -0.0061059379950166 ]
  - [   0.0061331372708082, -0.0010376254795119, -0.0023222868330777 ]
  - [   0.0039547407068312, -0.0010348123032600, -0.0023092122282833 ]
  - [   0.0049804290756583, -0.0015647083055228, -0.0021409210748971 ]
  - [   0.0051581328734756, -0.0015641411300749, -0.0021409804467112 ]
  - [   0.0050527835264802, -0.0014159881975502, -0.0021863034926355 ]
  - [   0.0050838589668274, -0.0014147609472275, -0.0021892972290516 ]
  - [   0.0050535686314106, -0.0015405425801873, -0.0021965596824884 ]
  - [   0.0050838594324887, -0.0015415495727211, -0.0021971517708153 ]
  - [  -0.0019585397094488, -0.0016324608586729, -0.0010267872130498 ]
  - [  -0.0017311974661425, -0.0016325353644788, -0.0010283523006365 ]
  - [  -0.0017518040258437, -0.0016335824038833, -0.0010405029170215 ]
  - [  -0.0019527818076313, -0.0016348825301975, -0.0010266050230712 ]
  - [  -0.0018337743822485, -0.0020053491462022, -0.0009454751852900 ]
  - [  -0.0018489696085453, -0.0020053745247424, -0.0009455526014790 ]
  - [  -0.0018452029908076, -0.0020057968795300, -0.0009482359746471 ]
  - [  -0.0018363377312198, -0.0020048285368830, -0.0009477417333983 ]
  - [   0.0050251157954335, -0.0005731994751841, -0.0035783010534942 ]