phonopy:
  version: "2.37.1"
  frequency_unit_conversion_factor: 15.633302
  symmetry_tolerance: 1.00000e-05

space_group:
  type: "P1"
  number: 1
  Hall_symbol: "P 1"

primitive_matrix:
- [ -1.000000000000000, -0.000000000000000,  0.000000000000000 ]
- [  0.000000000000000, -1.000000000000000, -0.000000000000000 ]
- [  0.000000000000000,  0.000000000000000,  1.000000000000000 ]

supercell_matrix:
- [   4,   0,   0 ]
- [   0,   2,   0 ]
- [   0,   0,   1 ]

primitive_cell:
  lattice:
  - [    -3.245565681376964,     0.000000000000000,     0.000000000000000 ] # a
  - [     0.000236100298443,    -8.076289841922877,     0.000000000000000 ] # b
  - [     0.001573627447271,     0.387080137298818,    11.930977212302741 ] # c
  points:
  - symbol: Sn # 1
    coordinates: [  0.982173552772272,  0.851828962154407,  0.819142804385167 ]
    mass: 118.710000
  - symbol: Sn # 2
    coordinates: [  0.482597537691427,  0.196726425065565,  0.919070438461716 ]
    mass: 118.710000
  - symbol: Sn # 3
    coordinates: [  0.982450837942004,  0.655709497758786,  0.280560523040445 ]
    mass: 118.710000
  - symbol: Sn # 4
    coordinates: [  0.481823681320478,  0.014635266334882,  0.373309545009719 ]
    mass: 118.710000
  - symbol: Sn # 5
    coordinates: [  0.482030595856023,  0.296891545701214,  0.186362324961311 ]
    mass: 118.710000
  - symbol: Sn # 6
    coordinates: [  0.481866903535815,  0.913498900546357,  0.103477057925434 ]
    mass: 118.710000
  - symbol: Sn # 7
    coordinates: [  0.982224659510283,  0.566394900446083,  0.005738559506409 ]
    mass: 118.710000
  - symbol: Sn # 8
    coordinates: [  0.482833199032749,  0.113144371300000,  0.640695916516658 ]
    mass: 118.710000
  - symbol: Sn # 9
    coordinates: [  0.482574336959192,  0.397312744033547,  0.457008060114185 ]
    mass: 118.710000
  - symbol: Sn # 10
    coordinates: [  0.982561760240799,  0.458704067115913,  0.741601599541987 ]
    mass: 118.710000
  - symbol: Sn # 11
    coordinates: [  0.982798903855111,  0.744799887120449,  0.555007685229093 ]
    mass: 118.710000
  reciprocal_lattice: # without 2pi
  - [    -0.308112698423573,    -0.000009007291897,     0.000040930523476 ] # a*
  - [    -0.000000000000000,    -0.123819231302119,     0.004017103058686 ] # b*
  - [    -0.000000000000000,    -0.000000000000000,     0.083815431226274 ] # c*

unit_cell:
  lattice:
  - [     3.245565681376964,     0.000000000000000,     0.000000000000000 ] # a
  - [    -0.000236100298444,     8.076289841922877,     0.000000000000000 ] # b
  - [     0.001573627447270,     0.387080137298819,    11.930977212302743 ] # c
  points:
  - symbol: Sn # 1
    coordinates: [  0.017826447227729,  0.148171037845593,  0.819142804385166 ]
    mass: 118.710000
    reduced_to: 1
  - symbol: Sn # 2
    coordinates: [  0.517402462308573,  0.803273574934435,  0.919070438461716 ]
    mass: 118.710000
    reduced_to: 2
  - symbol: Sn # 3
    coordinates: [  0.017549162057996,  0.344290502241214,  0.280560523040445 ]
    mass: 118.710000
    reduced_to: 3
  - symbol: Sn # 4
    coordinates: [  0.518176318679523,  0.985364733665118,  0.373309545009719 ]
    mass: 118.710000
    reduced_to: 4
  - symbol: Sn # 5
    coordinates: [  0.517969404143977,  0.703108454298786,  0.186362324961311 ]
    mass: 118.710000
    reduced_to: 5
  - symbol: Sn # 6
    coordinates: [  0.518133096464185,  0.086501099453643,  0.103477057925434 ]
    mass: 118.710000
    reduced_to: 6
  - symbol: Sn # 7
    coordinates: [  0.017775340489717,  0.433605099553917,  0.005738559506409 ]
    mass: 118.710000
    reduced_to: 7
  - symbol: Sn # 8
    coordinates: [  0.517166800967251,  0.886855628700000,  0.640695916516658 ]
    mass: 118.710000
    reduced_to: 8
  - symbol: Sn # 9
    coordinates: [  0.517425663040808,  0.602687255966453,  0.457008060114185 ]
    mass: 118.710000
    reduced_to: 9
  - symbol: Sn # 10
    coordinates: [  0.017438239759201,  0.541295932884087,  0.741601599541986 ]
    mass: 118.710000
    reduced_to: 10
  - symbol: Sn # 11
    coordinates: [  0.017201096144889,  0.255200112879551,  0.555007685229093 ]
    mass: 118.710000
    reduced_to: 11

supercell:
  lattice:
  - [    12.982262725507857,     0.000000000000000,     0.000000000000000 ] # a
  - [    -0.000472200596887,    16.152579683845754,     0.000000000000000 ] # b
  - [     0.001573627447270,     0.387080137298819,    11.930977212302743 ] # c
  points:
  - symbol: Sn # 1
    coordinates: [  0.004456611806932,  0.074085518922797,  0.819142804385166 ]
    mass: 118.710000
    reduced_to: 1
  - symbol: Sn # 2
    coordinates: [  0.254456611806932,  0.074085518922797,  0.819142804385166 ]
    mass: 118.710000
    reduced_to: 1
  - symbol: Sn # 3
    coordinates: [  0.504456611806932,  0.074085518922797,  0.819142804385166 ]
    mass: 118.710000
    reduced_to: 1
  - symbol: Sn # 4
    coordinates: [  0.754456611806932,  0.074085518922797,  0.819142804385166 ]
    mass: 118.710000
    reduced_to: 1
  - symbol: Sn # 5
    coordinates: [  0.004456611806932,  0.574085518922797,  0.819142804385166 ]
    mass: 118.710000
    reduced_to: 1
  - symbol: Sn # 6
    coordinates: [  0.254456611806932,  0.574085518922797,  0.819142804385166 ]
    mass: 118.710000
    reduced_to: 1
  - symbol: Sn # 7
    coordinates: [  0.504456611806932,  0.574085518922797,  0.819142804385166 ]
    mass: 118.710000
    reduced_to: 1
  - symbol: Sn # 8
    coordinates: [  0.754456611806932,  0.574085518922797,  0.819142804385166 ]
    mass: 118.710000
    reduced_to: 1
  - symbol: Sn # 9
    coordinates: [  0.129350615577143,  0.401636787467218,  0.919070438461716 ]
    mass: 118.710000
    reduced_to: 9
  - symbol: Sn # 10
    coordinates: [  0.379350615577143,  0.401636787467218,  0.919070438461716 ]
    mass: 118.710000
    reduced_to: 9
  - symbol: Sn # 11
    coordinates: [  0.629350615577143,  0.401636787467218,  0.919070438461716 ]
    mass: 118.710000
    reduced_to: 9
  - symbol: Sn # 12
    coordinates: [  0.879350615577143,  0.401636787467218,  0.919070438461716 ]
    mass: 118.710000
    reduced_to: 9
  - symbol: Sn # 13
    coordinates: [  0.129350615577143,  0.901636787467218,  0.919070438461716 ]
    mass: 118.710000
    reduced_to: 9
  - symbol: Sn # 14
    coordinates: [  0.379350615577143,  0.901636787467218,  0.919070438461716 ]
    mass: 118.710000
    reduced_to: 9
  - symbol: Sn # 15
    coordinates: [  0.629350615577143,  0.901636787467218,  0.919070438461716 ]
    mass: 118.710000
    reduced_to: 9
  - symbol: Sn # 16
    coordinates: [  0.879350615577143,  0.901636787467218,  0.919070438461716 ]
    mass: 118.710000
    reduced_to: 9
  - symbol: Sn # 17
    coordinates: [  0.004387290514499,  0.172145251120607,  0.280560523040445 ]
    mass: 118.710000
    reduced_to: 17
  - symbol: Sn # 18
    coordinates: [  0.254387290514499,  0.172145251120607,  0.280560523040445 ]
    mass: 118.710000
    reduced_to: 17
  - symbol: Sn # 19
    coordinates: [  0.504387290514499,  0.172145251120607,  0.280560523040445 ]
    mass: 118.710000
    reduced_to: 17
  - symbol: Sn # 20
    coordinates: [  0.754387290514499,  0.172145251120607,  0.280560523040445 ]
    mass: 118.710000
    reduced_to: 17
  - symbol: Sn # 21
    coordinates: [  0.004387290514499,  0.672145251120607,  0.280560523040445 ]
    mass: 118.710000
    reduced_to: 17
  - symbol: Sn # 22
    coordinates: [  0.254387290514499,  0.672145251120607,  0.280560523040445 ]
    mass: 118.710000
    reduced_to: 17
  - symbol: Sn # 23
    coordinates: [  0.504387290514499,  0.672145251120607,  0.280560523040445 ]
    mass: 118.710000
    reduced_to: 17
  - symbol: Sn # 24
    coordinates: [  0.754387290514499,  0.672145251120607,  0.280560523040445 ]
    mass: 118.710000
    reduced_to: 17
  - symbol: Sn # 25
    coordinates: [  0.129544079669881,  0.492682366832559,  0.373309545009719 ]
    mass: 118.710000
    reduced_to: 25
  - symbol: Sn # 26
    coordinates: [  0.379544079669881,  0.492682366832559,  0.373309545009719 ]
    mass: 118.710000
    reduced_to: 25
  - symbol: Sn # 27
    coordinates: [  0.629544079669881,  0.492682366832559,  0.373309545009719 ]
    mass: 118.710000
    reduced_to: 25
  - symbol: Sn # 28
    coordinates: [  0.879544079669881,  0.492682366832559,  0.373309545009719 ]
    mass: 118.710000
    reduced_to: 25
  - symbol: Sn # 29
    coordinates: [  0.129544079669881,  0.992682366832559,  0.373309545009719 ]
    mass: 118.710000
    reduced_to: 25
  - symbol: Sn # 30
    coordinates: [  0.379544079669881,  0.992682366832559,  0.373309545009719 ]
    mass: 118.710000
    reduced_to: 25
  - symbol: Sn # 31
    coordinates: [  0.629544079669881,  0.992682366832559,  0.373309545009719 ]
    mass: 118.710000
    reduced_to: 25
  - symbol: Sn # 32
    coordinates: [  0.879544079669881,  0.992682366832559,  0.373309545009719 ]
    mass: 118.710000
    reduced_to: 25
  - symbol: Sn # 33
    coordinates: [  0.129492351035994,  0.351554227149393,  0.186362324961311 ]
    mass: 118.710000
    reduced_to: 33
  - symbol: Sn # 34
    coordinates: [  0.379492351035994,  0.351554227149393,  0.186362324961311 ]
    mass: 118.710000
    reduced_to: 33
  - symbol: Sn # 35
    coordinates: [  0.629492351035994,  0.351554227149393,  0.186362324961311 ]
    mass: 118.710000
    reduced_to: 33
  - symbol: Sn # 36
    coordinates: [  0.879492351035994,  0.351554227149393,  0.186362324961311 ]
    mass: 118.710000
    reduced_to: 33
  - symbol: Sn # 37
    coordinates: [  0.129492351035994,  0.851554227149393,  0.186362324961311 ]
    mass: 118.710000
    reduced_to: 33
  - symbol: Sn # 38
    coordinates: [  0.379492351035994,  0.851554227149393,  0.186362324961311 ]
    mass: 118.710000
    reduced_to: 33
  - symbol: Sn # 39
    coordinates: [  0.629492351035994,  0.851554227149393,  0.186362324961311 ]
    mass: 118.710000
    reduced_to: 33
  - symbol: Sn # 40
    coordinates: [  0.879492351035994,  0.851554227149393,  0.186362324961311 ]
    mass: 118.710000
    reduced_to: 33
  - symbol: Sn # 41
    coordinates: [  0.129533274116046,  0.043250549726822,  0.103477057925434 ]
    mass: 118.710000
    reduced_to: 41
  - symbol: Sn # 42
    coordinates: [  0.379533274116046,  0.043250549726822,  0.103477057925434 ]
    mass: 118.710000
    reduced_to: 41
  - symbol: Sn # 43
    coordinates: [  0.629533274116046,  0.043250549726822,  0.103477057925434 ]
    mass: 118.710000
    reduced_to: 41
  - symbol: Sn # 44
    coordinates: [  0.879533274116046,  0.043250549726822,  0.103477057925434 ]
    mass: 118.710000
    reduced_to: 41
  - symbol: Sn # 45
    coordinates: [  0.129533274116046,  0.543250549726822,  0.103477057925434 ]
    mass: 118.710000
    reduced_to: 41
  - symbol: Sn # 46
    coordinates: [  0.379533274116046,  0.543250549726822,  0.103477057925434 ]
    mass: 118.710000
    reduced_to: 41
  - symbol: Sn # 47
    coordinates: [  0.629533274116046,  0.543250549726822,  0.103477057925434 ]
    mass: 118.710000
    reduced_to: 41
  - symbol: Sn # 48
    coordinates: [  0.879533274116046,  0.543250549726822,  0.103477057925434 ]
    mass: 118.710000
    reduced_to: 41
  - symbol: Sn # 49
    coordinates: [  0.004443835122429,  0.216802549776958,  0.005738559506409 ]
    mass: 118.710000
    reduced_to: 49
  - symbol: Sn # 50
    coordinates: [  0.254443835122429,  0.216802549776958,  0.005738559506409 ]
    mass: 118.710000
    reduced_to: 49
  - symbol: Sn # 51
    coordinates: [  0.504443835122429,  0.216802549776958,  0.005738559506409 ]
    mass: 118.710000
    reduced_to: 49
  - symbol: Sn # 52
    coordinates: [  0.754443835122429,  0.216802549776958,  0.005738559506409 ]
    mass: 118.710000
    reduced_to: 49
  - symbol: Sn # 53
    coordinates: [  0.004443835122429,  0.716802549776958,  0.005738559506409 ]
    mass: 118.710000
    reduced_to: 49
  - symbol: Sn # 54
    coordinates: [  0.254443835122429,  0.716802549776958,  0.005738559506409 ]
    mass: 118.710000
    reduced_to: 49
  - symbol: Sn # 55
    coordinates: [  0.504443835122429,  0.716802549776958,  0.005738559506409 ]
    mass: 118.710000
    reduced_to: 49
  - symbol: Sn # 56
    coordinates: [  0.754443835122429,  0.716802549776958,  0.005738559506409 ]
    mass: 118.710000
    reduced_to: 49
  - symbol: Sn # 57
    coordinates: [  0.129291700241813,  0.443427814350000,  0.640695916516658 ]
    mass: 118.710000
    reduced_to: 57
  - symbol: Sn # 58
    coordinates: [  0.379291700241813,  0.443427814350000,  0.640695916516658 ]
    mass: 118.710000
    reduced_to: 57
  - symbol: Sn # 59
    coordinates: [  0.629291700241813,  0.443427814350000,  0.640695916516658 ]
    mass: 118.710000
    reduced_to: 57
  - symbol: Sn # 60
    coordinates: [  0.879291700241813,  0.443427814350000,  0.640695916516658 ]
    mass: 118.710000
    reduced_to: 57
  - symbol: Sn # 61
    coordinates: [  0.129291700241813,  0.943427814350000,  0.640695916516658 ]
    mass: 118.710000
    reduced_to: 57
  - symbol: Sn # 62
    coordinates: [  0.379291700241813,  0.943427814350000,  0.640695916516658 ]
    mass: 118.710000
    reduced_to: 57
  - symbol: Sn # 63
    coordinates: [  0.629291700241813,  0.943427814350000,  0.640695916516658 ]
    mass: 118.710000
    reduced_to: 57
  - symbol: Sn # 64
    coordinates: [  0.879291700241813,  0.943427814350000,  0.640695916516658 ]
    mass: 118.710000
    reduced_to: 57
  - symbol: Sn # 65
    coordinates: [  0.129356415760202,  0.301343627983227,  0.457008060114185 ]
    mass: 118.710000
    reduced_to: 65
  - symbol: Sn # 66
    coordinates: [  0.379356415760202,  0.301343627983227,  0.457008060114185 ]
    mass: 118.710000
    reduced_to: 65
  - symbol: Sn # 67
    coordinates: [  0.629356415760202,  0.301343627983227,  0.457008060114185 ]
    mass: 118.710000
    reduced_to: 65
  - symbol: Sn # 68
    coordinates: [  0.879356415760202,  0.301343627983227,  0.457008060114185 ]
    mass: 118.710000
    reduced_to: 65
  - symbol: Sn # 69
    coordinates: [  0.129356415760202,  0.801343627983227,  0.457008060114185 ]
    mass: 118.710000
    reduced_to: 65
  - symbol: Sn # 70
    coordinates: [  0.379356415760202,  0.801343627983227,  0.457008060114185 ]
    mass: 118.710000
    reduced_to: 65
  - symbol: Sn # 71
    coordinates: [  0.629356415760202,  0.801343627983227,  0.457008060114185 ]
    mass: 118.710000
    reduced_to: 65
  - symbol: Sn # 72
    coordinates: [  0.879356415760202,  0.801343627983227,  0.457008060114185 ]
    mass: 118.710000
    reduced_to: 65
  - symbol: Sn # 73
    coordinates: [  0.004359559939800,  0.270647966442044,  0.741601599541986 ]
    mass: 118.710000
    reduced_to: 73
  - symbol: Sn # 74
    coordinates: [  0.254359559939800,  0.270647966442044,  0.741601599541986 ]
    mass: 118.710000
    reduced_to: 73
  - symbol: Sn # 75
    coordinates: [  0.504359559939800,  0.270647966442044,  0.741601599541986 ]
    mass: 118.710000
    reduced_to: 73
  - symbol: Sn # 76
    coordinates: [  0.754359559939800,  0.270647966442044,  0.741601599541986 ]
    mass: 118.710000
    reduced_to: 73
  - symbol: Sn # 77
    coordinates: [  0.004359559939800,  0.770647966442044,  0.741601599541986 ]
    mass: 118.710000
    reduced_to: 73
  - symbol: Sn # 78
    coordinates: [  0.254359559939800,  0.770647966442044,  0.741601599541986 ]
    mass: 118.710000
    reduced_to: 73
  - symbol: Sn # 79
    coordinates: [  0.504359559939800,  0.770647966442044,  0.741601599541986 ]
    mass: 118.710000
    reduced_to: 73
  - symbol: Sn # 80
    coordinates: [  0.754359559939800,  0.770647966442044,  0.741601599541986 ]
    mass: 118.710000
    reduced_to: 73
  - symbol: Sn # 81
    coordinates: [  0.004300274036222,  0.127600056439776,  0.555007685229093 ]
    mass: 118.710000
    reduced_to: 81
  - symbol: Sn # 82
    coordinates: [  0.254300274036222,  0.127600056439776,  0.555007685229093 ]
    mass: 118.710000
    reduced_to: 81
  - symbol: Sn # 83
    coordinates: [  0.504300274036222,  0.127600056439776,  0.555007685229093 ]
    mass: 118.710000
    reduced_to: 81
  - symbol: Sn # 84
    coordinates: [  0.754300274036222,  0.127600056439776,  0.555007685229093 ]
    mass: 118.710000
    reduced_to: 81
  - symbol: Sn # 85
    coordinates: [  0.004300274036222,  0.627600056439776,  0.555007685229093 ]
    mass: 118.710000
    reduced_to: 81
  - symbol: Sn # 86
    coordinates: [  0.254300274036222,  0.627600056439776,  0.555007685229093 ]
    mass: 118.710000
    reduced_to: 81
  - symbol: Sn # 87
    coordinates: [  0.504300274036222,  0.627600056439776,  0.555007685229093 ]
    mass: 118.710000
    reduced_to: 81
  - symbol: Sn # 88
    coordinates: [  0.754300274036222,  0.627600056439776,  0.555007685229093 ]
    mass: 118.710000
    reduced_to: 81

displacements:
- atom:    1
  displacement:
    [   0.0100000000000000,  0.0000000000000000,  0.0000000000000000 ]
  forces:
  - [  -0.0156460478901863,  0.0265913177281618,  0.0326264835894108 ]
  - [   0.0066105439327657,  0.0283014439046383,  0.0322051942348480 ]
  - [   0.0015158765017986,  0.0265828184783459,  0.0325911864638329 ]
  - [   0.0062500610947609,  0.0249079838395119,  0.0329682081937790 ]
  - [  -0.0001609272294445,  0.0265773385763168,  0.0325908102095127 ]
  - [  -0.0001611257903278,  0.0265978109091520,  0.0325936302542686 ]
  - [  -0.0001676843967289,  0.0265776347368956,  0.0325905233621597 ]
  - [  -0.0001614829816390,  0.0265574380755424,  0.0325876176357269 ]
  - [   0.0000991034321487, -0.0238325428217649, -0.0312396548688412 ]
  - [   0.0000378927215934, -0.0238390006124973, -0.0312318056821823 ]
  - [   0.0000384389422834, -0.0237548425793648, -0.0312283877283335 ]
  - [   0.0001016453607008, -0.0237633623182774, -0.0312212631106377 ]
  - [   0.0000907440989977, -0.0251848101615906, -0.0304982680827379 ]
  - [   0.0004100478254259, -0.0241816639900208, -0.0310699976980686 ]
  - [   0.0004184204153717, -0.0234128423035145, -0.0313910730183125 ]
  - [   0.0000846894254209, -0.0224621370434761, -0.0319406725466251 ]
  - [   0.0000895336270332,  0.0016639333916828, -0.0022481838241220 ]
  - [   0.0002915193326771,  0.0017062213737518, -0.0022233226336539 ]
  - [   0.0001798728480935,  0.0016637287335470, -0.0022466285154223 ]
  - [   0.0002902764827013,  0.0016197414370254, -0.0022717388346791 ]
  - [   0.0002253525890410,  0.0016621050890535, -0.0022470429539680 ]
  - [   0.0002106442116201,  0.0016682422719896, -0.0022617047652602 ]
  - [   0.0002289097756147,  0.0016620934475213, -0.0022470848634839 ]
  - [   0.0002106309693772,  0.0016558031784371, -0.0022334307432175 ]
  - [  -0.0000926360953599,  0.0181789491325617, -0.0021176799200475 ]
  - [  -0.0000917615834624,  0.0181787274777889, -0.0021176240406930 ]
  - [  -0.0000888993963599,  0.0181916188448668, -0.0021258550696075 ]
  - [  -0.0000927112996578,  0.0181924290955067, -0.0021266741678119 ]
  - [  -0.0000406396575272,  0.0182319432497025, -0.0021908348426223 ]
  - [  -0.0001312405802310,  0.0181953348219395, -0.0021299757063389 ]
  - [  -0.0001350350212306,  0.0181711260229349, -0.0021135043352842 ]
  - [  -0.0000377506949008,  0.0181357041001320, -0.0020527727901936 ]
  - [   0.0000427624618169, -0.0179555919021368,  0.0052017956040800 ]
  - [   0.0000028931535780, -0.0179828405380249,  0.0051762307994068 ]
  - [   0.0000064424239099, -0.0179608948528767,  0.0051883244886994 ]
  - [   0.0000389704728150, -0.0179894026368856,  0.0051624057814479 ]
  - [   0.0000513481463713, -0.0181927997618914,  0.0054531851783395 ]
  - [  -0.0000172937288880, -0.0179079025983810,  0.0051383096724749 ]
  - [  -0.0000180560164154, -0.0180327743291855,  0.0052277483046055 ]
  - [   0.0000523078779224, -0.0177476666867733,  0.0049130152910948 ]
  - [  -0.0006066994974390,  0.0049888696521521, -0.0221501532942057 ]
  - [   0.0000797394895926,  0.0049507599323988, -0.0221348833292723 ]
  - [   0.0000843807356432,  0.0049500539898872, -0.0228420831263065 ]
  - [  -0.0006095486460254,  0.0049103591591120, -0.0228218901902437 ]
  - [  -0.0002016257494688,  0.0049511976540089, -0.0224950946867466 ]
  - [  -0.0002059809630737,  0.0049576396122575, -0.0224980935454369 ]
  - [  -0.0002068830654025,  0.0049442462623119, -0.0224824883043766 ]
  - [  -0.0002009042073041,  0.0049526253715158, -0.0224833618849516 ]
  - [  -0.0000193880405277,  0.0153280207887292,  0.0255056768655777 ]
  - [   0.0001543737016618,  0.0155082596465945,  0.0255769621580839 ]
  - [  -0.0000101763289422,  0.0153280152007937,  0.0255070049315691 ]
  - [   0.0001261217985302,  0.0151507686823606,  0.0254428461194038 ]
  - [   0.0000016334306565,  0.0153261078521609,  0.0255066864192486 ]
  - [   0.0000976948067546,  0.0153262102976441,  0.0255157761275768 ]
  - [   0.0000485289601784,  0.0153261851519346,  0.0255068670958281 ]
  - [   0.0000980925324257,  0.0153255797922611,  0.0254981294274330 ]
  - [   0.0001500845828559,  0.0175821073353291,  0.0352584868669510 ]
  - [   0.0001317081041634,  0.0175624117255211,  0.0352684482932091 ]
  - [   0.0001325642806478,  0.0175602342933416,  0.0352760627865791 ]
  - [   0.0001501312362961,  0.0175405405461788,  0.0352867394685745 ]
  - [   0.0000282720429823,  0.0167070217430592,  0.0341844782233238 ]
  - [   0.0003758007951546,  0.0172976925969124,  0.0350353904068470 ]
  - [   0.0003859155694954,  0.0178235210478306,  0.0355093739926815 ]
  - [   0.0000294151832350,  0.0183783397078514,  0.0363211631774902 ]
  - [   0.0000388621701859, -0.0082008559256792,  0.0211732219904661 ]
  - [  -0.0000287829316221, -0.0082198129966855,  0.0211720205843449 ]
  - [  -0.0000274883350357, -0.0081793330609798,  0.0211170855909586 ]
  - [   0.0000389629203710, -0.0082001909613609,  0.0211181528866291 ]
  - [   0.0000233495684370, -0.0083320522680879,  0.0210296660661697 ]
  - [  -0.0000019057770260, -0.0081699443981051,  0.0211846530437469 ]
  - [  -0.0000034169061109, -0.0082265054807067,  0.0211038328707218 ]
  - [   0.0000257788560702, -0.0080654844641685,  0.0212566219270229 ]
  - [   0.0001236908137798, -0.0238797795027494, -0.0355206094682217 ]
  - [  -0.0000907727517188, -0.0239187739789486, -0.0355039238929749 ]
  - [  -0.0000771558843553, -0.0238777548074722, -0.0355215892195702 ]
  - [  -0.0001148900773842, -0.0238288473337889, -0.0355404354631901 ]
  - [  -0.0002638618461788, -0.0238761380314827, -0.0355213694274426 ]
  - [   0.0001055723987520, -0.0240119751542807, -0.0355547964572906 ]
  - [  -0.0000935266725719, -0.0238793976604939, -0.0355206355452538 ]
  - [   0.0001047893747455, -0.0237430687993765, -0.0354863330721855 ]
  - [  -0.0002230710815638, -0.0104195559397340, -0.0260781608521938 ]
  - [   0.0000785691663623, -0.0103092556819320, -0.0264694206416607 ]
  - [  -0.0000912453033379, -0.0104160867631435, -0.0260885320603848 ]
  - [   0.0000300963874906, -0.0105207860469818, -0.0257337801158428 ]
  - [  -0.0000282353139482, -0.0104180518537760, -0.0260879825800657 ]
  - [  -0.0000241114757955, -0.0104072298854589, -0.0260754302144051 ]
  - [  -0.0000259503140114, -0.0104174446314573, -0.0260864458978176 ]
  - [  -0.0000241457019001, -0.0104288477450609, -0.0260973311960697 ]
- atom:    1
  displacement:
    [  -0.0100000000000000,  0.0000000000000000,  0.0000000000000000 ]
  forces:
  - [   0.0153178367763758,  0.0265840664505959,  0.0325966179370880 ]
  - [  -0.0065774233080447,  0.0249071307480335,  0.0329676121473312 ]
  - [  -0.0018392410129309,  0.0265807490795851,  0.0325912758708000 ]
  - [  -0.0069367461837828,  0.0282999761402607,  0.0322047583758831 ]
  - [  -0.0001659718109295,  0.0265780277550220,  0.0325907878577709 ]
  - [  -0.0001632468774915,  0.0265578702092171,  0.0325879454612732 ]
  - [  -0.0001588407321833,  0.0265774242579937,  0.0325906239449978 ]
  - [  -0.0001636044180486,  0.0265971422195435,  0.0325933136045933 ]
  - [   0.0000360226258636, -0.0237627271562815, -0.0312220826745033 ]
  - [   0.0000988938845694, -0.0237552672624588, -0.0312296524643898 ]
  - [   0.0000995495356619, -0.0238385424017906, -0.0312308557331562 ]
  - [   0.0000376559073629, -0.0238328184932470, -0.0312383472919464 ]
  - [   0.0000532370686415, -0.0224540755152702, -0.0319447740912437 ]
  - [  -0.0002776188775897, -0.0234147105365992, -0.0313907600939274 ]
  - [  -0.0002743727527559, -0.0241840034723282, -0.0310694668442011 ]
  - [   0.0000449345243396, -0.0251803901046515, -0.0305003747344017 ]
  - [   0.0003485591150820,  0.0016644704155624, -0.0022480282932520 ]
  - [   0.0001468644477427,  0.0016202601836994, -0.0022715213708580 ]
  - [   0.0002585281617939,  0.0016637432854623, -0.0022469717077911 ]
  - [   0.0001456314930692,  0.0017047066939995, -0.0022224509157240 ]
  - [   0.0002124425955117,  0.0016619936795905, -0.0022469838149846 ]
  - [   0.0002274881117046,  0.0016557651106268, -0.0022331392392516 ]
  - [   0.0002080830745399,  0.0016620677197352, -0.0022471975535154 ]
  - [   0.0002277664316352,  0.0016683728899807, -0.0022620037198067 ]
  - [  -0.0000913168769330,  0.0181923024356365, -0.0021261682268232 ]
  - [  -0.0000931553076953,  0.0181920211762190, -0.0021261221263558 ]
  - [  -0.0000903825275600,  0.0181788597255945, -0.0021174480207264 ]
  - [  -0.0000915899872780,  0.0181794315576553, -0.0021177460439503 ]
  - [  -0.0001456625759602,  0.0181362777948380, -0.0020528314635158 ]
  - [  -0.0000457572750747,  0.0181706286966801, -0.0021123732440174 ]
  - [  -0.0000493857078254,  0.0181954149156809, -0.0021308744326234 ]
  - [  -0.0001427100505680,  0.0182305388152599, -0.0021916576661170 ]
  - [  -0.0000111165063572, -0.0179893653839827,  0.0051622400060296 ]
  - [   0.0000211382284760, -0.0179621167480946,  0.0051886085420847 ]
  - [   0.0000245003029704, -0.0179812852293253,  0.0051762750372291 ]
  - [  -0.0000148558847286, -0.0179555937647820,  0.0052015203982592 ]
  - [  -0.0000257000519923, -0.0177472196519375,  0.0049129268154502 ]
  - [   0.0000445162877440, -0.0180324893444777,  0.0052281375974417 ]
  - [   0.0000439197756350, -0.0179085284471512,  0.0051373988389969 ]
  - [  -0.0000235236057051, -0.0181930437684059,  0.0054530254565179 ]
  - [   0.0002025474095717,  0.0049096466973424, -0.0228194128721952 ]
  - [  -0.0004926187684759,  0.0049494337290525, -0.0228426754474640 ]
  - [  -0.0004874058067799,  0.0049509983509779, -0.0221341587603092 ]
  - [   0.0002008534502238,  0.0049906671047211, -0.0221536662429571 ]
  - [  -0.0002069351030514,  0.0049524297937751, -0.0224823951721191 ]
  - [  -0.0002006442518905,  0.0049436120316386, -0.0224812887609005 ]
  - [  -0.0002017203951254,  0.0049583036452532, -0.0224992968142033 ]
  - [  -0.0002062467392534,  0.0049515459686518, -0.0224959701299667 ]
  - [   0.0001823315396905,  0.0153280515223742,  0.0255045406520367 ]
  - [   0.0000345739535987,  0.0151515379548073,  0.0254414733499289 ]
  - [   0.0001734239049256,  0.0153282238170505,  0.0255067758262157 ]
  - [   0.0000062471808633,  0.0155081916600466,  0.0255783759057522 ]
  - [   0.0001584435231052,  0.0153262279927731,  0.0255062486976385 ]
  - [   0.0000656992197037,  0.0153258852660656,  0.0254962053149939 ]
  - [   0.0001128332369262,  0.0153266470879316,  0.0255068652331829 ]
  - [   0.0000657570053590,  0.0153257790952921,  0.0255179684609175 ]
  - [   0.0001192757044919,  0.0175395477563143,  0.0352869555354118 ]
  - [   0.0001370508980472,  0.0175596997141838,  0.0352764613926411 ]
  - [   0.0001383411581628,  0.0175624266266823,  0.0352685153484344 ]
  - [   0.0001191496194224,  0.0175831541419029,  0.0352578684687614 ]
  - [   0.0002424553094897,  0.0183853525668383,  0.0363295078277588 ]
  - [  -0.0001118704094552,  0.0178233832120895,  0.0355088077485561 ]
  - [  -0.0001093856699299,  0.0172967500984669,  0.0350349172949791 ]
  - [   0.0002374860050622,  0.0167134553194046,  0.0341920107603073 ]
  - [  -0.0000335137156071, -0.0081998342648149,  0.0211166478693485 ]
  - [   0.0000314708449878, -0.0081790657714009,  0.0211177319288254 ]
  - [   0.0000336193479598, -0.0082201827317476,  0.0211717840284109 ]
  - [  -0.0000350589943992, -0.0082001714035869,  0.0211739391088486 ]
  - [  -0.0000206173463084, -0.0080655170604587,  0.0212583318352699 ]
  - [   0.0000071040703915, -0.0082263816148043,  0.0211039241403341 ]
  - [   0.0000058587174863, -0.0081690829247236,  0.0211851783096790 ]
  - [  -0.0000177634083229, -0.0083314813673496,  0.0210276134312153 ]
  - [  -0.0001974278129637, -0.0238780919462442, -0.0355206876993179 ]
  - [   0.0000400622375309, -0.0238341391086578, -0.0355390459299088 ]
  - [   0.0000034850090742, -0.0238785650581121, -0.0355209968984127 ]
  - [   0.0000286943450192, -0.0239254571497440, -0.0355035811662674 ]
  - [   0.0001939716748893, -0.0238763801753521, -0.0355212911963463 ]
  - [  -0.0001783175393939, -0.0237426161766052, -0.0354858152568340 ]
  - [   0.0000232323072851, -0.0238788202404976, -0.0355205275118351 ]
  - [  -0.0001789210073184, -0.0240128729492426, -0.0355545133352280 ]
  - [   0.0001716438273434, -0.0104161687195301, -0.0260875057429075 ]
  - [  -0.0000972957350314, -0.0105240996927023, -0.0257185399532318 ]
  - [   0.0000386597166653, -0.0104165542870760, -0.0260868910700083 ]
  - [  -0.0001116781495512, -0.0103101897984743, -0.0264563616365194 ]
  - [  -0.0000236219493672, -0.0104180816560984, -0.0260879658162594 ]
  - [  -0.0000281194224954, -0.0104293646290898, -0.0260987877845764 ]
  - [  -0.0000223877723329, -0.0104177165776491, -0.0260862708091736 ]
  - [  -0.0000280595850199, -0.0104071702808142, -0.0260742790997028 ]
- atom:    1
  displacement:
    [  -0.0000002923375745,  0.0099999999957269,  0.0000000000000000 ]
  forces:
  - [  -0.0001607513986528,  0.0132607193663716,  0.0324419140815735 ]
  - [  -0.0018673585727811,  0.0259637143462896,  0.0324703864753246 ]
  - [  -0.0001611481420696,  0.0266021378338337,  0.0325761660933495 ]
  - [   0.0015425882302225,  0.0259635820984840,  0.0324712693691254 ]
  - [  -0.0001634745276533,  0.0263895876705647,  0.0325881391763687 ]
  - [  -0.0001820502802730,  0.0264982059597969,  0.0325861088931561 ]