# Thermal properties / unit cell (natom)

unit:
  temperature:   K
  free_energy:   kJ/mol
  entropy:       J/K/mol
  heat_capacity: J/K/mol

natom: 4    
cutoff_frequency: 0.00000
num_modes: 271188
num_integrated_modes: 271185

zero_point_energy:      16.5292794

thermal_properties:
- temperature:         0.0000000
  free_energy:        16.5292794
  entropy:             0.0000000
  heat_capacity:       0.0000000
  energy:             16.5292794

- temperature:        10.0000000
  free_energy:        16.5290706
  entropy:             0.0985186
  heat_capacity:       0.3948394
  energy:             16.5300558

- temperature:        20.0000000
  free_energy:        16.5227980
  entropy:             1.5407860
  heat_capacity:       5.1988348
  energy:             16.5536137

- temperature:        30.0000000
  free_energy:        16.4915911
  entropy:             4.9182910
  heat_capacity:      11.7617199
  energy:             16.6391399

- temperature:        40.0000000
  free_energy:        16.4219290
  entropy:             9.0792721
  heat_capacity:      17.2889541
  energy:             16.7850999

- temperature:        50.0000000
  free_energy:        16.3092394
  entropy:            13.4821074
  heat_capacity:      22.3289981
  energy:             16.9833448

- temperature:        60.0000000
  free_energy:        16.1519326
  entropy:            17.9938647
  heat_capacity:      27.3231652
  energy:             17.2315644

- temperature:        70.0000000
  free_energy:        15.9490998
  entropy:            22.5845899
  heat_capacity:      32.3762245
  energy:             17.5300211

- temperature:        80.0000000
  free_energy:        15.7000296
  entropy:            27.2384618
  heat_capacity:      37.4329816
  energy:             17.8791065

- temperature:        90.0000000
  free_energy:        15.4041879
  entropy:            31.9349355
  heat_capacity:      42.3854146
  energy:             18.2783321

- temperature:       100.0000000
  free_energy:        15.0612740
  entropy:            36.6484168
  heat_capacity:      47.1291117
  energy:             18.7261157

- temperature:       110.0000000
  free_energy:        14.6712532
  entropy:            41.3518687
  heat_capacity:      51.5872443
  energy:             19.2199588

- temperature:       120.0000000
  free_energy:        14.2343547
  entropy:            46.0200137
  heat_capacity:      55.7150381
  energy:             19.7567564

- temperature:       130.0000000
  free_energy:        13.7510434
  entropy:            50.6311904
  heat_capacity:      59.4950527
  energy:             20.3330981

- temperature:       140.0000000
  free_energy:        13.2219792
  entropy:            55.1680411
  heat_capacity:      62.9297346
  energy:             20.9455049

- temperature:       150.0000000
  free_energy:        12.6479744
  entropy:            59.6174497
  heat_capacity:      66.0343808
  energy:             21.5905919

- temperature:       160.0000000
  free_energy:        12.0299531
  entropy:            63.9700898
  heat_capacity:      68.8316111
  energy:             22.2651675

- temperature:       170.0000000
  free_energy:        11.3689159
  entropy:            68.2198243
  heat_capacity:      71.3474531
  energy:             22.9662861

- temperature:       180.0000000
  free_energy:        10.6659117
  entropy:            72.3630916
  heat_capacity:      73.6087724
  energy:             23.6912682

- temperature:       190.0000000
  free_energy:         9.9220143
  entropy:            76.3983478
  heat_capacity:      75.6416998
  energy:             24.4377004

- temperature:       200.0000000
  free_energy:         9.1383049
  entropy:            80.3255895
  heat_capacity:      77.4707482
  energy:             25.2034228

- temperature:       210.0000000
  free_energy:         8.3158588
  entropy:            84.1459621
  heat_capacity:      79.1183840
  energy:             25.9865109

- temperature:       220.0000000
  free_energy:         7.4557354
  entropy:            87.8614466
  heat_capacity:      80.6048813
  energy:             26.7852536

- temperature:       230.0000000
  free_energy:         6.5589710
  entropy:            91.4746129
  heat_capacity:      81.9483486
  energy:             27.5981320

- temperature:       240.0000000
  free_energy:         5.6265743
  entropy:            94.9884303
  heat_capacity:      83.1648480
  energy:             28.4237976

- temperature:       250.0000000
  free_energy:         4.6595228
  entropy:            98.4061213
  heat_capacity:      84.2685637
  energy:             29.2610532

- temperature:       260.0000000
  free_energy:         3.6587611
  entropy:           101.7310524
  heat_capacity:      85.2719868
  energy:             30.1088347

- temperature:       270.0000000
  free_energy:         2.6251996
  entropy:           104.9666511
  heat_capacity:      86.1861010
  energy:             30.9661954

- temperature:       280.0000000
  free_energy:         1.5597144
  entropy:           108.1163462
  heat_capacity:      87.0205596
  energy:             31.8322914

- temperature:       290.0000000
  free_energy:         0.4631477
  entropy:           111.1835232
  heat_capacity:      87.7838472
  energy:             32.7063694

- temperature:       300.0000000
  free_energy:        -0.6636920
  entropy:           114.1714935
  heat_capacity:      88.4834262
  energy:             33.5877560

- temperature:       310.0000000
  free_energy:        -1.8200289
  entropy:           117.0834725
  heat_capacity:      89.1258664
  energy:             34.4758476

- temperature:       320.0000000
  free_energy:        -3.0051185
  entropy:           119.9225651
  heat_capacity:      89.7169595
  energy:             35.3701023

- temperature:       330.0000000
  free_energy:        -4.2182472
  entropy:           122.6917573
  heat_capacity:      90.2618186
  energy:             36.2700327

- temperature:       340.0000000
  free_energy:        -5.4587302
  entropy:           125.3939115
  heat_capacity:      90.7649656
  energy:             37.1751997

- temperature:       350.0000000
  free_energy:        -6.7259111
  entropy:           128.0317643
  heat_capacity:      91.2304061
  energy:             38.0852064

- temperature:       360.0000000
  free_energy:        -8.0191599
  entropy:           130.6079275
  heat_capacity:      91.6616950
  energy:             38.9996940

- temperature:       370.0000000
  free_energy:        -9.3378723
  entropy:           133.1248902
  heat_capacity:      92.0619931
  energy:             39.9183370

- temperature:       380.0000000
  free_energy:       -10.6814683
  entropy:           135.5850217
  heat_capacity:      92.4341163
  energy:             40.8408400

- temperature:       390.0000000
  free_energy:       -12.0493908
  entropy:           137.9905762
  heat_capacity:      92.7805777
  energy:             41.7669339

- temperature:       400.0000000
  free_energy:       -13.4411050
  entropy:           140.3436964
  heat_capacity:      93.1036246
  energy:             42.6963735

- temperature:       410.0000000
  free_energy:       -14.8560968
  entropy:           142.6464191
  heat_capacity:      93.4052701
  energy:             43.6289350

- temperature:       420.0000000
  free_energy:       -16.2938719
  entropy:           144.9006798
  heat_capacity:      93.6873214
  energy:             44.5644136

- temperature:       430.0000000
  free_energy:       -17.7539550
  entropy:           147.1083176
  heat_capacity:      93.9514034
  energy:             45.5026216

- temperature:       440.0000000
  free_energy:       -19.2358887
  entropy:           149.2710803
  heat_capacity:      94.1989799
  energy:             46.4433867

- temperature:       450.0000000
  free_energy:       -20.7392326
  entropy:           151.3906292
  heat_capacity:      94.4313717
  energy:             47.3865506

- temperature:       460.0000000
  free_energy:       -22.2635625
  entropy:           153.4685434
  heat_capacity:      94.6497729
  energy:             48.3319675

- temperature:       470.0000000
  free_energy:       -23.8084697
  entropy:           155.5063248
  heat_capacity:      94.8552649
  energy:             49.2795030

- temperature:       480.0000000
  free_energy:       -25.3735600
  entropy:           157.5054021
  heat_capacity:      95.0488283
  energy:             50.2290330

- temperature:       490.0000000
  free_energy:       -26.9584532
  entropy:           159.4671347
  heat_capacity:      95.2313540
  energy:             51.1804428

- temperature:       500.0000000
  free_energy:       -28.5627825
  entropy:           161.3928171
  heat_capacity:      95.4036529
  energy:             52.1336260

- temperature:       510.0000000
  free_energy:       -30.1861935
  entropy:           163.2836819
  heat_capacity:      95.5664637
  energy:             53.0884842

- temperature:       520.0000000
  free_energy:       -31.8283440
  entropy:           165.1409037
  heat_capacity:      95.7204606
  energy:             54.0449259

- temperature:       530.0000000
  free_energy:       -33.4889032
  entropy:           166.9656025
  heat_capacity:      95.8662601
  energy:             55.0028661

- temperature:       540.0000000
  free_energy:       -35.1675512
  entropy:           168.7588461
  heat_capacity:      96.0044263
  energy:             55.9622257

- temperature:       550.0000000
  free_energy:       -36.8639787
  entropy:           170.5216538
  heat_capacity:      96.1354761
  energy:             56.9229309

- temperature:       560.0000000
  free_energy:       -38.5778861
  entropy:           172.2549985
  heat_capacity:      96.2598843
  energy:             57.8849131

- temperature:       570.0000000
  free_energy:       -40.3089835
  entropy:           173.9598096
  heat_capacity:      96.3780869
  energy:             58.8481079

- temperature:       580.0000000
  free_energy:       -42.0569901
  entropy:           175.6369752
  heat_capacity:      96.4904854
  energy:             59.8124555

- temperature:       590.0000000
  free_energy:       -43.8216337
  entropy:           177.2873445
  heat_capacity:      96.5974495
  energy:             60.7778995

- temperature:       600.0000000
  free_energy:       -45.6026504
  entropy:           178.9117298
  heat_capacity:      96.6993204
  energy:             61.7443875

- temperature:       610.0000000
  free_energy:       -47.3997843
  entropy:           180.5109087
  heat_capacity:      96.7964131
  energy:             62.7118700

- temperature:       620.0000000
  free_energy:       -49.2127870
  entropy:           182.0856256
  heat_capacity:      96.8890190
  energy:             63.6803008

- temperature:       630.0000000
  free_energy:       -51.0414176
  entropy:           183.6365936
  heat_capacity:      96.9774077
  energy:             64.6496363

- temperature:       640.0000000
  free_energy:       -52.8854420
  entropy:           185.1644965
  heat_capacity:      97.0618292
  energy:             65.6198357

- temperature:       650.0000000
  free_energy:       -54.7446329
  entropy:           186.6699898
  heat_capacity:      97.1425153
  energy:             66.5908605

- temperature:       660.0000000
  free_energy:       -56.6187692
  entropy:           188.1537023
  heat_capacity:      97.2196813
  energy:             67.5626743

- temperature:       670.0000000
  free_energy:       -58.5076363
  entropy:           189.6162379
  heat_capacity:      97.2935273
  energy:             68.5352430

- temperature:       680.0000000
  free_energy:       -60.4110253
  entropy:           191.0581761
  heat_capacity:      97.3642396
  energy:             69.5085344

- temperature:       690.0000000
  free_energy:       -62.3287331
  entropy:           192.4800740
  heat_capacity:      97.4319916
  energy:             70.4825180

- temperature:       700.0000000
  free_energy:       -64.2605618
  entropy:           193.8824667
  heat_capacity:      97.4969451
  energy:             71.4571649

- temperature:       710.0000000
  free_energy:       -66.2063191
  entropy:           195.2658692
  heat_capacity:      97.5592509
  energy:             72.4324480

- temperature:       720.0000000
  free_energy:       -68.1658175
  entropy:           196.6307766
  heat_capacity:      97.6190501
  energy:             73.4083416

- temperature:       730.0000000
  free_energy:       -70.1388746
  entropy:           197.9776653
  heat_capacity:      97.6764743
  energy:             74.3848211

- temperature:       740.0000000
  free_energy:       -72.1253123
  entropy:           199.3069944
  heat_capacity:      97.7316468
  energy:             75.3618636

- temperature:       750.0000000
  free_energy:       -74.1249574
  entropy:           200.6192058
  heat_capacity:      97.7846832
  energy:             76.3394469

- temperature:       760.0000000
  free_energy:       -76.1376408
  entropy:           201.9147253
  heat_capacity:      97.8356914
  energy:             77.3175505

- temperature:       770.0000000
  free_energy:       -78.1631976
  entropy:           203.1939636
  heat_capacity:      97.8847731
  energy:             78.2961544

- temperature:       780.0000000
  free_energy:       -80.2014671
  entropy:           204.4573166
  heat_capacity:      97.9320235
  energy:             79.2752398

- temperature:       790.0000000
  free_energy:       -82.2522923
  entropy:           205.7051662
  heat_capacity:      97.9775319
  energy:             80.2547890

- temperature:       800.0000000
  free_energy:       -84.3155200
  entropy:           206.9378812
  heat_capacity:      98.0213826
  energy:             81.2347849

- temperature:       810.0000000
  free_energy:       -86.3910007
  entropy:           208.1558174
  heat_capacity:      98.0636545
  energy:             82.2152114

- temperature:       820.0000000
  free_energy:       -88.4785882
  entropy:           209.3593186
  heat_capacity:      98.1044222
  energy:             83.1960530

- temperature:       830.0000000
  free_energy:       -90.5781400
  entropy:           210.5487170
  heat_capacity:      98.1437558
  energy:             84.1772951

- temperature:       840.0000000
  free_energy:       -92.6895166
  entropy:           211.7243336
  heat_capacity:      98.1817215
  energy:             85.1589236

- temperature:       850.0000000
  free_energy:       -94.8125818
  entropy:           212.8864788
  heat_capacity:      98.2183817
  energy:             86.1409252

- temperature:       860.0000000
  free_energy:       -96.9472023
  entropy:           214.0354527
  heat_capacity:      98.2537952
  energy:             87.1232871

- temperature:       870.0000000
  free_energy:       -99.0932479
  entropy:           215.1715460
  heat_capacity:      98.2880176
  energy:             88.1059971

- temperature:       880.0000000
  free_energy:      -101.2505912
  entropy:           216.2950396
  heat_capacity:      98.3211016
  energy:             89.0890436

- temperature:       890.0000000
  free_energy:      -103.4191076
  entropy:           217.4062057
  heat_capacity:      98.3530967
  energy:             90.0724155

- temperature:       900.0000000
  free_energy:      -105.5986751
  entropy:           218.5053080
  heat_capacity:      98.3840502
  energy:             91.0561021

- temperature:       910.0000000
  free_energy:      -107.7891744
  entropy:           219.5926017
  heat_capacity:      98.4140065
  energy:             92.0400932

- temperature:       920.0000000
  free_energy:      -109.9904886
  entropy:           220.6683344
  heat_capacity:      98.4430078
  energy:             93.0243790

- temperature:       930.0000000
  free_energy:      -112.2025034
  entropy:           221.7327458
  heat_capacity:      98.4710940
  energy:             94.0089503

- temperature:       940.0000000
  free_energy:      -114.4251066
  entropy:           222.7860687
  heat_capacity:      98.4983033
  energy:             94.9937980

- temperature:       950.0000000
  free_energy:      -116.6581885
  entropy:           223.8285285
  heat_capacity:      98.5246714
  energy:             95.9789135

- temperature:       960.0000000
  free_energy:      -118.9016417
  entropy:           224.8603442
  heat_capacity:      98.5502327
  energy:             96.9642887

- temperature:       970.0000000
  free_energy:      -121.1553606
  entropy:           225.8817281
  heat_capacity:      98.5750195
  energy:             97.9499156

- temperature:       980.0000000
  free_energy:      -123.4192421
  entropy:           226.8928865
  heat_capacity:      98.5990627
  energy:             98.9357866

- temperature:       990.0000000
  free_energy:      -125.6931849
  entropy:           227.8940196
  heat_capacity:      98.6223917
  energy:             99.9218945

- temperature:      1000.0000000
  free_energy:      -127.9770898
  entropy:           228.8853219
  heat_capacity:      98.6450344
  energy:            100.9082322
