phonopy:
  version: "2.37.1"
  frequency_unit_conversion_factor: 15.633302
  symmetry_tolerance: 1.00000e-05

space_group:
  type: "Fm-3m"
  number: 225
  Hall_symbol: "-F 4 2 3"

primitive_matrix:
- [  0.000000000000000,  1.000000000000000,  0.000000000000000 ]
- [ -0.000000000000000,  0.000000000000000,  1.000000000000000 ]
- [  1.000000000000000,  0.000000000000000, -0.000000000000000 ]

supercell_matrix:
- [   3,   0,   0 ]
- [   0,   3,   0 ]
- [   0,   0,   3 ]

primitive_cell:
  lattice:
  - [     2.324709005000000,     1.342171369824297,     3.796233908468790 ] # a
  - [     4.649418009999999,     0.000000000000000,     0.000000000000000 ] # b
  - [     2.324709005000000,     4.026514109472890,    -0.000000000000000 ] # c
  points:
  - symbol: Li # 1
    coordinates: [  0.250000000000000,  0.250000000000000,  0.250000000000000 ]
    mass: 6.940000
  - symbol: Li # 2
    coordinates: [  0.750000000000000,  0.750000000000000,  0.750000000000000 ]
    mass: 6.940000
  - symbol: Li # 3
    coordinates: [  0.500000000000000,  0.500000000000000,  0.500000000000000 ]
    mass: 6.940000
  - symbol: Sn # 4
    coordinates: [  0.000000000000000,  0.000000000000000,  0.000000000000000 ]
    mass: 118.710000
  reciprocal_lattice: # without 2pi
  - [     0.000000000000000,     0.000000000000000,     0.263418963138483 ] # a*
  - [     0.215080682754098,    -0.124176890085567,    -0.087806321046161 ] # b*
  - [     0.000000000000000,     0.248353780171134,    -0.087806321046161 ] # c*

unit_cell:
  lattice:
  - [     4.649418010000000,     0.000000000000000,     0.000000000000000 ] # a
  - [     2.324709005000000,     4.026514109472891,     0.000000000000000 ] # b
  - [     2.324709005000000,     1.342171369824297,     3.796233908468791 ] # c
  points:
  - symbol: Li # 1
    coordinates: [  0.250000000000000,  0.250000000000000,  0.250000000000000 ]
    mass: 6.940000
    reduced_to: 1
  - symbol: Li # 2
    coordinates: [  0.750000000000000,  0.750000000000000,  0.750000000000000 ]
    mass: 6.940000
    reduced_to: 2
  - symbol: Li # 3
    coordinates: [  0.500000000000000,  0.500000000000000,  0.500000000000000 ]
    mass: 6.940000
    reduced_to: 3
  - symbol: Sn # 4
    coordinates: [  0.000000000000000,  0.000000000000000,  0.000000000000000 ]
    mass: 118.710000
    reduced_to: 4

supercell:
  lattice:
  - [    13.948254029999999,     0.000000000000000,     0.000000000000000 ] # a
  - [     6.974127015000001,    12.079542328418672,     0.000000000000000 ] # b
  - [     6.974127015000001,     4.026514109472892,    11.388701725406374 ] # c
  points:
  - symbol: Li # 1
    coordinates: [  0.083333333333333,  0.083333333333333,  0.083333333333333 ]
    mass: 6.940000
    reduced_to: 1
  - symbol: Li # 2
    coordinates: [  0.416666666666667,  0.083333333333333,  0.083333333333333 ]
    mass: 6.940000
    reduced_to: 1
  - symbol: Li # 3
    coordinates: [  0.750000000000000,  0.083333333333333,  0.083333333333333 ]
    mass: 6.940000
    reduced_to: 1
  - symbol: Li # 4
    coordinates: [  0.083333333333333,  0.416666666666667,  0.083333333333333 ]
    mass: 6.940000
    reduced_to: 1
  - symbol: Li # 5
    coordinates: [  0.416666666666667,  0.416666666666667,  0.083333333333333 ]
    mass: 6.940000
    reduced_to: 1
  - symbol: Li # 6
    coordinates: [  0.750000000000000,  0.416666666666667,  0.083333333333333 ]
    mass: 6.940000
    reduced_to: 1
  - symbol: Li # 7
    coordinates: [  0.083333333333333,  0.750000000000000,  0.083333333333333 ]
    mass: 6.940000
    reduced_to: 1
  - symbol: Li # 8
    coordinates: [  0.416666666666667,  0.750000000000000,  0.083333333333333 ]
    mass: 6.940000
    reduced_to: 1
  - symbol: Li # 9
    coordinates: [  0.750000000000000,  0.750000000000000,  0.083333333333333 ]
    mass: 6.940000
    reduced_to: 1
  - symbol: Li # 10
    coordinates: [  0.083333333333333,  0.083333333333333,  0.416666666666667 ]
    mass: 6.940000
    reduced_to: 1
  - symbol: Li # 11
    coordinates: [  0.416666666666667,  0.083333333333333,  0.416666666666667 ]
    mass: 6.940000
    reduced_to: 1
  - symbol: Li # 12
    coordinates: [  0.750000000000000,  0.083333333333333,  0.416666666666667 ]
    mass: 6.940000
    reduced_to: 1
  - symbol: Li # 13
    coordinates: [  0.083333333333333,  0.416666666666667,  0.416666666666667 ]
    mass: 6.940000
    reduced_to: 1
  - symbol: Li # 14
    coordinates: [  0.416666666666667,  0.416666666666667,  0.416666666666667 ]
    mass: 6.940000
    reduced_to: 1
  - symbol: Li # 15
    coordinates: [  0.750000000000000,  0.416666666666667,  0.416666666666667 ]
    mass: 6.940000
    reduced_to: 1
  - symbol: Li # 16
    coordinates: [  0.083333333333333,  0.750000000000000,  0.416666666666667 ]
    mass: 6.940000
    reduced_to: 1
  - symbol: Li # 17
    coordinates: [  0.416666666666667,  0.750000000000000,  0.416666666666667 ]
    mass: 6.940000
    reduced_to: 1
  - symbol: Li # 18
    coordinates: [  0.750000000000000,  0.750000000000000,  0.416666666666667 ]
    mass: 6.940000
    reduced_to: 1
  - symbol: Li # 19
    coordinates: [  0.083333333333333,  0.083333333333333,  0.750000000000000 ]
    mass: 6.940000
    reduced_to: 1
  - symbol: Li # 20
    coordinates: [  0.416666666666667,  0.083333333333333,  0.750000000000000 ]
    mass: 6.940000
    reduced_to: 1
  - symbol: Li # 21
    coordinates: [  0.750000000000000,  0.083333333333333,  0.750000000000000 ]
    mass: 6.940000
    reduced_to: 1
  - symbol: Li # 22
    coordinates: [  0.083333333333333,  0.416666666666667,  0.750000000000000 ]
    mass: 6.940000
    reduced_to: 1
  - symbol: Li # 23
    coordinates: [  0.416666666666667,  0.416666666666667,  0.750000000000000 ]
    mass: 6.940000
    reduced_to: 1
  - symbol: Li # 24
    coordinates: [  0.750000000000000,  0.416666666666667,  0.750000000000000 ]
    mass: 6.940000
    reduced_to: 1
  - symbol: Li # 25
    coordinates: [  0.083333333333333,  0.750000000000000,  0.750000000000000 ]
    mass: 6.940000
    reduced_to: 1
  - symbol: Li # 26
    coordinates: [  0.416666666666667,  0.750000000000000,  0.750000000000000 ]
    mass: 6.940000
    reduced_to: 1
  - symbol: Li # 27
    coordinates: [  0.750000000000000,  0.750000000000000,  0.750000000000000 ]
    mass: 6.940000
    reduced_to: 1
  - symbol: Li # 28
    coordinates: [  0.250000000000000,  0.250000000000000,  0.250000000000000 ]
    mass: 6.940000
    reduced_to: 28
  - symbol: Li # 29
    coordinates: [  0.583333333333333,  0.250000000000000,  0.250000000000000 ]
    mass: 6.940000
    reduced_to: 28
  - symbol: Li # 30
    coordinates: [  0.916666666666667,  0.250000000000000,  0.250000000000000 ]
    mass: 6.940000
    reduced_to: 28
  - symbol: Li # 31
    coordinates: [  0.250000000000000,  0.583333333333333,  0.250000000000000 ]
    mass: 6.940000
    reduced_to: 28
  - symbol: Li # 32
    coordinates: [  0.583333333333333,  0.583333333333333,  0.250000000000000 ]
    mass: 6.940000
    reduced_to: 28
  - symbol: Li # 33
    coordinates: [  0.916666666666667,  0.583333333333333,  0.250000000000000 ]
    mass: 6.940000
    reduced_to: 28
  - symbol: Li # 34
    coordinates: [  0.250000000000000,  0.916666666666667,  0.250000000000000 ]
    mass: 6.940000
    reduced_to: 28
  - symbol: Li # 35
    coordinates: [  0.583333333333333,  0.916666666666667,  0.250000000000000 ]
    mass: 6.940000
    reduced_to: 28
  - symbol: Li # 36
    coordinates: [  0.916666666666667,  0.916666666666667,  0.250000000000000 ]
    mass: 6.940000
    reduced_to: 28
  - symbol: Li # 37
    coordinates: [  0.250000000000000,  0.250000000000000,  0.583333333333333 ]
    mass: 6.940000
    reduced_to: 28
  - symbol: Li # 38
    coordinates: [  0.583333333333333,  0.250000000000000,  0.583333333333333 ]
    mass: 6.940000
    reduced_to: 28
  - symbol: Li # 39
    coordinates: [  0.916666666666667,  0.250000000000000,  0.583333333333333 ]
    mass: 6.940000
    reduced_to: 28
  - symbol: Li # 40
    coordinates: [  0.250000000000000,  0.583333333333333,  0.583333333333333 ]
    mass: 6.940000
    reduced_to: 28
  - symbol: Li # 41
    coordinates: [  0.583333333333333,  0.583333333333333,  0.583333333333333 ]
    mass: 6.940000
    reduced_to: 28
  - symbol: Li # 42
    coordinates: [  0.916666666666667,  0.583333333333333,  0.583333333333333 ]
    mass: 6.940000
    reduced_to: 28
  - symbol: Li # 43
    coordinates: [  0.250000000000000,  0.916666666666667,  0.583333333333333 ]
    mass: 6.940000
    reduced_to: 28
  - symbol: Li # 44
    coordinates: [  0.583333333333333,  0.916666666666667,  0.583333333333333 ]
    mass: 6.940000
    reduced_to: 28
  - symbol: Li # 45
    coordinates: [  0.916666666666667,  0.916666666666667,  0.583333333333333 ]
    mass: 6.940000
    reduced_to: 28
  - symbol: Li # 46
    coordinates: [  0.250000000000000,  0.250000000000000,  0.916666666666667 ]
    mass: 6.940000
    reduced_to: 28
  - symbol: Li # 47
    coordinates: [  0.583333333333333,  0.250000000000000,  0.916666666666667 ]
    mass: 6.940000
    reduced_to: 28
  - symbol: Li # 48
    coordinates: [  0.916666666666667,  0.250000000000000,  0.916666666666667 ]
    mass: 6.940000
    reduced_to: 28
  - symbol: Li # 49
    coordinates: [  0.250000000000000,  0.583333333333333,  0.916666666666667 ]
    mass: 6.940000
    reduced_to: 28
  - symbol: Li # 50
    coordinates: [  0.583333333333333,  0.583333333333333,  0.916666666666667 ]
    mass: 6.940000
    reduced_to: 28
  - symbol: Li # 51
    coordinates: [  0.916666666666667,  0.583333333333333,  0.916666666666667 ]
    mass: 6.940000
    reduced_to: 28
  - symbol: Li # 52
    coordinates: [  0.250000000000000,  0.916666666666667,  0.916666666666667 ]
    mass: 6.940000
    reduced_to: 28
  - symbol: Li # 53
    coordinates: [  0.583333333333333,  0.916666666666667,  0.916666666666667 ]
    mass: 6.940000
    reduced_to: 28
  - symbol: Li # 54
    coordinates: [  0.916666666666667,  0.916666666666667,  0.916666666666667 ]
    mass: 6.940000
    reduced_to: 28
  - symbol: Li # 55
    coordinates: [  0.166666666666667,  0.166666666666667,  0.166666666666667 ]
    mass: 6.940000
    reduced_to: 55
  - symbol: Li # 56
    coordinates: [  0.500000000000000,  0.166666666666667,  0.166666666666667 ]
    mass: 6.940000
    reduced_to: 55
  - symbol: Li # 57
    coordinates: [  0.833333333333333,  0.166666666666667,  0.166666666666667 ]
    mass: 6.940000
    reduced_to: 55
  - symbol: Li # 58
    coordinates: [  0.166666666666667,  0.500000000000000,  0.166666666666667 ]
    mass: 6.940000
    reduced_to: 55
  - symbol: Li # 59
    coordinates: [  0.500000000000000,  0.500000000000000,  0.166666666666667 ]
    mass: 6.940000
    reduced_to: 55
  - symbol: Li # 60
    coordinates: [  0.833333333333333,  0.500000000000000,  0.166666666666667 ]
    mass: 6.940000
    reduced_to: 55
  - symbol: Li # 61
    coordinates: [  0.166666666666667,  0.833333333333333,  0.166666666666667 ]
    mass: 6.940000
    reduced_to: 55
  - symbol: Li # 62
    coordinates: [  0.500000000000000,  0.833333333333333,  0.166666666666667 ]
    mass: 6.940000
    reduced_to: 55
  - symbol: Li # 63
    coordinates: [  0.833333333333333,  0.833333333333333,  0.166666666666667 ]
    mass: 6.940000
    reduced_to: 55
  - symbol: Li # 64
    coordinates: [  0.166666666666667,  0.166666666666667,  0.500000000000000 ]
    mass: 6.940000
    reduced_to: 55
  - symbol: Li # 65
    coordinates: [  0.500000000000000,  0.166666666666667,  0.500000000000000 ]
    mass: 6.940000
    reduced_to: 55
  - symbol: Li # 66
    coordinates: [  0.833333333333333,  0.166666666666667,  0.500000000000000 ]
    mass: 6.940000
    reduced_to: 55
  - symbol: Li # 67
    coordinates: [  0.166666666666667,  0.500000000000000,  0.500000000000000 ]
    mass: 6.940000
    reduced_to: 55
  - symbol: Li # 68
    coordinates: [  0.500000000000000,  0.500000000000000,  0.500000000000000 ]
    mass: 6.940000
    reduced_to: 55
  - symbol: Li # 69
    coordinates: [  0.833333333333333,  0.500000000000000,  0.500000000000000 ]
    mass: 6.940000
    reduced_to: 55
  - symbol: Li # 70
    coordinates: [  0.166666666666667,  0.833333333333333,  0.500000000000000 ]
    mass: 6.940000
    reduced_to: 55
  - symbol: Li # 71
    coordinates: [  0.500000000000000,  0.833333333333333,  0.500000000000000 ]
    mass: 6.940000
    reduced_to: 55
  - symbol: Li # 72
    coordinates: [  0.833333333333333,  0.833333333333333,  0.500000000000000 ]
    mass: 6.940000
    reduced_to: 55
  - symbol: Li # 73
    coordinates: [  0.166666666666667,  0.166666666666667,  0.833333333333333 ]
    mass: 6.940000
    reduced_to: 55
  - symbol: Li # 74
    coordinates: [  0.500000000000000,  0.166666666666667,  0.833333333333333 ]
    mass: 6.940000
    reduced_to: 55
  - symbol: Li # 75
    coordinates: [  0.833333333333333,  0.166666666666667,  0.833333333333333 ]
    mass: 6.940000
    reduced_to: 55
  - symbol: Li # 76
    coordinates: [  0.166666666666667,  0.500000000000000,  0.833333333333333 ]
    mass: 6.940000
    reduced_to: 55
  - symbol: Li # 77
    coordinates: [  0.500000000000000,  0.500000000000000,  0.833333333333333 ]
    mass: 6.940000
    reduced_to: 55
  - symbol: Li # 78
    coordinates: [  0.833333333333333,  0.500000000000000,  0.833333333333333 ]
    mass: 6.940000
    reduced_to: 55
  - symbol: Li # 79
    coordinates: [  0.166666666666667,  0.833333333333333,  0.833333333333333 ]
    mass: 6.940000
    reduced_to: 55
  - symbol: Li # 80
    coordinates: [  0.500000000000000,  0.833333333333333,  0.833333333333333 ]
    mass: 6.940000
    reduced_to: 55
  - symbol: Li # 81
    coordinates: [  0.833333333333333,  0.833333333333333,  0.833333333333333 ]
    mass: 6.940000
    reduced_to: 55
  - symbol: Sn # 82
    coordinates: [  0.000000000000000,  0.000000000000000,  0.000000000000000 ]
    mass: 118.710000
    reduced_to: 82
  - symbol: Sn # 83
    coordinates: [  0.333333333333333,  0.000000000000000,  0.000000000000000 ]
    mass: 118.710000
    reduced_to: 82
  - symbol: Sn # 84
    coordinates: [  0.666666666666667,  0.000000000000000,  0.000000000000000 ]
    mass: 118.710000
    reduced_to: 82
  - symbol: Sn # 85
    coordinates: [  0.000000000000000,  0.333333333333333,  0.000000000000000 ]
    mass: 118.710000
    reduced_to: 82
  - symbol: Sn # 86
    coordinates: [  0.333333333333333,  0.333333333333333,  0.000000000000000 ]
    mass: 118.710000
    reduced_to: 82
  - symbol: Sn # 87
    coordinates: [  0.666666666666667,  0.333333333333333,  0.000000000000000 ]
    mass: 118.710000
    reduced_to: 82
  - symbol: Sn # 88
    coordinates: [  0.000000000000000,  0.666666666666667,  0.000000000000000 ]
    mass: 118.710000
    reduced_to: 82
  - symbol: Sn # 89
    coordinates: [  0.333333333333333,  0.666666666666667,  0.000000000000000 ]
    mass: 118.710000
    reduced_to: 82
  - symbol: Sn # 90
    coordinates: [  0.666666666666667,  0.666666666666667,  0.000000000000000 ]
    mass: 118.710000
    reduced_to: 82
  - symbol: Sn # 91
    coordinates: [  0.000000000000000,  0.000000000000000,  0.333333333333333 ]
    mass: 118.710000
    reduced_to: 82
  - symbol: Sn # 92
    coordinates: [  0.333333333333333,  0.000000000000000,  0.333333333333333 ]
    mass: 118.710000
    reduced_to: 82
  - symbol: Sn # 93
    coordinates: [  0.666666666666667,  0.000000000000000,  0.333333333333333 ]
    mass: 118.710000
    reduced_to: 82
  - symbol: Sn # 94
    coordinates: [  0.000000000000000,  0.333333333333333,  0.333333333333333 ]
    mass: 118.710000
    reduced_to: 82
  - symbol: Sn # 95
    coordinates: [  0.333333333333333,  0.333333333333333,  0.333333333333333 ]
    mass: 118.710000
    reduced_to: 82
  - symbol: Sn # 96
    coordinates: [  0.666666666666667,  0.333333333333333,  0.333333333333333 ]
    mass: 118.710000
    reduced_to: 82
  - symbol: Sn # 97
    coordinates: [  0.000000000000000,  0.666666666666667,  0.333333333333333 ]
    mass: 118.710000
    reduced_to: 82
  - symbol: Sn # 98
    coordinates: [  0.333333333333333,  0.666666666666667,  0.333333333333333 ]
    mass: 118.710000
    reduced_to: 82
  - symbol: Sn # 99
    coordinates: [  0.666666666666667,  0.666666666666667,  0.333333333333333 ]
    mass: 118.710000
    reduced_to: 82
  - symbol: Sn # 100
    coordinates: [  0.000000000000000,  0.000000000000000,  0.666666666666667 ]
    mass: 118.710000
    reduced_to: 82
  - symbol: Sn # 101
    coordinates: [  0.333333333333333,  0.000000000000000,  0.666666666666667 ]
    mass: 118.710000
    reduced_to: 82
  - symbol: Sn # 102
    coordinates: [  0.666666666666667,  0.000000000000000,  0.666666666666667 ]
    mass: 118.710000
    reduced_to: 82
  - symbol: Sn # 103
    coordinates: [  0.000000000000000,  0.333333333333333,  0.666666666666667 ]
    mass: 118.710000
    reduced_to: 82
  - symbol: Sn # 104
    coordinates: [  0.333333333333333,  0.333333333333333,  0.666666666666667 ]
    mass: 118.710000
    reduced_to: 82
  - symbol: Sn # 105
    coordinates: [  0.666666666666667,  0.333333333333333,  0.666666666666667 ]
    mass: 118.710000
    reduced_to: 82
  - symbol: Sn # 106
    coordinates: [  0.000000000000000,  0.666666666666667,  0.666666666666667 ]
    mass: 118.710000
    reduced_to: 82
  - symbol: Sn # 107
    coordinates: [  0.333333333333333,  0.666666666666667,  0.666666666666667 ]
    mass: 118.710000
    reduced_to: 82
  - symbol: Sn # 108
    coordinates: [  0.666666666666667,  0.666666666666667,  0.666666666666667 ]
    mass: 118.710000
    reduced_to: 82

displacements:
- atom:    1
  displacement:
    [   0.0100000000000000,  0.0000000000000000,  0.0000000000000000 ]
  forces:
  - [  -0.0264730118215084,  0.0001440977066522,  0.0001014685258269 ]
  - [  -0.0001946823904291, -0.0001157959923148, -0.0000820001587272 ]
  - [  -0.0001949370489456,  0.0001164118875749,  0.0000821948051453 ]
  - [   0.0000770703190938, -0.0000411689397879,  0.0001106034033000 ]
  - [  -0.0000151973217726,  0.0000000069267116, -0.0000005093170330 ]
  - [   0.0000772121129557,  0.0000407375046052, -0.0001121698878706 ]
  - [   0.0000771415652707, -0.0002705925144255,  0.0001917611807585 ]
  - [   0.0000771416816860,  0.0002757738693617, -0.0001951387384906 ]
  - [  -0.0000152240972966, -0.0000006587943062, -0.0000002532033250 ]
  - [   0.0000771632185206,  0.0000909236259758, -0.0000753002241254 ]
  - [  -0.0000152381835505, -0.0000002837041393,  0.0000005317851901 ]
  - [   0.0000772024504840, -0.0000917532015592,  0.0000762986019254 ]
  - [   0.0000042266910896, -0.0000114579452202, -0.0000075586140156 ]
  - [   0.0000042183091864,  0.0000109911779873,  0.0000082225305960 ]
  - [  -0.0000091849360615, -0.0000001451699063,  0.0000002403976396 ]
  - [  -0.0000811303034425,  0.0000005065812729,  0.0000006384216249 ]
  - [  -0.0000335649820045,  0.0000150603591464, -0.0000185614917427 ]
  - [  -0.0000326328445226, -0.0000124481157400,  0.0000201776856557 ]
  - [   0.0000771214254200,  0.0000915890559554, -0.0003180364146829 ]
  - [   0.0000771880149841, -0.0000911476090550,  0.0003259275108576 ]
  - [  -0.0000152622815222,  0.0000004442408681,  0.0000005085021257 ]
  - [  -0.0000811651116237, -0.0000022228341550,  0.0000007869675756 ]
  - [  -0.0000335138756782, -0.0000154904555529,  0.0000209556892514 ]
  - [  -0.0000326330773532,  0.0000119180185720, -0.0000178385525942 ]
  - [   0.0000042405445129, -0.0000114619033411, -0.0000070985406637 ]
  - [  -0.0000092894770205, -0.0000003165332600,  0.0000007729977369 ]
  - [   0.0000041290186346,  0.0000108528183773,  0.0000088028609753 ]
  - [  -0.0000328836031258,  0.0000052707036957,  0.0000039895530790 ]
  - [  -0.0000378168188035, -0.0000025305780582, -0.0000016185222194 ]
  - [   0.0002254701685160, -0.0000063486513682, -0.0000041493913159 ]
  - [  -0.0000422177836299, -0.0000005365582183, -0.0000000941799954 ]
  - [   0.0000137938186526, -0.0000149741536006,  0.0000049261143431 ]
  - [   0.0000139214098454,  0.0000143775250763, -0.0000047713983804 ]
  - [   0.0006267975550145, -0.0002331563737243,  0.0004530373262241 ]
  - [   0.0000392545480281,  0.0000005061738193,  0.0000000017462298 ]
  - [   0.0006102512124926,  0.0002208356745541, -0.0004367342917249 ]
  - [  -0.0000422918237746, -0.0000001108273864, -0.0000001126900315 ]
  - [   0.0000137761235237, -0.0000002821325324, -0.0000155071029440 ]
  - [   0.0000139669282362,  0.0000002249144018,  0.0000155394664034 ]
  - [   0.0000055448617786,  0.0000040602171794,  0.0000028921058401 ]
  - [  -0.0000112473499030, -0.0000002544838935, -0.0000004321336746 ]
  - [   0.0000056037679315, -0.0000050603412092, -0.0000035567209125 ]
  - [   0.0000059915473685,  0.0000038010766730,  0.0000182719668373 ]
  - [   0.0000059077283368, -0.0000055640703067, -0.0000191784929484 ]
  - [  -0.0001664197770879, -0.0000009434297681,  0.0000017903512344 ]
  - [   0.0006268247961998,  0.0003496108110994, -0.0003706514835358 ]
  - [   0.0000391288194805,  0.0000002831220627,  0.0000007655471563 ]
  - [   0.0006102111656219, -0.0003377863904461,  0.0003539472818375 ]
  - [   0.0000061632599682,  0.0000202509108931, -0.0000000195577741 ]
  - [   0.0000058701261878, -0.0000181758077815,  0.0000034625409171 ]
  - [  -0.0001664864830673,  0.0000031229574233,  0.0000008663628250 ]
  - [   0.0000231176381931, -0.0000039816486606, -0.0000007819617167 ]
  - [  -0.0010181607212871,  0.0004888643161394,  0.0003477416466922 ]
  - [  -0.0010242278221995, -0.0004982621176168, -0.0003502483014017 ]
  - [   0.0036756917834282,  0.0023223999887705,  0.0016417559236288 ]
  - [   0.0000383682199754,  0.0000005092006177, -0.0000000000000000 ]
  - [   0.0036323689855635, -0.0022779470309615, -0.0016107299597934 ]
  - [   0.0000044871703722,  0.0000199365895241,  0.0000003079185262 ]
  - [   0.0000050938688219, -0.0000191729050130, -0.0000013133976609 ]
  - [  -0.0000348539324477,  0.0000003755558282,  0.0000001025618985 ]
  - [  -0.0003296895883977,  0.0000123778299894, -0.0000029209768400 ]
  - [  -0.0000377951655537,  0.0000021505693439, -0.0001478871563450 ]
  - [  -0.0000340626575053,  0.0000008338829502,  0.0001453798031434 ]
  - [   0.0000048895017244,  0.0000077784061432,  0.0000179484486580 ]
  - [   0.0000046846107580, -0.0000072307884693, -0.0000184942036867 ]
  - [  -0.0000348399626091,  0.0000011101365089, -0.0000003166496754 ]
  - [  -0.0000079559395090, -0.0000001150183380,  0.0000000260770321 ]
  - [   0.0000039268052205,  0.0000002279412001,  0.0000005718320608 ]
  - [   0.0000039873411879, -0.0000006881309673, -0.0000004172325134 ]
  - [   0.0001448849216104, -0.0001039494527504,  0.0000859759747982 ]
  - [   0.0000026361085474, -0.0000000966247171,  0.0000001713633537 ]
  - [   0.0001447843387723,  0.0001034206943586, -0.0000856593251228 ]
  - [  -0.0003295205533504,  0.0000018812716007,  0.0000121835619211 ]
  - [  -0.0000376142561436, -0.0001378841698170,  0.0000505782663822 ]
  - [  -0.0000343434512615,  0.0001377463340759, -0.0000488739460707 ]
  - [   0.0001448004040867,  0.0000461675226688, -0.0001266859471798 ]
  - [   0.0000028721988201,  0.0000001229345798, -0.0000002048909664 ]
  - [   0.0001446940004826, -0.0000470243394375,  0.0001261234283447 ]
  - [   0.0001337545400020, -0.0002455755602568, -0.0001723859459162 ]
  - [   0.0001337869325653,  0.0002517572138458,  0.0001789592206478 ]
  - [  -0.0000629158166703, -0.0000011825468391,  0.0000005811452866 ]
  - [   0.0089145619422197,  0.0048830970190465,  0.0034523867070675 ]
  - [   0.0091546233743429, -0.0050626862794161, -0.0035803085193038 ]
  - [   0.0001615341752768, -0.0000006090849638, -0.0000015199184418 ]
  - [   0.0004220977425575, -0.0000293031334877,  0.0000111525878310 ]
  - [  -0.0000390838831663, -0.0000042356550694, -0.0000452045351267 ]
  - [  -0.0000420156866312,  0.0000046025961637,  0.0000447556376457 ]
  - [   0.0000174194574356,  0.0000855494290590, -0.0000217724591494 ]
  - [  -0.0000331513583660,  0.0000011660158634, -0.0000007823109627 ]
  - [   0.0000171139836311, -0.0000813743099570,  0.0000194711610675 ]
  - [   0.0004220455884933,  0.0000006388872862, -0.0000307988375425 ]
  - [  -0.0000393204391003, -0.0000442359596491,  0.0000118743628263 ]
  - [  -0.0000420771539211,  0.0000440571457148, -0.0000105164945126 ]
  - [  -0.0000014714896679, -0.0000084275379777, -0.0000065788626671 ]
  - [  -0.0000016484409571,  0.0000000474974513,  0.0000000596046448 ]
  - [  -0.0000017285346985,  0.0000106291845441,  0.0000073686242104 ]
  - [   0.0000251177698374, -0.0000529354438186, -0.0000174660235643 ]
  - [   0.0000252947211266,  0.0000496646389365,  0.0000176653265953 ]
  - [  -0.0000202562659979, -0.0000006826594472, -0.0000001136213541 ]
  - [   0.0000173300504684,  0.0000092461705208,  0.0000858642160892 ]
  - [  -0.0000329092144966,  0.0000010281801224, -0.0000004433095455 ]
  - [   0.0000170990824699, -0.0000081919133663, -0.0000852365046740 ]
  - [   0.0000252015888691, -0.0000333636999130, -0.0000441391021013 ]
  - [   0.0000253580510616,  0.0000338349491358,  0.0000409856438637 ]
  - [  -0.0000204183161259,  0.0000001508742571, -0.0000004172325134 ]
  - [   0.0000026859343052,  0.0000023962929845, -0.0000020321458578 ]
  - [  -0.0000011958181858, -0.0000088494271040, -0.0000101048499346 ]
  - [  -0.0000015273690224,  0.0000132024288177,  0.0000061411410570 ]
- atom:   55
  displacement:
    [   0.0100000000000000,  0.0000000000000000,  0.0000000000000000 ]
  forces:
  - [   0.0036274893209338,  0.0022754897363484,  0.0016090376302600 ]
  - [   0.0036807120777667, -0.0023243671748787, -0.0016435431316495 ]
  - [   0.0000386791653000, -0.0000000342261046,  0.0000000642612576 ]
  - [  -0.0003293865593150, -0.0000048929941840,  0.0000059965532273 ]
  - [  -0.0000376380048692, -0.0000016239355318, -0.0001605210127309 ]
  - [  -0.0000340838450938, -0.0000002188608050,  0.0001588815357536 ]
  - [   0.0000047474168241,  0.0000187481055036,  0.0000006807968020 ]
  - [  -0.0000346554443240, -0.0000008442439139,  0.0000003012828529 ]
  - [   0.0000049441587180, -0.0000201818183996, -0.0000010809162632 ]
  - [  -0.0003293867921457,  0.0000042859464884, -0.0000062687322497 ]
  - [  -0.0000376882962883, -0.0001515730982646,  0.0000524120405316 ]
  - [  -0.0000340101541951,  0.0001500470098108, -0.0000527622178197 ]
  - [   0.0001336820423603,  0.0000388929620385,  0.0000280691310763 ]
  - [  -0.0000629039714113, -0.0000005682813935,  0.0000001802109182 ]
  - [   0.0001339497976005, -0.0000412939116359, -0.0000287189614028 ]
  - [   0.0001445529051125, -0.0002362318336964, -0.0000242489622906 ]
  - [   0.0001450941199437,  0.0002484586439095,  0.0000241759698838 ]
  - [   0.0000028139911592,  0.0000009327195585,  0.0000013428507373 ]
  - [   0.0000048737274483,  0.0000077243894339,  0.0000185519456863 ]
  - [  -0.0000346308806911,  0.0000007851049304,  0.0000002998858690 ]
  - [   0.0000049590598792, -0.0000069737434387, -0.0000176280736923 ]
  - [   0.0001444780500606, -0.0001046081306413, -0.0002140486612916 ]
  - [   0.0001449757255614,  0.0001026255777106,  0.0002268226817250 ]
  - [   0.0000028046779335, -0.0000013884855434,  0.0000010961666703 ]
  - [  -0.0000078997109085, -0.0000003711320460,  0.0000009397044778 ]
  - [   0.0000038309954107, -0.0000011688098311,  0.0000003259629011 ]
  - [   0.0000039064325392,  0.0000001069856808,  0.0000012200325727 ]
  - [   0.0036805947311223,  0.0023241150192916,  0.0016434476710856 ]
  - [   0.0000387532636523, -0.0000001788721420,  0.0000001202570274 ]
  - [   0.0036274346057326, -0.0022759081330150, -0.0016089708078653 ]
  - [   0.0000049956142902,  0.0000191110884771,  0.0000010379590094 ]
  - [   0.0000048088841140, -0.0000199956120923, -0.0000007811468095 ]
  - [  -0.0000346070155501, -0.0000004258472472, -0.0000004763714969 ]
  - [  -0.0003293915651739,  0.0000052566174418, -0.0000064156483859 ]
  - [  -0.0000375343952328,  0.0000020717270672,  0.0001600569812581 ]
  - [  -0.0000340377446264,  0.0000007302733138, -0.0001592758344486 ]
  - [   0.0000048484653234,  0.0000074190902524,  0.0000179986236617 ]
  - [   0.0000048624351621, -0.0000073411501944, -0.0000182907097042 ]
  - [  -0.0000346420565620, -0.0000005174078979,  0.0000000399304554 ]
  - [  -0.0000078515149653, -0.0000005973852240, -0.0000004263129085 ]
  - [   0.0000040680170059,  0.0000002164742909,  0.0000002358574420 ]
  - [   0.0000040326267481, -0.0000010178191587, -0.0000006074551493 ]
  - [   0.0001451120479032, -0.0001050353748724, -0.0002262475900352 ]
  - [   0.0000028243521228, -0.0000011260854080, -0.0000004513422027 ]
  - [   0.0001445527886972,  0.0001022147480398,  0.0002146173501387 ]
  - [  -0.0003293561749160, -0.0000040099257603,  0.0000076415017247 ]
  - [  -0.0000376550015062,  0.0001518538920209, -0.0000511724501848 ]
  - [  -0.0000341383274645, -0.0001496885670349,  0.0000538202002645 ]
  - [   0.0001451096031815, -0.0002464799908921, -0.0000211683800444 ]
  - [   0.0000028342474252,  0.0000009877840057,  0.0000016555422917 ]
  - [   0.0001445244997740,  0.0002381386002526,  0.0000270713353530 ]
  - [   0.0001340415328741,  0.0000394851558667,  0.0000301169930026 ]
  - [   0.0001337069552392, -0.0000404446145694, -0.0000265864655375 ]
  - [  -0.0000629948917776, -0.0000011574709333,  0.0000013242242858 ]
  - [  -0.0146221080794930,  0.0000001821899787, -0.0000002703163773 ]
  - [  -0.0001891019055620,  0.0000003582099453, -0.0000005646143109 ]
  - [  -0.0001763253239915,  0.0000002938322723, -0.0000001026783139 ]
  - [  -0.0000756356748752, -0.0000639437930658,  0.0000684002880007 ]
  - [   0.0000294595374726,  0.0000007889466360, -0.0000002256128937 ]
  - [  -0.0000745694851503,  0.0000606701942161, -0.0000695595517755 ]
  - [  -0.0000746105797589, -0.0000593737931922,  0.0000685522099957 ]
  - [  -0.0000756129156798,  0.0000644813990220, -0.0000690877204761 ]
  - [   0.0000297608785331,  0.0000002392334864, -0.0000005580950528 ]
  - [  -0.0000754289794713,  0.0000433847308159, -0.0000834055244923 ]