# Thermal properties / unit cell (natom)

unit:
  temperature:   K
  free_energy:   kJ/mol
  entropy:       J/K/mol
  heat_capacity: J/K/mol

natom: 6    
cutoff_frequency: 0.00000
num_modes: 242172
num_integrated_modes: 242170

zero_point_energy:      12.7617187

thermal_properties:
- temperature:         0.0000000
  free_energy:        12.7617187
  entropy:             0.0000000
  heat_capacity:       0.0000000
  energy:             12.7617187

- temperature:        10.0000000
  free_energy:        12.7576795
  entropy:             1.7350189
  heat_capacity:       5.7293068
  energy:             12.7750297

- temperature:        20.0000000
  free_energy:        12.6928987
  entropy:            12.8284779
  heat_capacity:      30.4658466
  energy:             12.9494682

- temperature:        30.0000000
  free_energy:        12.4821341
  entropy:            29.7217958
  heat_capacity:      53.1176714
  energy:             13.3737880

- temperature:        40.0000000
  free_energy:        12.0966831
  entropy:            47.2728033
  heat_capacity:      68.6735881
  energy:             13.9875952

- temperature:        50.0000000
  free_energy:        11.5400177
  entropy:            63.8618695
  heat_capacity:      79.9359280
  energy:             14.7331112

- temperature:        60.0000000
  free_energy:        10.8234389
  entropy:            79.2612868
  heat_capacity:      88.9962754
  energy:             15.5791161

- temperature:        70.0000000
  free_energy:         9.9584138
  entropy:            93.5744172
  heat_capacity:      96.7154533
  energy:             16.5086230

- temperature:        80.0000000
  free_energy:         8.9551206
  entropy:           106.9355677
  heat_capacity:     103.3922699
  energy:             17.5099660

- temperature:        90.0000000
  free_energy:         7.8225066
  entropy:           119.4547078
  heat_capacity:     109.1569683
  energy:             18.5734303

- temperature:       100.0000000
  free_energy:         6.5685425
  entropy:           131.2185272
  heat_capacity:     114.1086991
  energy:             19.6903952

- temperature:       110.0000000
  free_energy:         5.2004152
  entropy:           142.2982564
  heat_capacity:     118.3461656
  energy:             20.8532234

- temperature:       120.0000000
  free_energy:         3.7246529
  entropy:           152.7550946
  heat_capacity:     121.9671315
  energy:             22.0552642

- temperature:       130.0000000
  free_energy:         2.1472087
  entropy:           162.6431421
  heat_capacity:     125.0630915
  energy:             23.2908172

- temperature:       140.0000000
  free_energy:         0.4735238
  entropy:           172.0108978
  heat_capacity:     127.7157116
  energy:             24.5550495

- temperature:       150.0000000
  free_energy:        -1.2914211
  entropy:           180.9020748
  heat_capacity:     129.9955738
  energy:             25.8438901

- temperature:       160.0000000
  free_energy:        -3.1430610
  entropy:           189.3561237
  heat_capacity:     131.9624475
  energy:             27.1539188

- temperature:       170.0000000
  free_energy:        -5.0772056
  entropy:           197.4086406
  heat_capacity:     133.6663310
  energy:             28.4822633

- temperature:       180.0000000
  free_energy:        -7.0900027
  entropy:           205.0917266
  heat_capacity:     135.1487683
  energy:             29.8265080

- temperature:       190.0000000
  free_energy:        -9.1779054
  entropy:           212.4343230
  heat_capacity:     136.4441759
  energy:             31.1846159

- temperature:       200.0000000
  free_energy:       -11.3376415
  entropy:           219.4625258
  heat_capacity:     137.5810510
  energy:             32.5548637

- temperature:       210.0000000
  free_energy:       -13.5661867
  entropy:           226.1998781
  heat_capacity:     138.5830173
  energy:             33.9357877

- temperature:       220.0000000
  free_energy:       -15.8607406
  entropy:           232.6676398
  heat_capacity:     139.4697038
  energy:             35.3261401

- temperature:       230.0000000
  free_energy:       -18.2187051
  entropy:           238.8850325
  heat_capacity:     140.2574693
  energy:             36.7248523

- temperature:       240.0000000
  free_energy:       -20.6376649
  entropy:           244.8694606
  heat_capacity:     140.9599955
  energy:             38.1310056

- temperature:       250.0000000
  free_energy:       -23.1153706
  entropy:           250.6367087
  heat_capacity:     141.5887684
  energy:             39.5438066

- temperature:       260.0000000
  free_energy:       -25.6497231
  entropy:           256.2011180
  heat_capacity:     142.1534687
  energy:             40.9625676

- temperature:       270.0000000
  free_energy:       -28.2387604
  entropy:           261.5757418
  heat_capacity:     142.6622886
  energy:             42.3866898

- temperature:       280.0000000
  free_energy:       -30.8806451
  entropy:           266.7724839
  heat_capacity:     143.1221881
  energy:             43.8156504

- temperature:       290.0000000
  free_energy:       -33.5736535
  entropy:           271.8022206
  heat_capacity:     143.5391044
  energy:             45.2489904

- temperature:       300.0000000
  free_energy:       -36.3161661
  entropy:           276.6749078
  heat_capacity:     143.9181217
  energy:             46.6863062

- temperature:       310.0000000
  free_energy:       -39.1066587
  entropy:           281.3996770
  heat_capacity:     144.2636101
  energy:             48.1272412

- temperature:       320.0000000
  free_energy:       -41.9436947
  entropy:           285.9849185
  heat_capacity:     144.5793404
  energy:             49.5714793

- temperature:       330.0000000
  free_energy:       -44.8259178
  entropy:           290.4383561
  heat_capacity:     144.8685776
  energy:             51.0187397

- temperature:       340.0000000
  free_energy:       -47.7520462
  entropy:           294.7671125
  heat_capacity:     145.1341586
  energy:             52.4687720

- temperature:       350.0000000
  free_energy:       -50.7208664
  entropy:           298.9777678
  heat_capacity:     145.3785565
  energy:             53.9213523

- temperature:       360.0000000
  free_energy:       -53.7312283
  entropy:           303.0764112
  heat_capacity:     145.6039346
  energy:             55.3762798

- temperature:       370.0000000
  free_energy:       -56.7820402
  entropy:           307.0686868
  heat_capacity:     145.8121906
  energy:             56.8333739

- temperature:       380.0000000
  free_energy:       -59.8722649
  entropy:           310.9598344
  heat_capacity:     146.0049946
  energy:             58.2924721

- temperature:       390.0000000
  free_energy:       -63.0009160
  entropy:           314.7547264
  heat_capacity:     146.1838204
  energy:             59.7534273

- temperature:       400.0000000
  free_energy:       -66.1670538
  entropy:           318.4579002
  heat_capacity:     146.3499724
  energy:             61.2161063

- temperature:       410.0000000
  free_energy:       -69.3697824
  entropy:           322.0735873
  heat_capacity:     146.5046079
  energy:             62.6803883

- temperature:       420.0000000
  free_energy:       -72.6082471
  entropy:           325.6057395
  heat_capacity:     146.6487565
  energy:             64.1461635

- temperature:       430.0000000
  free_energy:       -75.8816311
  entropy:           329.0580528
  heat_capacity:     146.7833364
  energy:             65.6133316

- temperature:       440.0000000
  free_energy:       -79.1891536
  entropy:           332.4339879
  heat_capacity:     146.9091685
  energy:             67.0818011

- temperature:       450.0000000
  free_energy:       -82.5300671
  entropy:           335.7367897
  heat_capacity:     147.0269883
  energy:             68.5514883

- temperature:       460.0000000
  free_energy:       -85.9036558
  entropy:           338.9695046
  heat_capacity:     147.1374561
  energy:             70.0223163

- temperature:       470.0000000
  free_energy:       -89.3092332
  entropy:           342.1349958
  heat_capacity:     147.2411665
  energy:             71.4942149

- temperature:       480.0000000
  free_energy:       -92.7461406
  entropy:           345.2359574
  heat_capacity:     147.3386552
  energy:             72.9671189

- temperature:       490.0000000
  free_energy:       -96.2137457
  entropy:           348.2749276
  heat_capacity:     147.4304066
  energy:             74.4409688

- temperature:       500.0000000
  free_energy:       -99.7114405
  entropy:           351.2542999
  heat_capacity:     147.5168590
  energy:             75.9157094

- temperature:       510.0000000
  free_energy:      -103.2386406
  entropy:           354.1763338
  heat_capacity:     147.5984101
  energy:             77.3912897

- temperature:       520.0000000
  free_energy:      -106.7947832
  entropy:           357.0431648
  heat_capacity:     147.6754210
  energy:             78.8676625

- temperature:       530.0000000
  free_energy:      -110.3793266
  entropy:           359.8568126
  heat_capacity:     147.7482207
  energy:             80.3447841

- temperature:       540.0000000
  free_energy:      -113.9917486
  entropy:           362.6191897
  heat_capacity:     147.8171087
  energy:             81.8226139

- temperature:       550.0000000
  free_energy:      -117.6315455
  entropy:           365.3321085
  heat_capacity:     147.8823587
  energy:             83.3011141

- temperature:       560.0000000
  free_energy:      -121.2982316
  entropy:           367.9972881
  heat_capacity:     147.9442212
  energy:             84.7802497

- temperature:       570.0000000
  free_energy:      -124.9913376
  entropy:           370.6163608
  heat_capacity:     148.0029252
  energy:             86.2599880

- temperature:       580.0000000
  free_energy:      -128.7104103
  entropy:           373.1908771
  heat_capacity:     148.0586812
  energy:             87.7402984

- temperature:       590.0000000
  free_energy:      -132.4550116
  entropy:           375.7223119
  heat_capacity:     148.1116823
  energy:             89.2211525

- temperature:       600.0000000
  free_energy:      -136.2247176
  entropy:           378.2120685
  heat_capacity:     148.1621062
  energy:             90.7025235

- temperature:       610.0000000
  free_energy:      -140.0191185
  entropy:           380.6614836
  heat_capacity:     148.2101164
  energy:             92.1843865

- temperature:       620.0000000
  free_energy:      -143.8378171
  entropy:           383.0718312
  heat_capacity:     148.2558640
  energy:             93.6667183

- temperature:       630.0000000
  free_energy:      -147.6804289
  entropy:           385.4443265
  heat_capacity:     148.2994883
  energy:             95.1494967

- temperature:       640.0000000
  free_energy:      -151.5465813
  entropy:           387.7801292
  heat_capacity:     148.3411181
  energy:             96.6327014

- temperature:       650.0000000
  free_energy:      -155.4359129
  entropy:           390.0803473
  heat_capacity:     148.3808727
  energy:             98.1163129

- temperature:       660.0000000
  free_energy:      -159.3480732
  entropy:           392.3460396
  heat_capacity:     148.4188626
  energy:             99.6003130

- temperature:       670.0000000
  free_energy:      -163.2827220
  entropy:           394.5782188
  heat_capacity:     148.4551904
  energy:            101.0846846

- temperature:       680.0000000
  free_energy:      -167.2395291
  entropy:           396.7778539
  heat_capacity:     148.4899511
  energy:            102.5694115

- temperature:       690.0000000
  free_energy:      -171.2181737
  entropy:           398.9458730
  heat_capacity:     148.5232334
  energy:            104.0544787

- temperature:       700.0000000
  free_energy:      -175.2183441
  entropy:           401.0831653
  heat_capacity:     148.5551197
  energy:            105.5398716

- temperature:       710.0000000
  free_energy:      -179.2397374
  entropy:           403.1905832
  heat_capacity:     148.5856866
  energy:            107.0255767

- temperature:       720.0000000
  free_energy:      -183.2820589
  entropy:           405.2689445
  heat_capacity:     148.6150056
  energy:            108.5115811

- temperature:       730.0000000
  free_energy:      -187.3450221
  entropy:           407.3190341
  heat_capacity:     148.6431437
  energy:            109.9978728

- temperature:       740.0000000
  free_energy:      -191.4283479
  entropy:           409.3416056
  heat_capacity:     148.6701632
  energy:            111.4844403

- temperature:       750.0000000
  free_energy:      -195.5317649
  entropy:           411.3373833
  heat_capacity:     148.6961224
  energy:            112.9712726

- temperature:       760.0000000
  free_energy:      -199.6550086
  entropy:           413.3070631
  heat_capacity:     148.7210759
  energy:            114.4583594

- temperature:       770.0000000
  free_energy:      -203.7978214
  entropy:           415.2513147
  heat_capacity:     148.7450748
  energy:            115.9456909

- temperature:       780.0000000
  free_energy:      -207.9599523
  entropy:           417.1707822
  heat_capacity:     148.7681672
  energy:            117.4332579

- temperature:       790.0000000
  free_energy:      -212.1411565
  entropy:           419.0660859
  heat_capacity:     148.7903978
  energy:            118.9210514

- temperature:       800.0000000
  free_energy:      -216.3411954
  entropy:           420.9378231
  heat_capacity:     148.8118091
  energy:            120.4090631

- temperature:       810.0000000
  free_energy:      -220.5598363
  entropy:           422.7865695
  heat_capacity:     148.8324406
  energy:            121.8972850

- temperature:       820.0000000
  free_energy:      -224.7968520
  entropy:           424.6128798
  heat_capacity:     148.8523297
  energy:            123.3857094

- temperature:       830.0000000
  free_energy:      -229.0520209
  entropy:           426.4172893
  heat_capacity:     148.8715114
  energy:            124.8743292

- temperature:       840.0000000
  free_energy:      -233.3251265
  entropy:           428.2003142
  heat_capacity:     148.8900189
  energy:            126.3631374

- temperature:       850.0000000
  free_energy:      -237.6159576
  entropy:           429.9624529
  heat_capacity:     148.9078833
  energy:            127.8521274

- temperature:       860.0000000
  free_energy:      -241.9243076
  entropy:           431.7041867
  heat_capacity:     148.9251339
  energy:            129.3412930

- temperature:       870.0000000
  free_energy:      -246.2499748
  entropy:           433.4259804
  heat_capacity:     148.9417986
  energy:            130.8306282

- temperature:       880.0000000
  free_energy:      -250.5927622
  entropy:           435.1282833
  heat_capacity:     148.9579035
  energy:            132.3201271

- temperature:       890.0000000
  free_energy:      -254.9524770
  entropy:           436.8115297
  heat_capacity:     148.9734733
  energy:            133.8097844

- temperature:       900.0000000
  free_energy:      -259.3289307
  entropy:           438.4761395
  heat_capacity:     148.9885315
  energy:            135.2995949

- temperature:       910.0000000
  free_energy:      -263.7219390
  entropy:           440.1225192
  heat_capacity:     149.0031001
  energy:            136.7895534

- temperature:       920.0000000
  free_energy:      -268.1313216
  entropy:           441.7510619
  heat_capacity:     149.0172001
  energy:            138.2796553

- temperature:       930.0000000
  free_energy:      -272.5569021
  entropy:           443.3621484
  heat_capacity:     149.0308514
  energy:            139.7698959

- temperature:       940.0000000
  free_energy:      -276.9985076
  entropy:           444.9561474
  heat_capacity:     149.0440727
  energy:            141.2602709

- temperature:       950.0000000
  free_energy:      -281.4559692
  entropy:           446.5334161
  heat_capacity:     149.0568819
  energy:            142.7507760

- temperature:       960.0000000
  free_energy:      -285.9291213
  entropy:           448.0943006
  heat_capacity:     149.0692960
  energy:            144.2414072

- temperature:       970.0000000
  free_energy:      -290.4178018
  entropy:           449.6391365
  heat_capacity:     149.0813308
  energy:            145.7321607

- temperature:       980.0000000
  free_energy:      -294.9218517
  entropy:           451.1682493
  heat_capacity:     149.0930019
  energy:            147.2230326

- temperature:       990.0000000
  free_energy:      -299.4411154
  entropy:           452.6819545
  heat_capacity:     149.1043235
  energy:            148.7140196

- temperature:      1000.0000000
  free_energy:      -303.9754404
  entropy:           454.1805584
  heat_capacity:     149.1153096
  energy:            150.2051180
