6
Lattice="3.117708955650486 0.00033233707737568457 -0.5165848565419169 8.90902279606069e-05 4.444648871246376 0.0030973730611026126 0.02020957836553977 -0.007594770455981321 9.795876990221489" Properties=species:S:1:pos:R:3:forces:R:3 structure_index=0 total_energy=-19.319482803344727 stress="-0.04082406684756279 -3.991747507825494e-05 -0.005253935232758522 -3.993615973740816e-05 -0.04513152316212654 -0.0006224801181815565 -0.005253968760371208 -0.0006225657998584211 -0.05559033527970314" pbc="T T T"
Li       0.28035160       3.63593297       8.35031854       0.00551553       0.00303037       0.02196495
Li       2.69779265       1.42168540       3.59587421      -0.00065433      -0.00263144       0.00051667
Ga       1.32564068       3.64101631       4.99326606       0.00288211       0.00169864       0.01265518
Sn       2.10725706       1.42167255       0.02215561      -0.00026922      -0.00075385       0.00328770
Sn       1.61365980       1.41725381       6.71809714      -0.00857948      -0.00246347      -0.04556406
Sn       0.85237458       3.64244461       2.12212490       0.00110539       0.00111974       0.00713956
16
Lattice="6.270170801457153 0.05431543410704112 -0.005383912874523192 0.10219090046403637 6.205949633000407 -0.0037758205453832273 0.008498237948693838 0.00600179865909875 8.92709025207883" Properties=species:S:1:pos:R:3:forces:R:3 structure_index=1 total_energy=-50.76363754272461 stress="0.0200022105127573 0.008513515815138817 0.001114968559704721 0.00851350836455822 0.013188861310482025 0.0004425326478667557 0.0011148880003020167 0.00044256553519517183 -0.012948513962328434" pbc="T T T"
Li       5.23293022       4.92540109       5.10974771      -0.00137801      -0.00071541       0.00197963
Li       0.51651611       0.29045392       2.92828319      -0.02086690      -0.03977610       0.00669665
Li       3.57512418       3.30353162       7.30974057       0.02269847       0.03645573      -0.00906524
Li       0.52092639       0.28841833       7.30878678      -0.02220494      -0.03499382      -0.00727190
Li       3.57139791       3.29589516       2.91996140       0.02173976       0.04228341       0.00729175
Ga       5.22545062       4.92424330       0.64829372       0.00221242      -0.00634186      -0.00076446
Ga       2.04370582       1.79734510       5.11619789       0.00306734      -0.01185051       0.00137867
Ga       5.18025665       1.82365004       5.11371882      -0.00010099      -0.00190521       0.00148016
Ga       2.09332389       4.89425723       0.65537339      -0.00209476      -0.00024349      -0.00500476
Sn       0.41024087       3.38645328       2.93656284       0.01170994      -0.00784150       0.00901737
Sn       2.04432798       1.79075772       0.65155133      -0.00511795       0.00005971      -0.00117328
Sn       5.17950504       1.81718160       0.64807459      -0.00074353       0.00313878      -0.00132089
Sn       3.67754975       0.20254366       7.29124700      -0.00734937       0.01526100      -0.01220915
Sn       2.09816015       4.89189488       5.11142779       0.00077761       0.01435530       0.00242276
Sn       3.67532688       0.20258726       2.93924178      -0.01084711       0.00662665       0.01234881
Sn       0.41588618       3.39073246       7.29397780       0.00849802      -0.01451268      -0.00580611
12
Lattice="4.2029113442653205 0.0022456280465765347 -0.0031056178955387818 -0.0029188404999802107 4.157407232600583 -0.0009907212509401694 0.00635875038478406 0.0036289345176025306 12.383138675359694" Properties=species:S:1:pos:R:3:forces:R:3 structure_index=2 total_energy=-34.72091293334961 stress="0.020051514729857445 -0.0033116310369223356 -0.0015360565157607198 -0.003311580279842019 -0.0074419197626411915 -0.002392000984400511 -0.0015358992386609316 -0.002392105758190155 0.011715589091181755" pbc="T T T"
Li       0.39131246       3.26889388       7.91420558       0.00004946      -0.00045063      -0.03258424
Li       0.39067862       1.19050637       6.06326348       0.00038054      -0.00027160      -0.01126515
Li       2.49759818       1.19093922      11.97264916       0.00028248      -0.00062663       0.00891808
Li       2.49493299       3.26916665       9.86478204      -0.00055175       0.00052614       0.00663952
Li       0.38734583       3.26944863       4.04414111       0.00002345      -0.00164175      -0.00836708
Ga       0.38892484       1.18815301       1.82311456      -0.00150135      -0.00019840       0.01011019
Ga       2.49483353       1.19065026       8.00238328      -0.00120838       0.00141992       0.00502790
Ga       2.48922568       3.26864787       1.73839700       0.00167031      -0.00072229       0.00596924
Ga       0.39479451       1.18959818       9.75795325       0.00017719      -0.00022452       0.00155523
Ga       2.49091887       3.27016504       6.17196312       0.00039669      -0.00106280      -0.00174873
Sn       2.49007014       1.19128195       3.94915381       0.00224292       0.00060062       0.00927534
Sn       0.39492592       3.26777557      11.94743240      -0.00196156       0.00265190       0.00646963
10
Lattice="3.2610403618852026 -5.1503055685203307e-05 -0.001090718307108735 3.4241521051725576e-05 3.261024548120518 -1.7755165374727257e-05 0.005260000334207773 0.00010677510374950724 19.209577656615682" Properties=species:S:1:pos:R:3:forces:R:3 structure_index=3 total_energy=-31.14163589477539 stress="-0.020468780770897865 -5.056937879999168e-05 -0.0003972255508415401 -5.062193304183893e-05 -0.020679373294115067 3.429526987019926e-05 -0.0003971569531131536 3.415758328628726e-05 0.020280936732888222" pbc="T T T"
Li       2.00470862       2.55964172       3.28234678       0.00013638      -0.00020232       0.04533232
Li       2.00867491       2.55910964      18.74644058      -0.00004499       0.00018664      -0.02368302
Li       2.00647477       2.55946457      11.97469900      -0.00006522      -0.00018044      -0.03670345
Li       2.00733586       2.55921619      14.94112376       0.00009894       0.00011945       0.00876736
Ga       0.37639756       0.92882626      13.45959253      -0.00007918       0.00007755       0.02673896
Ga       2.00687072       2.55981470       7.61525659      -0.00016034      -0.00000672       0.00441228
Sn       0.37356373       0.92875435       1.42953827      -0.00005469       0.00016337      -0.01884785
Sn       0.37739213       0.92869603      16.83826420       0.00010903      -0.00001350      -0.03811887
Sn       0.37514756       0.92936195       5.35678482      -0.00015867      -0.00012800       0.03659237
Sn       0.37533390       0.92908056       9.86604425       0.00021876      -0.00001603      -0.00449008
9
Lattice="4.126760206581869 0.002974029921154369 0.0030766902364447826 -2.0650047318575644 4.677609297478387 0.7560458533959772 -0.008497353147216929 1.6366347898299385 8.881762084723695" Properties=species:S:1:pos:R:3:forces:R:3 structure_index=4 total_energy=-26.385211944580078 stress="-0.014989894814789295 0.013562031090259552 -0.009487253613770008 0.01356210745871067 0.02086813747882843 0.011907572858035564 -0.0094873933121562 0.011907338164746761 -0.00656690401956439" pbc="T T T"
Li       3.76813319       1.60210989       5.91494783       0.00205937       0.00104943      -0.00801290
Li      -0.35175650       3.91570841       2.48866910      -0.00272923      -0.01445816       0.05146719
Li       1.70620116       2.77569414       4.22430774       0.00271686       0.01433986      -0.05139115
Li       3.76956111       2.05108584       8.92695748      -0.00206266      -0.00105059       0.00785996
Ga      -0.35924509       5.12334639       8.35082458       0.00021266      -0.01674863       0.03822080
Ga       1.70516182       3.20413995       7.24395505      -0.00019258       0.01706238      -0.03834372
Ga       3.77311515       1.00836913       2.97999305      -0.00005984      -0.00005740       0.00011318
Sn      -0.35812273       4.50303850       5.45742798       0.00168022      -0.00898775       0.01468293
Sn       1.71254719       2.18826535       1.25555495      -0.00162481       0.00885087      -0.01459627
7
Lattice="4.250358851836596 -0.0036978231721970225 -0.004408165660283121 -2.122478496201479 4.199351187637829 -1.018411624781042 0.007034393955070051 0.15482015961547196 6.697313587261058" Properties=species:S:1:pos:R:3:forces:R:3 structure_index=5 total_energy=-19.58513641357422 stress="-0.01285357866436243 0.0014522271230816841 0.00043394372914917767 0.0014520043041557074 -0.0006439545541070402 -0.013084307312965393 0.0004338418657425791 -0.013084248639643192 0.06458563357591629" pbc="T T T"
Li       0.58450878       1.46713831       3.21524645       0.00098215       0.01858815      -0.01628995
Li       0.58865223       2.67799931       5.84451471      -0.00004524       0.01065195       0.04236205
Li       2.71216147       0.86719004       5.42210957      -0.00075531      -0.01813343       0.01692659
Li       0.58551073       3.85510968       1.77522406      -0.00059885      -0.01039488      -0.04262983
Ga       0.58062270       0.21560455       0.82598421       0.00060891      -0.00638171      -0.04561575
Ga       2.70758729       1.96299075       1.11468460       0.00078398       0.00692726       0.04648584
Sn      -1.53788332       3.26907593       3.81227534      -0.00097564      -0.00125730      -0.00123894
8
Lattice="5.132642767118031 0.19584003246109669 -0.2990498836191771 -0.2275170189736888 5.132567891186673 -0.23731568397955757 0.29756159481363886 0.24623120402334922 5.130470899481219" Properties=species:S:1:pos:R:3:forces:R:3 structure_index=6 total_energy=-20.303598403930664 stress="-0.033842768520116806 0.0020212221425026655 0.002488278318196535 0.002021361142396927 -0.055710840970277786 0.002668371656909585 0.0024883912410587072 0.0026682361494749784 -0.03586520627140999" pbc="T T T"
Li       3.81500457       4.94142857       0.22228420       0.00120140       0.00986567       0.00470780
Li       2.85349844       2.52004739       4.27616518       0.00815565       0.00306123       0.00267945
Li       0.28040668       1.08596434       3.18334121      -0.00261769       0.00222426       0.01059581
Li       1.23330632       4.86518743       0.38322300      -0.00165179      -0.01025266      -0.00667431
Li       0.15947873       3.63789339       3.08734488       0.00298913      -0.00195669      -0.01004815
Li       2.71818618       2.39991089       1.69519427      -0.00673271      -0.00288234      -0.00191125
Ga       0.07139725       2.23893190       0.56982008      -0.00082653       0.00009170       0.00058359
Sn       2.67272250       5.02633137       2.86787283      -0.00051745      -0.00015118       0.00006706
8
Lattice="4.193280121585319 -0.0022135630187305566 0.0035236071080057205 0.003343152586061327 5.9995644985589 0.04258920616838578 -0.005483465827892845 0.06378660607685928 6.119382126994946" Properties=species:S:1:pos:R:3:forces:R:3 structure_index=7 total_energy=-23.93556785583496 stress="-0.016926268115639687 0.00042137500713579357 -0.0006894494290463626 0.00042133027454838157 -0.0008087269961833954 -0.0023676427081227303 -0.0006895954138599336 -0.0023675495758652687 -0.015933584421873093" pbc="T T T"
Li       2.11940709       2.36971006       5.78113463       0.00031053       0.01110920      -0.04388451
Li       0.02330944       0.72483471       4.12723563       0.00003636      -0.00031032       0.03721137
Li       0.02796868       3.78865400       1.16500100      -0.00007124       0.01741088      -0.02376329
Ga       0.02623759       0.93244334       1.18936904      -0.00007548       0.01729651      -0.01292717
Ga       2.12373336       5.29925552       2.74578934       0.00020105      -0.03492683       0.00916740
Ga       2.12226942       2.15272168       2.55916466       0.00013300       0.00457535       0.00908937
Sn       0.02509632       3.65727462       4.09917988      -0.00015194      -0.00004426       0.03591248
Sn       2.12126979       5.45999353       5.93066875      -0.00038229      -0.01511049      -0.01080565
9
Lattice="5.018405319196675 0.001637509441201711 -0.6362189599007236 -2.543541146276678 4.308954508526262 -0.5766137769017866 -0.055958210250648135 -0.13077687468031904 7.648725842436615" Properties=species:S:1:pos:R:3:forces:R:3 structure_index=8 total_energy=-24.993040084838867 stress="-0.032526612281799316 -0.024757014587521553 0.0006789711187593639 -0.024757083505392075 0.028145674616098404 0.0015568691305816174 0.0006789347971789539 0.0015567567897960544 0.04657556861639023" pbc="T T T"
Li       2.39577510       2.46688081       5.78137715       0.00126611       0.01641961      -0.00993934
Li       4.43382568       0.24888020       0.91381371       0.02630316       0.01255510       0.02064705
Li       1.28005916       3.52367235       3.21135625       0.00445248      -0.03261292      -0.01462984
Li      -0.66164585       3.08734060       0.97994694       0.01362492       0.02707042       0.00839275
Li      -1.26986660       2.04832774       3.84317912       0.00324126      -0.01049574      -0.01895170
Li      -0.11925017       3.98073304       5.82245247       0.00636671      -0.01690834       0.01454042
Ga      -0.21414565       1.07521466       6.44768382      -0.01413143      -0.00305386       0.01214616
Sn       1.27645730       0.62034359       3.93201947      -0.01212800       0.00953787       0.00820933
Sn       1.89719906       1.67768612       0.83211829      -0.02899521      -0.00251213      -0.02041481
18
Lattice="4.161214693044823 -0.00013038616728386856 -0.630911481714816 -0.08160714579939726 5.942264933856043 -0.5387856247005648 -0.0001742862589867536 0.1348548810557251 14.024422360757645" Properties=species:S:1:pos:R:3:forces:R:3 structure_index=9 total_energy=-53.42703628540039 stress="-0.016285276040434837 -0.0018577069276943803 0.00019404299382586032 -0.0018576347501948476 -0.01494000107049942 -0.011896942742168903 0.00019396045536268502 -0.01189680490642786 -0.015596791170537472" pbc="T T T"
Li       3.12372365       5.53656460      12.13974796      -0.00209774       0.02695521      -0.01851560
Li       2.70418115       2.30010960       9.37550770       0.00417052      -0.03546154       0.02665024
Li       3.60550693       2.75980763       1.28085128      -0.00504950      -0.00314488      -0.02272897
Li       3.17152863       2.58404208      12.44719116      -0.00799361      -0.00513209      -0.04609279
Li       0.87055179       0.90537727      11.32054812       0.00011446       0.04607733      -0.00358726
Li       2.23411791       1.91771505       6.27291820       0.00584673      -0.00841994       0.04902702
Li       1.75878240       4.58400408       3.15246620       0.00378526       0.02413451       0.01544820
Li       2.20470611       4.90624132       6.08505735      -0.00203794       0.00657057      -0.01421710
Ga       4.12229894       0.20582779       4.70045210      -0.00191714       0.00664806      -0.01684985
Ga       2.68380596       5.27119165       9.24353644       0.00252056       0.00802982       0.01149901
Ga       1.29291041       3.97736193       0.06923094      -0.00588927      -0.02947522      -0.03751924
Ga       4.06962008       3.34824544       4.35294926       0.00242605       0.01256919       0.01025387
Ga       1.31509091       1.17175208       0.21201107       0.00318777      -0.01179335       0.03088182
Sn       3.55498325       5.70103168       0.95018998      -0.00080971      -0.02741986       0.00016517
Sn       0.35929920       3.56254035       7.94770620      -0.00079864      -0.03558750      -0.00295286
Sn       0.84820086       3.89543055      11.17013325      -0.00401097       0.02251028      -0.02587010
Sn       1.79789785       1.63242962       3.40860969       0.00626992       0.03667632       0.03122629
Sn       0.42034320       0.61162591       8.35370823       0.00228330      -0.03373694       0.01318217
4
Lattice="4.32654779487059 -0.0002831489739761726 2.4958713520465468 1.4392738571772765 4.07888715425385 2.492915316238339 0.00016527915886789963 -0.0004771699120527188 4.9937398445809515" Properties=species:S:1:pos:R:3:forces:R:3 structure_index=10 total_energy=-11.803937911987305 stress="0.0375467985868454 -0.0006602386711165309 -0.00488044461235404 -0.0006606379174627364 0.032326821237802505 0.0028254948556423187 -0.004880284424871206 0.002825646661221981 0.026275895535945892" pbc="T T T"
Li       3.02505784       3.82003707       7.29964946      -0.00002296       0.00016898       0.00014694
Ga       1.58437173       2.80126740       4.80538306      -0.00009026      -0.00016391      -0.00090883
Ga       3.02623260       0.76086655       2.30766151      -0.00047787       0.00035651      -0.00023081
Sn       4.46827543       1.78110759       4.80395455       0.00059106      -0.00036159       0.00099268
7
Lattice="4.284166688363028 -0.0656460623502046 1.3006968602959756 1.4575709697518675 4.060058768440361 1.2856249142889453 0.07744558855859188 0.06048953647836513 7.468886035708829" Properties=species:S:1:pos:R:3:forces:R:3 structure_index=11 total_energy=-19.67862319946289 stress="0.03631690889596939 0.0336354598402977 -0.020831415429711342 0.03363552317023277 0.014214545488357544 -0.01566265895962715 -0.020831359550356865 -0.01566251739859581 -0.014401523396372795" pbc="T T T"
Li       0.56657875       1.28764225       0.96420468       0.00039628       0.00031249       0.00052291
Ga       3.90259858       0.55841885       4.79227324      -0.01237848      -0.00600106      -0.00047009
Ga       1.59226686       2.01151555       5.90608148       0.01288192       0.00642077      -0.00020261
Ga       2.96618066       2.96065187       8.13855561       0.00250269       0.00328232      -0.04858697
Ga       3.60307355       0.36131839       7.46106786      -0.01559610      -0.00836851       0.01376088
Ga       3.98669664       3.66992397       3.84465111      -0.00307067      -0.00382263       0.04956353
Ga       1.89205594       2.20901459       3.23736046       0.01526435       0.00817662      -0.01458768
8
Lattice="4.7343663576458415 0.0009961842616687366 -0.0007053577190968618 -0.0016632450025722194 5.013692163275181 -2.8878673893678033 0.0007183794579547615 -0.003458355251946287 5.787066727122215" Properties=species:S:1:pos:R:3:forces:R:3 structure_index=12 total_energy=-20.484119415283203 stress="0.024561891332268715 -0.001078850356861949 -0.0006471358356066048 -0.0010788170620799065 0.007975348271429539 0.001696447841823101 -0.0006472926470451057 0.0016965516842901707 0.005056688096374273" pbc="T T T"
Li       2.20769855       2.57587705      -0.10412930      -0.00071285       0.04835286      -0.00076049
Li       2.20846357       0.16049826       1.28544618      -0.00011759      -0.02419492       0.04352950
Li       2.20897939       0.15917769       4.28843210      -0.00010116      -0.02330838      -0.04356068
Li       4.57405922       3.43776268      -1.61050404       0.00072567      -0.01119088      -0.03631537
Li       4.57662591       1.02950809       2.78770511      -0.00161978       0.04097536      -0.00628060
Li       4.57499848       3.43999996       1.39745883      -0.00014996      -0.02040133       0.03927221
Ga       2.20809933       2.63407335       2.78867936       0.00043025      -0.00043084      -0.00037765
Sn       4.57496018       0.96922892      -0.10729641       0.00154540      -0.00980186       0.00449305
12
Lattice="4.1582051192164915 -0.01257801773635819 -0.7984440688376474 -0.1370895684807861 4.068455661406082 -0.7796355541085535 0.401679942567753 0.45006022292885955 13.286581279922299" Properties=species:S:1:pos:R:3:forces:R:3 structure_index=13 total_energy=-35.62886428833008 stress="-0.03034954145550728 0.0037686771247535944 0.0036114929243922234 0.00376876350492239 -0.023019257932901382 0.00195856811478734 0.0036114698741585016 0.0019585599657148123 -0.029797332361340523" pbc="T T T"
Li       3.95673613       3.81142128      11.51833129       0.00403965       0.00399099       0.02580283
Li       2.78762831       0.50531973       5.49360156      -0.00423109      -0.00472291      -0.02580022
Li       3.09277743       2.92463152       7.03977528      -0.00272368      -0.00464142      -0.01422052
Li       1.96319216       1.80129829      12.40558434       0.00664188       0.00610851       0.02008901
Li       2.31601746       2.12429660       3.01368529       0.00163596       0.00315256       0.00825642
Ga       1.85222133       3.75230189       0.57785539       0.00197718       0.00461559       0.01631510
Ga       3.99112572       1.70736301       0.53418375       0.00512034       0.00110600       0.02157870
Ga       1.05851977       0.87126109       7.70384913      -0.00155262      -0.00109440      -0.00226939
Ga       0.65567249       2.56186444       5.58421381      -0.00570691      -0.00485190      -0.03229272
Sn       3.59907786       1.33821924       9.69601025       0.00103488       0.00099758       0.00698224
Sn       0.17419189       4.17146533       3.05183524       0.00165025       0.00187547       0.01295319
Sn       1.46398651       3.39150259       9.77060043      -0.00788581      -0.00653606      -0.03739462
12
Lattice="3.200723376165478 -0.0022091018511565213 0.0017841957917590922 0.0026672292875377485 4.065615024040452 -5.869440142218453e-05 -0.011503119862922335 -0.0011167506475545028 18.690170893523845" Properties=species:S:1:pos:R:3:forces:R:3 structure_index=14 total_energy=-35.94929504394531 stress="0.01956365630030632 -0.0004628534079529345 -0.00018395522783976048 -0.0004629693285096437 0.02324274368584156 -5.437550498754717e-06 -0.00018429264309816062 -5.411169240687741e-06 0.019360315054655075" pbc="T T T"
Li       2.57222077       1.02549305      12.90702145      -0.00047079       0.00046239       0.04470121
Li       0.97708329       3.06526044       1.67202049       0.00017277      -0.00091113      -0.01606877
Li       0.96567380       3.06185665      17.62771683       0.00055664      -0.00043687      -0.01627992
Ga       0.97805742       3.06361750       8.56654317      -0.00023398      -0.00024703       0.03709698
Ga       2.57619402       1.02998977       0.26450907      -0.00000572       0.00025996      -0.03248463
Ga       0.97813066       3.06514671       4.94919181      -0.00018644      -0.00045118      -0.00445921
Ga       2.57629731       1.02673697      10.06814256      -0.00019672       0.00025999       0.03364472
Ga       0.97565887       3.05956065      11.42682525      -0.00069228       0.00042830       0.00753981
Ga       2.56585082       1.02624875      16.15738430       0.00104775       0.00083566      -0.01506143
Sn       2.57625150       1.03134308       3.26728214       0.00042008      -0.00038877      -0.00261803
Sn       2.57787308       1.03040631       6.85346615      -0.00065982       0.00008337      -0.01011662
Sn       0.97018595       3.05967754      14.59932136       0.00024847       0.00010533      -0.02589411
8
Lattice="4.852164826845851 0.0036410527644720656 0.0006711508435502805 -2.430033500671082 4.206400298664935 -0.00040025860404286457 -0.0014616705211792584 -0.0003366425000424209 8.617805380671243" Properties=species:S:1:pos:R:3:forces:R:3 structure_index=15 total_energy=-22.570404052734375 stress="-0.020647389814257622 0.0014890466118231416 -0.00013823532208334655 0.0014890311285853386 -0.01969026029109955 -5.522561332327314e-05 -0.00013814246631227434 -5.528412293642759e-05 -0.00976384337991476" pbc="T T T"
Li      -0.34634752       2.94461488       4.15231502      -0.00046129      -0.00065075      -0.03745800
Li      -0.34649213       2.94342732       7.16596775      -0.00077647       0.00009933       0.02302705
Li       4.50862891       0.14342035       2.85974517       0.00047621       0.00004939       0.03473552
Li       4.50760583       0.14308807       8.46568655       0.00071527      -0.00034484      -0.02974064
Ga      -0.34507673       2.94554300       1.34538831      -0.00059240       0.00117239       0.00781110
Ga       4.50743885       0.14124701       5.66467032       0.00069802      -0.00190325       0.00116703
Sn       2.08204433       1.54362293       1.35722430      -0.00000134       0.00073782      -0.00609732
Sn       2.08034137       1.54291963       5.65091344      -0.00005800       0.00083992       0.00655528
8
Lattice="4.198579404420001 0.0012582230956978697 -1.0611967238880506 -0.263132926528482 4.049063220983518 -1.0357246914718676 -0.0247635237839894 0.06785030971513492 8.738298401142435" Properties=species:S:1:pos:R:3:forces:R:3 structure_index=16 total_energy=-23.51832389831543 stress="-0.04559642821550369 -4.683524457504973e-05 0.011916286312043667 -4.685932071879506e-05 -0.005723929964005947 0.002054857090115547 0.011916328221559525 0.0020549253094941378 -0.0015107560902833939" pbc="T T T"
Li       3.48531023       2.68954289       5.35468021       0.00083905       0.00238484       0.00699399
Li       3.16162370       0.17543023       4.07632630      -0.00109304      -0.00087525      -0.00867635
Li      -0.07291488       1.11795610       0.10910429      -0.00393314      -0.00383130      -0.01009485
Li       2.53794581       1.67013172       1.60869895       0.00790832       0.00841697       0.03024498
Ga       1.53765755       0.68669127       6.48255536      -0.00755906      -0.00843984      -0.02808364
Ga       0.28682868       3.67214712       1.54116973      -0.00055606      -0.00085268      -0.00443628
Sn       1.91509925       3.16551567      -0.85586464       0.00214072       0.00125198       0.00639814
Sn       0.90444487       2.17118606       3.98306047       0.00225321       0.00194530       0.00765400
4
Lattice="4.0338714723234235 -4.210559699427844e-05 2.3288903809300048 1.3442772980422957 3.803363682621997 2.329402501846535 7.038307711235213e-05 4.1759569399953434e-05 4.658491771068318" Properties=species:S:1:pos:R:3:forces:R:3 structure_index=17 total_energy=-11.746553421020508 stress="0.08802644908428192 0.0002334663295187056 -0.00048294704174622893 0.0002333794254809618 0.0883287712931633 -0.00011636297858785838 -0.00048312265425920486 -0.00011626903142314404 0.08971475064754486" pbc="T T T"
Li       1.91534655       1.79038309       4.31736801      -0.00004513       0.00103144       0.00078060
Li       4.60421087       3.69206998       4.31722315       0.00028380       0.00090419       0.00090438
Ga       0.57099751       0.84054275       1.98963121      -0.00058429      -0.00180244      -0.00292166
Sn       3.25973882       2.74142949       6.64632363       0.00034561      -0.00013318       0.00123667
16
Lattice="5.23598572044967 0.0031195645960268525 -0.008111407401998911 -0.0034824546897105793 5.952647872719214 0.000201230993810889 0.01500178828100362 -0.0005127725289261624 9.535062400597504" Properties=species:S:1:pos:R:3:forces:R:3 structure_index=18 total_energy=-46.74169158935547 stress="-0.000553351768758148 0.0003054242697544396 0.0015316361095756292 0.0003054551489185542 0.007160329259932041 5.931832129135728e-05 0.001531697460450232 5.9287191106704995e-05 0.026347054168581963" pbc="T T T"
Li       0.95773820       2.98828523       6.03834233       0.00771489       0.00139764       0.00594489
Li       1.86372039       4.39510023       8.56553313      -0.00303163       0.00115256       0.00049385
Li       2.60476192       0.01366436       3.79518741       0.01160165       0.00052862       0.00051828
Li       1.86614428       1.58204313       8.56545908      -0.00433861       0.00070886      -0.00002224
Li       0.94236053       2.98985634       1.56097732       0.01313683      -0.00005183      -0.00842131
Li       4.45339749       0.01384705       8.55860234       0.00999524       0.00123181       0.00113953
Ga       3.52760374       1.56122594       1.50959380      -0.00315692       0.00230522      -0.00311328
Ga       3.52574278       4.42476025       1.51052846      -0.00219400      -0.00651366      -0.00532429
Ga       3.53845628       4.42346406       6.07781463      -0.00318112      -0.00737149       0.00401072
Ga       5.19379549       4.44955015       3.79298677       0.00715264      -0.01719720      -0.00023866
Ga       5.19671144       1.53410818       3.79239891       0.00543814       0.01741998      -0.00096325
Ga       3.54099632       1.55886087       6.07724745      -0.00472813       0.00561744       0.00424514
Ga       2.66028559       2.98992800       3.79482245      -0.03344611       0.00111105       0.00207118
Sn       4.49910361       2.99089038       8.55979222      -0.01281976      -0.00026128       0.00087060
Sn       0.94863856       0.01329169       1.36341685       0.00883391       0.00087308       0.01275566
Sn       0.96486121       0.01272886       6.23497845       0.00302298      -0.00095081      -0.01396682
8
Lattice="4.734620538131847 -0.02154178622258935 0.018122160710636645 0.036805329561880124 5.025894777572057 -2.859018831174809 -0.017824144303463886 -0.027646827162698718 5.783147609000941" Properties=species:S:1:pos:R:3:forces:R:3 structure_index=19 total_energy=-20.485855102539062 stress="0.0544201023876667 0.011588520370423794 0.008240646682679653 0.011588653549551964 0.025101501494646072 0.013905033469200134 0.008240715600550175 0.013904874213039875 0.009518436156213284" pbc="T T T"
Li       2.76333852       2.16437747       0.82013868       0.00077111      -0.00147763      -0.00313587
Li       2.77543888       4.77876261       2.35040930      -0.00114828       0.00266236      -0.00116712
Li       2.78324018       4.79313987      -0.67624667       0.00010046       0.00034175      -0.00130554
Li       0.38023205       0.61638622       3.68656514       0.00058416       0.00387559       0.00219419
Li       0.40535903       3.07288567      -0.67567873       0.00079006      -0.00272746      -0.00160224
Li       0.39778045       3.05842277       2.29964232      -0.00011575      -0.00140224       0.00187675
Ga       0.38796220       0.58410481       0.79543614       0.00022818      -0.00112739       0.00152040