# Thermal properties / unit cell (natom)

unit:
  temperature:   K
  free_energy:   kJ/mol
  entropy:       J/K/mol
  heat_capacity: J/K/mol

natom: 5    
cutoff_frequency: 0.00000
num_modes: 156060
num_integrated_modes: 155301

zero_point_energy:      18.1414833

thermal_properties:
- temperature:         0.0000000
  free_energy:        18.1414833
  entropy:             0.0000000
  heat_capacity:       0.0000000
  energy:             18.1414833

- temperature:        10.0000000
  free_energy:        18.1406671
  entropy:             0.2317931
  heat_capacity:       0.5233645
  energy:             18.1429850

- temperature:        20.0000000
  free_energy:        18.1343655
  entropy:             1.1758709
  heat_capacity:       2.8125118
  energy:             18.1578829

- temperature:        30.0000000
  free_energy:        18.1138277
  entropy:             3.1130776
  heat_capacity:       7.4745988
  energy:             18.2072200

- temperature:        40.0000000
  free_energy:        18.0683429
  entropy:             6.1715970
  heat_capacity:      14.4590366
  energy:             18.3152068

- temperature:        50.0000000
  free_energy:        17.9868290
  entropy:            10.2958506
  heat_capacity:      23.0076803
  energy:             18.5016216

- temperature:        60.0000000
  free_energy:        17.8594823
  entropy:            15.3020582
  heat_capacity:      32.2369080
  energy:             18.7776058

- temperature:        70.0000000
  free_energy:        17.6785947
  entropy:            20.9667371
  heat_capacity:      41.4464001
  energy:             19.1462662

- temperature:        80.0000000
  free_energy:        17.4386625
  entropy:            27.0781118
  heat_capacity:      50.1762711
  energy:             19.6049114

- temperature:        90.0000000
  free_energy:        17.1361425
  entropy:            33.4577766
  heat_capacity:      58.1764130
  energy:             20.1473424

- temperature:       100.0000000
  free_energy:        16.7690828
  entropy:            39.9658736
  heat_capacity:      65.3488470
  energy:             20.7656702

- temperature:       110.0000000
  free_energy:        16.3367476
  entropy:            46.4981845
  heat_capacity:      71.6915591
  energy:             21.4515479

- temperature:       120.0000000
  free_energy:        15.8392896
  entropy:            52.9801101
  heat_capacity:      77.2554887
  energy:             22.1969029

- temperature:       130.0000000
  free_energy:        15.2774868
  entropy:            59.3601944
  heat_capacity:      82.1159466
  energy:             22.9943121

- temperature:       140.0000000
  free_energy:        14.6525402
  entropy:            65.6043725
  heat_capacity:      86.3554734
  energy:             23.8371523

- temperature:       150.0000000
  free_energy:        13.9659245
  entropy:            71.6913073
  heat_capacity:      90.0544847
  energy:             24.7196206

- temperature:       160.0000000
  free_energy:        13.2192796
  entropy:            77.6087974
  heat_capacity:      93.2867483
  energy:             25.6366871

- temperature:       170.0000000
  free_energy:        12.4143330
  entropy:            83.3510920
  heat_capacity:      96.1176544
  energy:             26.5840187

- temperature:       180.0000000
  free_energy:        11.5528463
  entropy:            88.9169241
  heat_capacity:      98.6039990
  energy:             27.5578926

- temperature:       190.0000000
  free_energy:        10.6365770
  entropy:            94.3080861
  heat_capacity:     100.7945166
  energy:             28.5551134

- temperature:       200.0000000
  free_energy:         9.6672541
  entropy:            99.5284090
  heat_capacity:     102.7307321
  energy:             29.5729359

- temperature:       210.0000000
  free_energy:         8.6465612
  entropy:           104.5830343
  heat_capacity:     104.4478975
  energy:             30.6089984

- temperature:       220.0000000
  free_energy:         7.5761260
  entropy:           109.4778991
  heat_capacity:     105.9758969
  energy:             31.6612638

- temperature:       230.0000000
  free_energy:         6.4575146
  entropy:           114.2193745
  heat_capacity:     107.3400665
  energy:             32.7279707

- temperature:       240.0000000
  free_energy:         5.2922280
  entropy:           118.8140130
  heat_capacity:     108.5619116
  energy:             33.8075911

- temperature:       250.0000000
  free_energy:         4.0817019
  entropy:           123.2683756
  heat_capacity:     109.6597200
  energy:             34.8987958

- temperature:       260.0000000
  free_energy:         2.8273065
  entropy:           127.5889143
  heat_capacity:     110.6490800
  energy:             36.0004243

- temperature:       270.0000000
  free_energy:         1.5303488
  entropy:           131.7818953
  heat_capacity:     111.5433145
  energy:             37.1114605

- temperature:       280.0000000
  free_energy:         0.1920737
  entropy:           135.8533501
  heat_capacity:     112.3538435
  energy:             38.2310117

- temperature:       290.0000000
  free_energy:        -1.1863324
  entropy:           139.8090470
  heat_capacity:     113.0904852
  energy:             39.3582912

- temperature:       300.0000000
  free_energy:        -2.6037397
  entropy:           143.6544773
  heat_capacity:     113.7617068
  energy:             40.4926035

- temperature:       310.0000000
  free_energy:        -4.0590718
  entropy:           147.3948504
  heat_capacity:     114.3748330
  energy:             41.6333318

- temperature:       320.0000000
  free_energy:        -5.5513030
  entropy:           151.0350961
  heat_capacity:     114.9362198
  energy:             42.7799278

- temperature:       330.0000000
  free_energy:        -7.0794555
  entropy:           154.5798721
  heat_capacity:     115.4513995
  energy:             43.9319023

- temperature:       340.0000000
  free_energy:        -8.6425969
  entropy:           158.0335729
  heat_capacity:     115.9252016
  energy:             45.0888179

- temperature:       350.0000000
  free_energy:       -10.2398372
  entropy:           161.4003422
  heat_capacity:     116.3618549
  energy:             46.2502825

- temperature:       360.0000000
  free_energy:       -11.8703270
  entropy:           164.6840850
  heat_capacity:     116.7650724
  energy:             47.4159436

- temperature:       370.0000000
  free_energy:       -13.5332545
  entropy:           167.8884809
  heat_capacity:     117.1381235
  energy:             48.5854835

- temperature:       380.0000000
  free_energy:       -15.2278437
  entropy:           171.0169970
  heat_capacity:     117.4838949
  energy:             49.7586152

- temperature:       390.0000000
  free_energy:       -16.9533524
  entropy:           174.0729009
  heat_capacity:     117.8049419
  energy:             50.9350790

- temperature:       400.0000000
  free_energy:       -18.7090700
  entropy:           177.0592729
  heat_capacity:     118.1035321
  energy:             52.1146392

- temperature:       410.0000000
  free_energy:       -20.4943158
  entropy:           179.9790178
  heat_capacity:     118.3816832
  energy:             53.2970815

- temperature:       420.0000000
  free_energy:       -22.3084374
  entropy:           182.8348765
  heat_capacity:     118.6411941
  energy:             54.4822107

- temperature:       430.0000000
  free_energy:       -24.1508090
  entropy:           185.6294363
  heat_capacity:     118.8836732
  energy:             55.6698486

- temperature:       440.0000000
  free_energy:       -26.0208299
  entropy:           188.3651413
  heat_capacity:     119.1105611
  energy:             56.8598322

- temperature:       450.0000000
  free_energy:       -27.9179234
  entropy:           191.0443013
  heat_capacity:     119.3231510
  energy:             58.0520122

- temperature:       460.0000000
  free_energy:       -29.8415348
  entropy:           193.6691006
  heat_capacity:     119.5226064
  energy:             59.2462515

- temperature:       470.0000000
  free_energy:       -31.7911311
  entropy:           196.2416067
  heat_capacity:     119.7099763
  energy:             60.4424241

- temperature:       480.0000000
  free_energy:       -33.7661991
  entropy:           198.7637772
  heat_capacity:     119.8862079
  energy:             61.6404139

- temperature:       490.0000000
  free_energy:       -35.7662450
  entropy:           201.2374673
  heat_capacity:     120.0521584
  energy:             62.8401140

- temperature:       500.0000000
  free_energy:       -37.7907928
  entropy:           203.6644363
  heat_capacity:     120.2086049
  energy:             64.0414254

- temperature:       510.0000000
  free_energy:       -39.8393836
  entropy:           206.0463536
  heat_capacity:     120.3562532
  energy:             65.2442567

- temperature:       520.0000000
  free_energy:       -41.9115750
  entropy:           208.3848043
  heat_capacity:     120.4957453
  energy:             66.4485233

- temperature:       530.0000000
  free_energy:       -44.0069398
  entropy:           210.6812948
  heat_capacity:     120.6276660
  energy:             67.6541464

- temperature:       540.0000000
  free_energy:       -46.1250658
  entropy:           212.9372572
  heat_capacity:     120.7525494
  energy:             68.8610531

- temperature:       550.0000000
  free_energy:       -48.2655544
  entropy:           215.1540545
  heat_capacity:     120.8708835
  energy:             70.0691756

- temperature:       560.0000000
  free_energy:       -50.4280206
  entropy:           217.3329841
  heat_capacity:     120.9831150
  energy:             71.2784505

- temperature:       570.0000000
  free_energy:       -52.6120920
  entropy:           219.4752823
  heat_capacity:     121.0896535
  energy:             72.4888189

- temperature:       580.0000000
  free_energy:       -54.8174081
  entropy:           221.5821275
  heat_capacity:     121.1908750
  energy:             73.7002258

- temperature:       590.0000000
  free_energy:       -57.0436201
  entropy:           223.6546440
  heat_capacity:     121.2871253
  energy:             74.9126198

- temperature:       600.0000000
  free_energy:       -59.2903901
  entropy:           225.6939049
  heat_capacity:     121.3787225
  energy:             76.1259528

- temperature:       610.0000000
  free_energy:       -61.5573908
  entropy:           227.7009353
  heat_capacity:     121.4659600
  energy:             77.3401798

- temperature:       620.0000000
  free_energy:       -63.8443047
  entropy:           229.6767146
  heat_capacity:     121.5491085
  energy:             78.5552584

- temperature:       630.0000000
  free_energy:       -66.1508240
  entropy:           231.6221796
  heat_capacity:     121.6284183
  energy:             79.7711491

- temperature:       640.0000000
  free_energy:       -68.4766502
  entropy:           233.5382265
  heat_capacity:     121.7041206
  energy:             80.9878147

- temperature:       650.0000000
  free_energy:       -70.8214934
  entropy:           235.4257132
  heat_capacity:     121.7764298
  energy:             82.2052202

- temperature:       660.0000000
  free_energy:       -73.1850720
  entropy:           237.2854617
  heat_capacity:     121.8455447
  energy:             83.4233327

- temperature:       670.0000000
  free_energy:       -75.5671128
  entropy:           239.1182595
  heat_capacity:     121.9116497
  energy:             84.6421211

- temperature:       680.0000000
  free_energy:       -77.9673499
  entropy:           240.9248620
  heat_capacity:     121.9749163
  energy:             85.8615562

- temperature:       690.0000000
  free_energy:       -80.3855251
  entropy:           242.7059936
  heat_capacity:     122.0355038
  energy:             87.0816105

- temperature:       700.0000000
  free_energy:       -82.8213872
  entropy:           244.4623501
  heat_capacity:     122.0935608
  energy:             88.3022579

- temperature:       710.0000000
  free_energy:       -85.2746918
  entropy:           246.1945993
  heat_capacity:     122.1492256
  energy:             89.5234737

- temperature:       720.0000000
  free_energy:       -87.7452010
  entropy:           247.9033831
  heat_capacity:     122.2026272
  energy:             90.7452348

- temperature:       730.0000000
  free_energy:       -90.2326833
  entropy:           249.5893184
  heat_capacity:     122.2538863
  energy:             91.9675191

- temperature:       740.0000000
  free_energy:       -92.7369132
  entropy:           251.2529986
  heat_capacity:     122.3031153
  energy:             93.1903058

- temperature:       750.0000000
  free_energy:       -95.2576710
  entropy:           252.8949947
  heat_capacity:     122.3504198
  energy:             94.4135750

- temperature:       760.0000000
  free_energy:       -97.7947426
  entropy:           254.5158562
  heat_capacity:     122.3958982
  energy:             95.6373081

- temperature:       770.0000000
  free_energy:      -100.3479194
  entropy:           256.1161125
  heat_capacity:     122.4396432
  energy:             96.8614872

- temperature:       780.0000000
  free_energy:      -102.9169979
  entropy:           257.6962735
  heat_capacity:     122.4817412
  energy:             98.0860955

- temperature:       790.0000000
  free_energy:      -105.5017795
  entropy:           259.2568308
  heat_capacity:     122.5222737
  energy:             99.3111168

- temperature:       800.0000000
  free_energy:      -108.1020707
  entropy:           260.7982584
  heat_capacity:     122.5613171
  energy:            100.5365360

- temperature:       810.0000000
  free_energy:      -110.7176825
  entropy:           262.3210135
  heat_capacity:     122.5989432
  energy:            101.7623384

- temperature:       820.0000000
  free_energy:      -113.3484302
  entropy:           263.8255373
  heat_capacity:     122.6352195
  energy:            102.9885104

- temperature:       830.0000000
  free_energy:      -115.9941338
  entropy:           265.3122559
  heat_capacity:     122.6702096
  energy:            104.2150385

- temperature:       840.0000000
  free_energy:      -118.6546174
  entropy:           266.7815807
  heat_capacity:     122.7039734
  energy:            105.4419105

- temperature:       850.0000000
  free_energy:      -121.3297088
  entropy:           268.2339093
  heat_capacity:     122.7365674
  energy:            106.6691141

- temperature:       860.0000000
  free_energy:      -124.0192402
  entropy:           269.6696259
  heat_capacity:     122.7680449
  energy:            107.8966381

- temperature:       870.0000000
  free_energy:      -126.7230472
  entropy:           271.0891019
  heat_capacity:     122.7984561
  energy:            109.1244715

- temperature:       880.0000000
  free_energy:      -129.4409693
  entropy:           272.4926967
  heat_capacity:     122.8278484
  energy:            110.3526038

- temperature:       890.0000000
  free_energy:      -132.1728494
  entropy:           273.8807579
  heat_capacity:     122.8562668
  energy:            111.5810252

- temperature:       900.0000000
  free_energy:      -134.9185338
  entropy:           275.2536220
  heat_capacity:     122.8837538
  energy:            112.8097260

- temperature:       910.0000000
  free_energy:      -137.6778722
  entropy:           276.6116148
  heat_capacity:     122.9103494
  energy:            114.0386973

- temperature:       920.0000000
  free_energy:      -140.4507176
  entropy:           277.9550519
  heat_capacity:     122.9360916
  energy:            115.2679302

- temperature:       930.0000000
  free_energy:      -143.2369258
  entropy:           279.2842389
  heat_capacity:     122.9610166
  energy:            116.4974164

- temperature:       940.0000000
  free_energy:      -146.0363558
  entropy:           280.5994721
  heat_capacity:     122.9851585
  energy:            117.7271479

- temperature:       950.0000000
  free_energy:      -148.8488696
  entropy:           281.9010386
  heat_capacity:     123.0085496
  energy:            118.9571171

- temperature:       960.0000000
  free_energy:      -151.6743320
  entropy:           283.1892172
  heat_capacity:     123.0312207
  energy:            120.1873165

- temperature:       970.0000000
  free_energy:      -154.5126103
  entropy:           284.4642778
  heat_capacity:     123.0532009
  energy:            121.4177392

- temperature:       980.0000000
  free_energy:      -157.3635747
  entropy:           285.7264826
  heat_capacity:     123.0745180
  energy:            122.6483783

- temperature:       990.0000000
  free_energy:      -160.2270979
  entropy:           286.9760862
  heat_capacity:     123.0951984
  energy:            123.8792274

- temperature:      1000.0000000
  free_energy:      -163.1030552
  entropy:           288.2133355
  heat_capacity:     123.1152670
  energy:            125.1102802
