6
Lattice="4.138616813903616 0.00392142443645621 -1.3317389616280952 -0.004475322853829591 4.228697549637229 -0.0028236997763597207 -0.026134988980853455 0.004099893402565563 7.01976837336994" Properties=species:S:1:pos:R:3:forces:R:3 structure_index=0 total_energy=-18.532630920410156 stress="0.006868945434689522 0.001861454569734633 0.009709300473332405 0.0018614635337144136 -0.019481997936964035 0.0003064685733988881 0.009709375910460949 0.00030647829407826066 0.03641894832253456" pbc="T T T"
Li       0.12700621       2.25466056       6.93310919      -0.00100381       0.00092524      -0.02228758
Li       1.43416526       2.25650879       3.84750803      -0.00005865      -0.00070365       0.01843859
Ga       0.79535530       0.14022039       1.87964383       0.00041669      -0.00119799       0.00220555
Ga       2.86240307       2.25567120       1.21313099       0.00014733      -0.00014950      -0.00018754
Sn       3.51629634       0.14356911       3.22821724       0.00592717       0.00001177       0.02388423
Sn       2.18686388       0.14234922       6.21937426      -0.00542872       0.00111413      -0.02205326
12
Lattice="5.402940277282978 -0.004550389192205073 -2.0272173512929204 -0.7884358371739842 5.43163015443124 -2.0843179360493704 0.14310143526863217 0.14986776040513308 8.58718729125533" Properties=species:S:1:pos:R:3:forces:R:3 structure_index=1 total_energy=-35.695960998535156 stress="-0.011375588364899158 -0.0005493344506248832 0.0004788950609508902 -0.0005493706557899714 -0.01169613841921091 0.0010844554053619504 0.000478834321256727 0.001084408606402576 -0.011874457821249962" pbc="T T T"
Li       3.92941281       3.18132868       0.76311325       0.00919532       0.01089565       0.02598582
Li       4.28743735       3.55851906      -2.51552181       0.00023170      -0.00115606       0.00184142
Li       5.18219557       1.36686091       3.83003359      -0.00852929      -0.01151300      -0.02227465
Li       1.70928369       0.46603865       2.78839213       0.01000663       0.01124457       0.02468263
Li       4.68087661       0.83979921      -1.47501337      -0.00062436       0.00034134      -0.00290564
Li       1.99782008       4.08566933       3.83347100      -0.00992614      -0.01083900      -0.02257113
Ga       1.97969578       0.84297387      -0.46111297       0.00018749       0.00088970       0.00148531
Ga       1.58546660       3.55937661      -1.50352904      -0.00050576      -0.00161192      -0.00228229
Sn       4.87488934       4.29476822       3.31138200       0.01185765       0.00126239      -0.00400279
Sn       2.67091100       1.58361365       5.32820905      -0.00984649       0.00283254       0.00464036
Sn       1.03824877       2.96832941       1.29441807       0.01026445      -0.00212781      -0.00528472
Sn       4.23554045       0.25305849       1.28533195      -0.01231121      -0.00021839       0.00068569
8
Lattice="4.224200015076817 0.002573186102056039 -1.4417399801885744 -0.4942433065028742 4.195284237497497 -1.441912953197578 0.10292261818114853 0.11594705111715856 7.211098940053547" Properties=species:S:1:pos:R:3:forces:R:3 structure_index=2 total_energy=-21.938831329345703 stress="0.05348125845193863 -0.004105458501726389 -0.012851941399276257 -0.00410564336925745 0.05371849983930588 -0.014817427843809128 -0.012851741164922714 -0.014817223884165287 0.01866595819592476" pbc="T T T"
Li       0.32818194       0.57400166       0.61392456       0.00345705       0.00354713       0.01108402
Li       2.19313604       2.67243062      -0.82699721       0.00374439       0.00365502       0.00926315
Li       1.24899040       1.60973879       3.31298806      -0.00376627      -0.00387602      -0.00945650
Li       3.11378738       3.70861286       1.87186110      -0.00375579      -0.00344314      -0.01101732
Li       1.52537395       4.29627128       4.12926682      -0.00004748       0.00066102      -0.00245492
Ga       0.53980867       3.18808018       1.23829378      -0.00479427      -0.00566053      -0.01295027
Ga       2.90238165       1.09460093       1.24734409       0.00379279       0.00424183       0.01182809
Sn       3.88432912       2.20040216       4.12705025       0.00136957       0.00087469       0.00370370
10
Lattice="4.278300636678586 0.0011646163190611636 -0.0005650263424413943 -0.001369742759118729 7.269466977935675 -0.002376334185417224 0.001401392523710179 0.0023253624705794856 7.278844199684977" Properties=species:S:1:pos:R:3:forces:R:3 structure_index=3 total_energy=-31.366924285888672 stress="0.017668291926383972 0.0002145605394616723 0.0001446355745429173 0.0002145923353964463 -0.013797571882605553 -0.00021872726210858673 0.00014455927885137498 -0.0002188116341130808 -0.014151548966765404" pbc="T T T"
Li       3.02149030       2.89662147       4.33071255       0.00002575      -0.00021263      -0.00089222
Li       3.02064512       6.52963953       0.68953534       0.00001455       0.00078008       0.00065437
Ga       3.02162772       3.86288998       1.66122964      -0.00083322      -0.00953822      -0.00905853
Ga       3.02201236       1.92987823       6.99912510       0.00114495       0.00932825       0.00974420
Ga       3.02214031       0.22905308       3.36054639       0.00036372      -0.00941915       0.00878014
Ga       3.02131715       5.56404171       5.30020758       0.00058305       0.01016770      -0.01062435
Sn       0.88298718       4.13153898       6.73839908      -0.00042206      -0.02936353       0.03002055
Sn       0.88197120       5.29614481       3.09753124       0.00041702       0.02954642       0.03076357
Sn       0.88341158       0.49685806       5.56211267      -0.00083191      -0.03003004      -0.02986235
Sn       0.88264825       1.66053505       1.92235332      -0.00046186       0.02874111      -0.02952537
18
Lattice="4.763297837625662 -0.01188209740411638 -0.010754625552423049 -2.395397471791091 4.168281984524813 -0.015090592777597493 -0.04276768623431753 -0.09194151422785625 18.35870882634592" Properties=species:S:1:pos:R:3:forces:R:3 structure_index=4 total_energy=-53.3573112487793 stress="-0.01471847016364336 1.8325899873161688e-06 7.467798423022032e-05 1.8595702613311005e-06 -0.017229421064257622 0.0017597340047359467 7.458287291228771e-05 0.0017597208498045802 -0.015791235491633415" pbc="T T T"
Li       0.99090752       1.56110099      10.56784641      -0.00001150      -0.00039245      -0.00545476
Li       3.34808658       0.13003969      17.63754273      -0.00013187      -0.00160812       0.00645663
Li      -1.40878112       2.93390330      15.53615461       0.00192233       0.00427084      -0.04561117
Li       0.99727128       1.60186144       1.11483138      -0.00022643      -0.00098640       0.01479041
Ga      -1.39409877       2.95733457       9.07420435       0.00076577       0.00098551       0.03860724
Ga       0.96225649       1.52257655      16.68033179      -0.00102555      -0.00340526      -0.00244150
Ga      -1.40433972       2.97250442       3.27935959      -0.00344297      -0.00339693      -0.01622290
Ga      -1.38830961       2.96774919       6.08151621       0.00081503      -0.00270761       0.00679865
Ga      -1.39835730       2.94848391      11.87939930       0.00111472      -0.00182196       0.04759077
Ga       3.37032438       0.15585373      14.90090300       0.00270783       0.00540025      -0.01538171
Ga       0.98303016       1.57988541       4.28440203      -0.00144181      -0.00030703      -0.00655287
Ga       3.38287771       0.18424011       5.58434948      -0.00019151      -0.00183514       0.05032278
Ga       3.38151409       0.17520278       9.22833245       0.00079896       0.00376216      -0.04400625
Ga       3.37770642       0.16661281      12.03907411      -0.00024864       0.00114507      -0.02091349
Sn       0.99353863       1.56562126       7.47079571       0.00029952       0.00011777       0.00071363
Sn       0.99123558       1.55860671      13.68062157       0.00127358       0.00430865      -0.00703541
Sn       3.37451830       0.19360179       2.33398504      -0.00268973      -0.00242815       0.01706208
Sn      -1.38587898       3.00127357       0.07964805      -0.00028773      -0.00110119      -0.01872213
14
Lattice="6.684576550834733 0.09739357738215489 -2.1453347355330767 -3.361310288910065 6.03865336973299 -2.6614011011815406 0.047724467019826536 -0.18731224666134982 7.56714248254466" Properties=species:S:1:pos:R:3:forces:R:3 structure_index=5 total_energy=-42.91485595703125 stress="-0.02046058513224125 0.0003908070793841034 -0.00234514893963933 0.0003907756763510406 -0.017194295302033424 0.0006366653251461685 -0.0023451882880181074 0.0006366751622408628 -0.01856684498488903" pbc="T T T"
Li       3.42542675       1.53627849       0.66422721       0.00086499       0.00811728      -0.01545320
Li      -1.52115400       3.87651755       1.46884804      -0.00117652       0.01718842      -0.00828346
Li       1.00601391       2.92202084      -1.29972716      -0.01458775      -0.00754662      -0.00029599
Li      -0.39224210       1.01099905       0.90551650      -0.01542391       0.01894856       0.01604570
Li       4.87243139       0.05542749       3.31910814       0.01989026      -0.00812449      -0.00731238
Li       0.64793328       4.99399494       3.76345443       0.01402458      -0.00187547      -0.00544827
Li       1.73998539       0.94108063       3.47754419      -0.01235378      -0.01293949       0.01978410
Ga       3.53724990       3.48924324       3.12931715      -0.00258756      -0.01168562       0.00041869
Sn       3.65779312       1.93169635      -2.13943960       0.00468733      -0.00153927      -0.00686045
Sn       1.25422184       3.23623348       1.57646345      -0.00398519      -0.00641786      -0.00668706
Sn      -0.72992034       2.36113023       3.86850450      -0.00566108       0.00384218      -0.01622673
Sn       2.78927446       5.18372673      -1.84391066      -0.01557462      -0.00577452      -0.00813660
Sn      -2.16566249       5.84024491       3.55183552       0.02621399      -0.00774110       0.03938933
Sn      -0.97373828       5.06902239      -1.24162862       0.00566923       0.01554801      -0.00093368
10
Lattice="4.430087568512535 0.004047302541058926 0.0016155637527388066 -2.219232714643153 5.121967333390194 -0.047346707410689304 -0.003889895499803417 0.011620358719102922 10.176678733549934" Properties=species:S:1:pos:R:3:forces:R:3 structure_index=6 total_energy=-32.63919448852539 stress="-0.0019608414731919765 0.0007098203059285879 -0.0003689357836265117 0.0007095150067470968 0.0063345120288431644 -0.00849404837936163 -0.0003689910226967186 -0.00849408470094204 -0.01017678901553154" pbc="T T T"
Li       1.32178398       2.34453955       4.00993090      -0.00007940      -0.00552458      -0.00970632
Li       1.31764348       4.25430229      10.12468410       0.00042640      -0.00507707       0.00014004
Ga       3.53653496       1.26433479       5.98017045       0.00053402       0.00535540      -0.00130896
Ga       1.32403423       1.29786821       0.96272054      -0.00030120      -0.02159543       0.00783823
Ga      -0.89534016       2.17538937       9.15782234       0.00014610       0.01749584      -0.02582438
Sn      -0.89283355       3.28612479       1.77892875      -0.00070058      -0.00506296       0.03730528
Sn       1.32164138       0.21602209       8.32568772      -0.00016843       0.00402297      -0.02403578
Sn      -0.89527905       4.35900549       4.96830510      -0.00035897      -0.00243046       0.01858928
Sn       3.53874111       0.32967750       2.91571055       0.00062191      -0.01190021       0.00352767
Sn       1.31979530       3.19401279       7.12041136      -0.00011985       0.02471652      -0.00652508
8
Lattice="5.203316092300651 0.13531632444700742 -1.9593799705653103 -2.431194671859567 4.604180692990906 -1.955216614449064 -0.08831817129595378 -0.15399400231729907 5.5590106203676415" Properties=species:S:1:pos:R:3:forces:R:3 structure_index=7 total_energy=-20.359161376953125 stress="-0.008423976600170135 -0.025787971913814545 0.02092035487294197 -0.025787685066461563 -0.03518931195139885 0.038488082587718964 0.02092038281261921 0.03848791867494583 -0.02067505568265915" pbc="T T T"
Li       4.89549761       0.12054060      -0.19766306       0.00600505      -0.00629129       0.00544655
Li       1.08489021       2.35201251      -0.19564471      -0.00696151       0.00240988       0.00208925
Li       1.03753681       2.27767287       2.58362596       0.00095366      -0.00373130       0.00148848
Li       3.68280532       2.41815169      -1.16819190      -0.00218027       0.00165719      -0.01726044
Li       2.29603381       0.04992216       0.78354672      -0.00165763      -0.00314709      -0.00524796
Li       4.85484481       0.04299627       2.58377148      -0.00376004      -0.00196838      -0.00204539
Ga       3.63855733       2.34206173       1.60504103      -0.00046651       0.00249423       0.00597962
Sn       2.25048771      -0.02735013       3.56007882       0.00806724       0.00857675       0.00954989
6
Lattice="4.246955417789407 0.0010910934279698995 0.0015217963197137472 -0.0009889168225222492 4.252645624806024 0.001634803599958073 0.00027507435658139163 -0.00043319143505166584 7.355478568124225" Properties=species:S:1:pos:R:3:forces:R:3 structure_index=8 total_energy=-18.353347778320312 stress="-0.02809824049472809 0.0004574408521875739 0.00016985353431664407 0.0004574588092509657 -0.02634691447019577 -0.00017800589557737112 0.00016993335157167166 -0.0001779193989932537 -0.03844486549496651" pbc="T T T"
Li       1.79906986       1.52114424       3.42406607       0.00189231       0.00237726       0.00474000
Li       3.92422146       3.65063099       6.25538421       0.00042231      -0.00065309      -0.00499549
Ga       1.80077772       3.64948928       1.15975689      -0.00083947       0.00006500       0.00325976
Ga       3.92388536       1.52464927       1.16400365       0.00074363      -0.00117607      -0.00327582
Sn       3.92356977       3.64985663       3.18229054      -0.00165858      -0.00172738      -0.00902079
Sn       1.80137299       1.52312160       6.49688115      -0.00056021       0.00111428       0.00929232
20
Lattice="6.193850082046864 0.15129426045039923 -0.1997631154898846 -0.3863344507211964 7.494302932128364 -2.8842368554046707 0.11639595107768422 0.10116876978212956 9.317392551342527" Properties=species:S:1:pos:R:3:forces:R:3 structure_index=9 total_energy=-63.3568000793457 stress="-0.00040961423655971885 -2.9542135962401517e-05 9.639545169193298e-05 -2.956134449050296e-05 -0.0024634189903736115 0.0002697678573895246 9.648052218835801e-05 0.0002697705931495875 -0.0020452351309359074" pbc="T T T"
Li       0.19759831       2.52861629       7.29275505       0.00343317       0.00858066      -0.00099333
Li       3.73673253       5.95138728       1.77587243      -0.00721874       0.00330471       0.00840859
Li       5.16773888       4.29253575       4.51421848      -0.00059950      -0.00208629      -0.01424239
Li       3.43293334       5.83308052      -1.86578989      -0.00055560      -0.02050186      -0.00860800
Li       0.52428853       2.45087416       1.91413347      -0.01277471       0.00771206       0.02443011
Li       2.16499417       0.47375173       6.01766425      -0.01435137       0.00268935      -0.01308821
Ga       5.44133738       7.09799934       4.13823941      -0.01187446      -0.00318515      -0.00395404
Ga       5.03738946       4.20655220      -0.20055176       0.00158038      -0.00114650       0.00072702
Ga       5.26200263       7.24179668      -0.31913583      -0.00976522      -0.00246676       0.00316002
Ga       3.41712864       3.03599064       6.99689718       0.01326087      -0.03824013       0.02811220
Ga       1.96009704       4.07470619      -0.14411489      -0.00630833      -0.00111132       0.00200152
Sn       4.86550030       1.12258732       0.00895421       0.00584558      -0.00521960       0.00088712
Sn       2.72982060       5.75238208       4.60711588      -0.01586396       0.01713234      -0.00449596
Sn       4.81595550       1.41358984       4.85901625       0.01349116       0.00418843       0.00315684
Sn       3.55475806       2.99916491       2.24800804       0.00990565      -0.00327182      -0.00752233
Sn       0.61904982       5.41520732       2.15481081      -0.00318311       0.00859773      -0.00999614
Sn       0.49708289       5.51591503       6.95010688      -0.00493899       0.00227563      -0.00182889
Sn       1.87532305       0.83811466      -0.35734904      -0.00829886      -0.00187269      -0.00252630
Sn       1.54477966       2.87652705       4.66749214       0.03337762       0.01643454       0.00878436
Sn       1.94560321       7.57314350       0.05484786       0.01483843       0.00818669      -0.01241222
4
Lattice="4.272930080631854 0.0011605230574498649 -0.0016078511222308114 -0.0027915254818211385 4.274245150139958 -0.003914976663422217 0.0011373711414118975 0.002765256730270433 4.358479309848042" Properties=species:S:1:pos:R:3:forces:R:3 structure_index=10 total_energy=-12.158639907836914 stress="-0.06777709722518921 -0.0049207452684640884 -0.002459356328472495 -0.004920741077512503 -0.05827777832746506 -0.006014095153659582 -0.0024592168629169464 -0.006014155689626932 -0.04029783979058266" pbc="T T T"
Li       2.89783015       2.24673776       1.58468059      -0.00016751       0.00026485       0.00077066
Ga       0.76221203       2.24791388       3.76508072      -0.00029313      -0.00042700      -0.00060314
Ga       2.89983551       0.11092151       3.76677151      -0.00035216       0.00035576      -0.00196771
Sn       0.76248950       0.10932431       1.58753238       0.00081280      -0.00019361       0.00180019
8
Lattice="4.417148381659801 -0.004422914039962067 -0.0031609581308733275 -2.2048097534790476 4.841828071060202 -0.38406210701147936 0.008369297209267008 -0.028695920428609828 8.67578981371615" Properties=species:S:1:pos:R:3:forces:R:3 structure_index=11 total_energy=-25.77452850341797 stress="-0.0017117474926635623 -0.001841880613937974 0.0007703073788434267 -0.0018418936524540186 -0.03972676768898964 -0.006136463955044746 0.000770354236010462 -0.006136509124189615 -0.024861058220267296" pbc="T T T"
Li       0.37202140       3.91075591       7.15024657       0.00006921      -0.00535809      -0.01147667
Li       2.57951876       1.87989974       8.35726817       0.00008134       0.00554590       0.01167648
Ga       2.57896793       2.80352538       5.63105014      -0.00090987      -0.02635386       0.00741974
Ga       0.36446254       3.01617301       1.20036202       0.00030670       0.02632211      -0.00602514
Sn       2.57360937       1.79542000       2.80165814      -0.00028329       0.01412839       0.03160284
Sn       0.36973575       4.02658543       4.03057899       0.00038773      -0.01455804      -0.03195486
Sn       0.36907831       0.96108217       6.44859907      -0.00026117      -0.02233963      -0.01221412
Sn       0.36175099       0.02094145       0.77183727       0.00060933       0.02261323       0.01097175
8
Lattice="4.234514464156847 -0.006373638463279516 -0.001790162863014953 -2.109986802177566 4.6701560037058565 -0.5267224415648601 0.00019021123661849544 -0.14821404978249914 8.661590812280824" Properties=species:S:1:pos:R:3:forces:R:3 structure_index=12 total_energy=-24.55142593383789 stress="-0.004378730431199074 1.1096186426584609e-05 1.4757537428522483e-05 1.1004868611053098e-05 -0.011374449357390404 -0.0014972210628911853 1.4791940884606447e-05 -0.0014972718199715018 0.0073307049460709095" pbc="T T T"
Li       1.57513195       3.70923080       4.07731670       0.00010090      -0.02739069      -0.01950870
Li       1.57504142       4.29692406       1.17828507      -0.00013918       0.01685904       0.00784319
Li       1.57016251       1.37430317       0.38136476      -0.00028702       0.01440923      -0.04053682
Ga      -0.54482773       2.54051941       2.28520156       0.00009449       0.00924182       0.02729157
Ga      -0.54468791       2.94510290       8.35183387       0.00018833       0.04577284       0.00724238
Sn      -0.54459304       2.01041438       5.54223782      -0.00001408      -0.03110204       0.00857638
Sn       1.57014126       0.83238898       3.47056274       0.00015321      -0.01350150       0.02134830
Sn       1.57422792       4.21756229       6.89353544      -0.00009667      -0.01428869      -0.01225628
11
Lattice="4.217034936916153 -0.001955030067918331 1.478305118496023 1.1448774102642805 6.148725582799989 3.4962184589314007 -0.10636707750542557 0.26200755758464067 7.057608200874957" Properties=species:S:1:pos:R:3:forces:R:3 structure_index=13 total_energy=-30.130168914794922 stress="0.005229040049016476 0.0018125703791156411 8.319355401908979e-05 0.0018123554764315486 0.0011143203591927886 -0.0033851261250674725 8.294895087601617e-05 -0.0033851659391075373 0.002623744076117873" pbc="T T T"
Li       3.75557007       4.37306165      10.00993325      -0.00855687      -0.01169091       0.02400356
Li       2.79981502       0.96799064       5.97614189       0.00591261       0.00605141      -0.01445789
Li       4.68283633       4.94092429       7.36550593       0.00645463       0.00206874      -0.01933133
Li       1.20591934       2.50797301       3.77213542      -0.00636756      -0.00259004       0.01855173
Li       2.02700597       3.33767894       8.18497368       0.00825063       0.01161653      -0.02399467
Li       1.94407369       0.33179818       1.66477636      -0.00578563      -0.00529370       0.01494129
Ga       2.18581765       5.99331881       7.73578929       0.00816836       0.01870400      -0.02504514
Ga       3.70307126       1.45542718       3.40160056      -0.00840249      -0.01865329       0.02467716
Ga       0.25155143       2.14117490       6.49322128      -0.00141711      -0.03786888       0.00576879
Ga       1.42010017       5.30964744       3.16577791       0.00179353       0.03758974      -0.00568894
Sn       2.94441315       3.72438630       5.56856624      -0.00005014       0.00006637       0.00057547
11
Lattice="4.3340663437021165 0.001954217410915492 -1.379890622363362 -0.929788613575516 5.728219993069976 -2.912925388990255 0.08301420601410565 0.2924363658207501 7.757542878559884" Properties=species:S:1:pos:R:3:forces:R:3 structure_index=14 total_energy=-30.235437393188477 stress="-0.011698302812874317 -0.003870732383802533 -0.006143500097095966 -0.003870575688779354 -0.017352446913719177 -0.010953573510050774 -0.006143589969724417 -0.010953547433018684 -0.030861543491482735" pbc="T T T"
Li       3.66606617       0.29156495       0.36426134      -0.00624629       0.03185515      -0.02006829
Li       1.54815946       4.24062981       1.21312506       0.00425921      -0.01915872       0.01462197
Li       2.90829855       0.99533047       5.48143869      -0.01026747      -0.01824474      -0.03292675
Li       0.12016167       5.32703154       4.22677101      -0.00947527       0.01183898      -0.03198674
Li       2.04373806       1.21666091       2.76702170       0.00033814       0.02809615      -0.00032029
Li      -0.31094377       2.83842521       2.86919180       0.01088587       0.01530445       0.03363866
Li       0.55265299       2.61054852       5.57909958       0.00326383      -0.00818424       0.01391206
Ga       1.25067531       1.81608039       0.27488850      -0.00198126       0.00665323      -0.00562335
Ga       3.18695168       3.22318219      -1.13821070       0.00816688      -0.04462850       0.02600747
Sn      -0.72722577       5.76241675       1.56542095      -0.00736002      -0.01103373      -0.02355356
Sn       2.39695531       3.78290743       3.87845123       0.00841636       0.00750196       0.02629884
6
Lattice="4.91864672151118 0.00984172529553116 -0.005923954112048134 -2.461677770028657 4.2533855064989945 -0.00693793287285402 0.0006587220315271922 0.0013148376945322378 5.8653707045644605" Properties=species:S:1:pos:R:3:forces:R:3 structure_index=15 total_energy=-18.46735382080078 stress="0.031048977747559547 -0.020561479032039642 -0.0032100912649184465 -0.020561568439006805 0.0037133395671844482 -0.006304863374680281 -0.003209996037185192 -0.006304810754954815 -0.0325046107172966" pbc="T T T"
Li      -1.02709745       1.98947359       3.78630977      -0.00196117       0.00067316      -0.00135782
Li      -1.02931890       1.98677108       0.85285629      -0.00098873       0.00168026       0.00025287
Ga       1.42661132       0.57665006       2.32113832       0.00714862      -0.00419805      -0.00609452
Ga       1.43300457       3.41250081       5.24715213      -0.00819731       0.00489552      -0.00469342
Sn       1.43052688       0.57476963       5.25066677       0.00979067      -0.00498901       0.00667429
Sn       1.42852244       3.41477285       2.31184185      -0.00579206       0.00193812       0.00521859
12
Lattice="4.595076479726939 -0.0009974027301049623 0.001369074606371323 -2.296692846832114 3.9802104663888116 -0.0027717028280841573 -0.0029168549399375817 0.004165360306577124 11.351010357878424" Properties=species:S:1:pos:R:3:forces:R:3 structure_index=16 total_energy=-33.79205322265625 stress="0.01088855043053627 -0.0002478868991602212 0.00013528358249459416 -0.00024785890127532184 0.009369873441755772 -0.00028075039153918624 0.00013514744932763278 -0.00028069503605365753 0.032844334840774536" pbc="T T T"
Li       1.38311330       3.32147498       5.28437326       0.00037904       0.00124777      -0.00085347
Li       1.38239583       0.66919245       4.55799527       0.00103195      -0.00191006      -0.00705196
Li      -0.91436907       1.99738576       9.17538915      -0.00049556      -0.00047725      -0.00934869
Li       1.38498614       0.66633712       1.73443860      -0.00156662       0.00080539       0.00820993
Li       1.38309311       0.66936352       7.27265186      -0.00077906      -0.00011552      -0.01406640
Li       1.38377721       3.32289941       8.17526176      -0.00054263      -0.00005068      -0.01806117
Li      -0.91272335       1.99317019       0.59926736       0.00029297       0.00060689      -0.00230798
Li       1.38434550       3.32026022       2.51944308       0.00027776       0.00057505      -0.00512750
Ga       1.38235969       3.32371184      11.23932814       0.00038769      -0.00016697       0.04934293
Sn       1.38231303       0.67036484      10.10933650       0.00007414       0.00003912       0.00999782
Sn      -0.91455276       1.99607002       6.43248293       0.00064842       0.00001932      -0.03952897
Sn      -0.91403131       1.99511359       3.39473492       0.00029192      -0.00057308       0.02879545
9
Lattice="4.58848085347491 -0.011861566391699677 1.4458495007748031 2.201842973690823 5.23354200202763 1.1222151851346895 0.13181749673154022 -0.7248256162393081 7.512367780397503" Properties=species:S:1:pos:R:3:forces:R:3 structure_index=17 total_energy=-26.975021362304688 stress="0.025124166160821915 0.00025554077001288533 0.0004147364234086126 0.0002554377424530685 0.02329586260020733 -0.001874254085123539 0.0004148073203396052 -0.00187423184979707 0.022633517161011696" pbc="T T T"
Li       4.72614316       3.26009783       8.74682897      -0.00127431       0.03621431       0.00767338
Li       5.57018537       1.92350378       6.09819805       0.00125019      -0.03632448      -0.00760246
Ga       3.80159785       2.53548718       3.72383992       0.00245031      -0.01963547      -0.00829555
Ga       2.64325173       1.44937466       7.29731432      -0.00461336       0.01246034       0.01374656
Ga       1.77449503       3.38420949       2.16304305      -0.00248582       0.01984698       0.00845103
Ga       3.06452858       3.74590763       6.10191046       0.00456626      -0.01250941      -0.01368843
Ga       1.68699084       0.34288776       2.38253227       0.00000763       0.00009116      -0.00004574
Sn       4.68928076       0.08659583       8.79198520       0.00274194       0.01289232      -0.00914940
Sn       3.40498482      -0.13670779       4.93132677      -0.00264283      -0.01303574       0.00891063
3
Lattice="3.8361567870219817 -0.0031433835028276584 2.220699695056305 1.2794194863701782 3.6158522953386774 2.221425376289696 -0.004241360062397442 -0.0030822814216788725 4.432213705588556" Properties=species:S:1:pos:R:3:forces:R:3 structure_index=18 total_energy=-8.931541442871094 stress="-0.10131838917732239 0.008345769718289375 0.01818994991481304 0.008345609530806541 -0.10404254496097565 0.014129407703876495 0.01819000020623207 0.014129780232906342 -0.08045149594545364" pbc="T T T"
Li       3.32352966       3.54802002       6.32043292      -0.00442685       0.00315885      -0.00448671
Ga       3.32096250       0.83603602       6.31690172       0.00047164      -0.00262685      -0.00063349
Sn       2.04429887       2.64655118       4.10051212       0.00395522      -0.00053197       0.00512020
16
Lattice="4.3809757345935605 0.0007328170516131666 -0.0007432318085428989 -2.19005357217167 5.094298369900009 0.5475688059828722 0.0014170027254535292 0.05015929026743723 16.39725584823714" Properties=species:S:1:pos:R:3:forces:R:3 structure_index=19 total_energy=-50.026123046875 stress="0.01560851838439703 7.750838267384097e-05 -1.1312818969599903e-05 7.755590922897682e-05 0.01810818538069725 -0.001809274428524077 -1.1207594070583582e-05 -0.0018092709360644221 0.01801116205751896" pbc="T T T"
Li      -1.64203184       4.71629088       7.62899350       0.00054892      -0.04480474       0.00049581
Li       2.74023076       2.35995648       5.38022685       0.00005444      -0.01915057       0.01555718
Li       2.74148357       0.31729782      12.75451861      -0.00018157      -0.01009005      -0.01944529
Li       2.74329894       1.67051606       0.98934279      -0.00087996       0.03767460       0.01015652
Li       2.74234605       3.33212956      13.90453649       0.00009181       0.01352037      -0.00022908
Li       2.74034465       2.04536958       9.48092880       0.00031255      -0.00478588       0.02462090