phonopy:
  version: "2.37.1"
  frequency_unit_conversion_factor: 15.633302
  symmetry_tolerance: 1.00000e-05

space_group:
  type: "P1"
  number: 1
  Hall_symbol: "P 1"

primitive_matrix:
- [  1.000000000000000,  0.000000000000000,  0.000000000000000 ]
- [  1.000000000000000,  1.000000000000000,  1.000000000000000 ]
- [  0.000000000000000,  0.000000000000000,  1.000000000000000 ]

supercell_matrix:
- [   3,   0,   0 ]
- [   0,   3,   0 ]
- [   0,   0,   1 ]

primitive_cell:
  lattice:
  - [     2.118862631697215,     3.671361604053451,     0.000000000000000 ] # a
  - [    -2.123350057788118,     3.671361604053451,     0.000000000000000 ] # b
  - [     0.006276374502528,     2.438976432051380,    20.758544926646760 ] # c
  points:
  - symbol: Sn # 1
    coordinates: [  0.233814261859345,  0.706325078190873,  0.122233510180003 ]
    mass: 118.710000
  - symbol: Sn # 2
    coordinates: [  0.597313287852055,  0.070047086532524,  0.031301954891123 ]
    mass: 118.710000
  - symbol: Sn # 3
    coordinates: [  0.870070176257850,  0.343354699518933,  0.213469103441403 ]
    mass: 118.710000
  - symbol: Sn # 4
    coordinates: [  0.051772037838661,  0.525070733317840,  0.668397160115226 ]
    mass: 118.710000
  - symbol: Sn # 5
    coordinates: [  0.414981195682708,  0.888644562104567,  0.577932582546110 ]
    mass: 118.710000
  - symbol: Sn # 6
    coordinates: [  0.778564493957447,  0.252369914043302,  0.487132052434211 ]
    mass: 118.710000
  - symbol: Sn # 7
    coordinates: [  0.141934916372331,  0.616911057409149,  0.395948721851455 ]
    mass: 118.710000
  - symbol: Sn # 8
    coordinates: [  0.324218702605784,  0.799007080398304,  0.849107243125607 ]
    mass: 118.710000
  - symbol: Sn # 9
    coordinates: [  0.687630777215071,  0.162893512950129,  0.758462619490356 ]
    mass: 118.710000
  - symbol: Sn # 10
    coordinates: [  0.505937761488026,  0.980528610752908,  0.304566889688558 ]
    mass: 118.710000
  - symbol: Sn # 11
    coordinates: [  0.960555495313844,  0.434586687006945,  0.940114114901442 ]
    mass: 118.710000
  reciprocal_lattice: # without 2pi
  - [     0.235726040440778,     0.136333315966335,    -0.016089434526135 ] # a*
  - [    -0.235726040440778,     0.136045193112130,    -0.015913038026116 ] # b*
  - [    -0.000000000000000,     0.000000000000000,     0.048172933292465 ] # c*

unit_cell:
  lattice:
  - [     4.242212689485334,     0.000000000000000,     0.000000000000000 ] # a
  - [    -2.123350057788118,     3.671361604053450,     0.000000000000000 ] # b
  - [     2.129626432290646,    -1.232385172002070,    20.758544926646760 ] # c
  points:
  - symbol: Sn # 1
    coordinates: [  0.233814261859345,  0.062372850230221,  0.122233510180003 ]
    mass: 118.710000
    reduced_to: 1
  - symbol: Sn # 2
    coordinates: [  0.597313287852055,  0.698662329275702,  0.031301954891123 ]
    mass: 118.710000
    reduced_to: 2
  - symbol: Sn # 3
    coordinates: [  0.870070176257850,  0.426893979218186,  0.213469103441403 ]
    mass: 118.710000
    reduced_to: 3
  - symbol: Sn # 4
    coordinates: [  0.051772037838662,  0.245239931271727,  0.668397160115226 ]
    mass: 118.710000
    reduced_to: 4
  - symbol: Sn # 5
    coordinates: [  0.414981195682708,  0.881558340333384,  0.577932582546110 ]
    mass: 118.710000
    reduced_to: 5
  - symbol: Sn # 6
    coordinates: [  0.778564493957447,  0.518066460434960,  0.487132052434211 ]
    mass: 118.710000
    reduced_to: 6
  - symbol: Sn # 7
    coordinates: [  0.141934916372331,  0.154794695632935,  0.395948721851455 ]
    mass: 118.710000
    reduced_to: 7
  - symbol: Sn # 8
    coordinates: [  0.324218702605784,  0.972333026129695,  0.849107243125607 ]
    mass: 118.710000
    reduced_to: 8
  - symbol: Sn # 9
    coordinates: [  0.687630777215071,  0.608986909655557,  0.758462619490356 ]
    mass: 118.710000
    reduced_to: 9
  - symbol: Sn # 10
    coordinates: [  0.505937761488026,  0.791033261929492,  0.304566889688558 ]
    mass: 118.710000
    reduced_to: 10
  - symbol: Sn # 11
    coordinates: [  0.960555495313844,  0.335256297222231,  0.940114114901442 ]
    mass: 118.710000
    reduced_to: 11

supercell:
  lattice:
  - [    12.726638068456001,     0.000000000000000,     0.000000000000000 ] # a
  - [    -6.370050173364355,    11.014084812160352,     0.000000000000000 ] # b
  - [     2.129626432290646,    -1.232385172002070,    20.758544926646760 ] # c
  points:
  - symbol: Sn # 1
    coordinates: [  0.077938087286448,  0.020790950076740,  0.122233510180003 ]
    mass: 118.710000
    reduced_to: 1
  - symbol: Sn # 2
    coordinates: [  0.411271420619782,  0.020790950076740,  0.122233510180003 ]
    mass: 118.710000
    reduced_to: 1
  - symbol: Sn # 3
    coordinates: [  0.744604753953115,  0.020790950076740,  0.122233510180003 ]
    mass: 118.710000
    reduced_to: 1
  - symbol: Sn # 4
    coordinates: [  0.077938087286448,  0.354124283410074,  0.122233510180003 ]
    mass: 118.710000
    reduced_to: 1
  - symbol: Sn # 5
    coordinates: [  0.411271420619782,  0.354124283410074,  0.122233510180003 ]
    mass: 118.710000
    reduced_to: 1
  - symbol: Sn # 6
    coordinates: [  0.744604753953115,  0.354124283410074,  0.122233510180003 ]
    mass: 118.710000
    reduced_to: 1
  - symbol: Sn # 7
    coordinates: [  0.077938087286448,  0.687457616743407,  0.122233510180003 ]
    mass: 118.710000
    reduced_to: 1
  - symbol: Sn # 8
    coordinates: [  0.411271420619782,  0.687457616743407,  0.122233510180003 ]
    mass: 118.710000
    reduced_to: 1
  - symbol: Sn # 9
    coordinates: [  0.744604753953115,  0.687457616743407,  0.122233510180003 ]
    mass: 118.710000
    reduced_to: 1
  - symbol: Sn # 10
    coordinates: [  0.199104429284018,  0.232887443091901,  0.031301954891123 ]
    mass: 118.710000
    reduced_to: 10
  - symbol: Sn # 11
    coordinates: [  0.532437762617352,  0.232887443091901,  0.031301954891123 ]
    mass: 118.710000
    reduced_to: 10
  - symbol: Sn # 12
    coordinates: [  0.865771095950685,  0.232887443091901,  0.031301954891123 ]
    mass: 118.710000
    reduced_to: 10
  - symbol: Sn # 13
    coordinates: [  0.199104429284018,  0.566220776425234,  0.031301954891123 ]
    mass: 118.710000
    reduced_to: 10
  - symbol: Sn # 14
    coordinates: [  0.532437762617352,  0.566220776425234,  0.031301954891123 ]
    mass: 118.710000
    reduced_to: 10
  - symbol: Sn # 15
    coordinates: [  0.865771095950685,  0.566220776425234,  0.031301954891123 ]
    mass: 118.710000
    reduced_to: 10
  - symbol: Sn # 16
    coordinates: [  0.199104429284018,  0.899554109758567,  0.031301954891123 ]
    mass: 118.710000
    reduced_to: 10
  - symbol: Sn # 17
    coordinates: [  0.532437762617352,  0.899554109758567,  0.031301954891123 ]
    mass: 118.710000
    reduced_to: 10
  - symbol: Sn # 18
    coordinates: [  0.865771095950685,  0.899554109758567,  0.031301954891123 ]
    mass: 118.710000
    reduced_to: 10
  - symbol: Sn # 19
    coordinates: [  0.290023392085950,  0.142297993072729,  0.213469103441403 ]
    mass: 118.710000
    reduced_to: 19
  - symbol: Sn # 20
    coordinates: [  0.623356725419283,  0.142297993072729,  0.213469103441403 ]
    mass: 118.710000
    reduced_to: 19
  - symbol: Sn # 21
    coordinates: [  0.956690058752617,  0.142297993072729,  0.213469103441403 ]
    mass: 118.710000
    reduced_to: 19
  - symbol: Sn # 22
    coordinates: [  0.290023392085950,  0.475631326406062,  0.213469103441403 ]
    mass: 118.710000
    reduced_to: 19
  - symbol: Sn # 23
    coordinates: [  0.623356725419283,  0.475631326406062,  0.213469103441403 ]
    mass: 118.710000
    reduced_to: 19
  - symbol: Sn # 24
    coordinates: [  0.956690058752617,  0.475631326406062,  0.213469103441403 ]
    mass: 118.710000
    reduced_to: 19
  - symbol: Sn # 25
    coordinates: [  0.290023392085950,  0.808964659739395,  0.213469103441403 ]
    mass: 118.710000
    reduced_to: 19
  - symbol: Sn # 26
    coordinates: [  0.623356725419283,  0.808964659739395,  0.213469103441403 ]
    mass: 118.710000
    reduced_to: 19
  - symbol: Sn # 27
    coordinates: [  0.956690058752617,  0.808964659739395,  0.213469103441403 ]
    mass: 118.710000
    reduced_to: 19
  - symbol: Sn # 28
    coordinates: [  0.017257345946220,  0.081746643757242,  0.668397160115226 ]
    mass: 118.710000
    reduced_to: 28
  - symbol: Sn # 29
    coordinates: [  0.350590679279554,  0.081746643757242,  0.668397160115226 ]
    mass: 118.710000
    reduced_to: 28
  - symbol: Sn # 30
    coordinates: [  0.683924012612887,  0.081746643757242,  0.668397160115226 ]
    mass: 118.710000
    reduced_to: 28
  - symbol: Sn # 31
    coordinates: [  0.017257345946220,  0.415079977090576,  0.668397160115226 ]
    mass: 118.710000
    reduced_to: 28
  - symbol: Sn # 32
    coordinates: [  0.350590679279554,  0.415079977090576,  0.668397160115226 ]
    mass: 118.710000
    reduced_to: 28
  - symbol: Sn # 33
    coordinates: [  0.683924012612887,  0.415079977090576,  0.668397160115226 ]
    mass: 118.710000
    reduced_to: 28
  - symbol: Sn # 34
    coordinates: [  0.017257345946220,  0.748413310423909,  0.668397160115226 ]
    mass: 118.710000
    reduced_to: 28
  - symbol: Sn # 35
    coordinates: [  0.350590679279554,  0.748413310423909,  0.668397160115226 ]
    mass: 118.710000
    reduced_to: 28
  - symbol: Sn # 36
    coordinates: [  0.683924012612887,  0.748413310423909,  0.668397160115226 ]
    mass: 118.710000
    reduced_to: 28
  - symbol: Sn # 37
    coordinates: [  0.138327065227569,  0.293852780111128,  0.577932582546110 ]
    mass: 118.710000
    reduced_to: 37
  - symbol: Sn # 38
    coordinates: [  0.471660398560903,  0.293852780111128,  0.577932582546110 ]
    mass: 118.710000
    reduced_to: 37
  - symbol: Sn # 39
    coordinates: [  0.804993731894236,  0.293852780111128,  0.577932582546110 ]
    mass: 118.710000
    reduced_to: 37
  - symbol: Sn # 40
    coordinates: [  0.138327065227569,  0.627186113444461,  0.577932582546110 ]
    mass: 118.710000
    reduced_to: 37
  - symbol: Sn # 41
    coordinates: [  0.471660398560903,  0.627186113444461,  0.577932582546110 ]
    mass: 118.710000
    reduced_to: 37
  - symbol: Sn # 42
    coordinates: [  0.804993731894236,  0.627186113444461,  0.577932582546110 ]
    mass: 118.710000
    reduced_to: 37
  - symbol: Sn # 43
    coordinates: [  0.138327065227569,  0.960519446777795,  0.577932582546110 ]
    mass: 118.710000
    reduced_to: 37
  - symbol: Sn # 44
    coordinates: [  0.471660398560903,  0.960519446777795,  0.577932582546110 ]
    mass: 118.710000
    reduced_to: 37
  - symbol: Sn # 45
    coordinates: [  0.804993731894236,  0.960519446777795,  0.577932582546110 ]
    mass: 118.710000
    reduced_to: 37
  - symbol: Sn # 46
    coordinates: [  0.259521497985816,  0.172688820144987,  0.487132052434211 ]
    mass: 118.710000
    reduced_to: 46
  - symbol: Sn # 47
    coordinates: [  0.592854831319149,  0.172688820144987,  0.487132052434211 ]
    mass: 118.710000
    reduced_to: 46
  - symbol: Sn # 48
    coordinates: [  0.926188164652482,  0.172688820144987,  0.487132052434211 ]
    mass: 118.710000
    reduced_to: 46
  - symbol: Sn # 49
    coordinates: [  0.259521497985816,  0.506022153478320,  0.487132052434211 ]
    mass: 118.710000
    reduced_to: 46
  - symbol: Sn # 50
    coordinates: [  0.592854831319149,  0.506022153478320,  0.487132052434211 ]
    mass: 118.710000
    reduced_to: 46
  - symbol: Sn # 51
    coordinates: [  0.926188164652482,  0.506022153478320,  0.487132052434211 ]
    mass: 118.710000
    reduced_to: 46
  - symbol: Sn # 52
    coordinates: [  0.259521497985816,  0.839355486811653,  0.487132052434211 ]
    mass: 118.710000
    reduced_to: 46
  - symbol: Sn # 53
    coordinates: [  0.592854831319149,  0.839355486811653,  0.487132052434211 ]
    mass: 118.710000
    reduced_to: 46
  - symbol: Sn # 54
    coordinates: [  0.926188164652482,  0.839355486811653,  0.487132052434211 ]
    mass: 118.710000
    reduced_to: 46
  - symbol: Sn # 55
    coordinates: [  0.047311638790777,  0.051598231877645,  0.395948721851455 ]
    mass: 118.710000
    reduced_to: 55
  - symbol: Sn # 56
    coordinates: [  0.380644972124110,  0.051598231877645,  0.395948721851455 ]
    mass: 118.710000
    reduced_to: 55
  - symbol: Sn # 57
    coordinates: [  0.713978305457444,  0.051598231877645,  0.395948721851455 ]
    mass: 118.710000
    reduced_to: 55
  - symbol: Sn # 58
    coordinates: [  0.047311638790777,  0.384931565210978,  0.395948721851455 ]
    mass: 118.710000
    reduced_to: 55
  - symbol: Sn # 59
    coordinates: [  0.380644972124110,  0.384931565210978,  0.395948721851455 ]
    mass: 118.710000
    reduced_to: 55
  - symbol: Sn # 60
    coordinates: [  0.713978305457444,  0.384931565210978,  0.395948721851455 ]
    mass: 118.710000
    reduced_to: 55
  - symbol: Sn # 61
    coordinates: [  0.047311638790777,  0.718264898544312,  0.395948721851455 ]
    mass: 118.710000
    reduced_to: 55
  - symbol: Sn # 62
    coordinates: [  0.380644972124110,  0.718264898544312,  0.395948721851455 ]
    mass: 118.710000
    reduced_to: 55
  - symbol: Sn # 63
    coordinates: [  0.713978305457444,  0.718264898544312,  0.395948721851455 ]
    mass: 118.710000
    reduced_to: 55
  - symbol: Sn # 64
    coordinates: [  0.108072900868595,  0.324111008709898,  0.849107243125607 ]
    mass: 118.710000
    reduced_to: 64
  - symbol: Sn # 65
    coordinates: [  0.441406234201928,  0.324111008709898,  0.849107243125607 ]
    mass: 118.710000
    reduced_to: 64
  - symbol: Sn # 66
    coordinates: [  0.774739567535261,  0.324111008709898,  0.849107243125607 ]
    mass: 118.710000
    reduced_to: 64
  - symbol: Sn # 67
    coordinates: [  0.108072900868595,  0.657444342043232,  0.849107243125607 ]
    mass: 118.710000
    reduced_to: 64
  - symbol: Sn # 68
    coordinates: [  0.441406234201928,  0.657444342043232,  0.849107243125607 ]
    mass: 118.710000
    reduced_to: 64
  - symbol: Sn # 69
    coordinates: [  0.774739567535261,  0.657444342043232,  0.849107243125607 ]
    mass: 118.710000
    reduced_to: 64
  - symbol: Sn # 70
    coordinates: [  0.108072900868595,  0.990777675376565,  0.849107243125607 ]
    mass: 118.710000
    reduced_to: 64
  - symbol: Sn # 71
    coordinates: [  0.441406234201928,  0.990777675376565,  0.849107243125607 ]
    mass: 118.710000
    reduced_to: 64
  - symbol: Sn # 72
    coordinates: [  0.774739567535261,  0.990777675376565,  0.849107243125607 ]
    mass: 118.710000
    reduced_to: 64
  - symbol: Sn # 73
    coordinates: [  0.229210259071690,  0.202995636551852,  0.758462619490356 ]
    mass: 118.710000
    reduced_to: 73
  - symbol: Sn # 74
    coordinates: [  0.562543592405024,  0.202995636551852,  0.758462619490356 ]
    mass: 118.710000
    reduced_to: 73
  - symbol: Sn # 75
    coordinates: [  0.895876925738357,  0.202995636551852,  0.758462619490356 ]
    mass: 118.710000
    reduced_to: 73
  - symbol: Sn # 76
    coordinates: [  0.229210259071690,  0.536328969885185,  0.758462619490356 ]
    mass: 118.710000
    reduced_to: 73
  - symbol: Sn # 77
    coordinates: [  0.562543592405024,  0.536328969885185,  0.758462619490356 ]
    mass: 118.710000
    reduced_to: 73
  - symbol: Sn # 78
    coordinates: [  0.895876925738357,  0.536328969885185,  0.758462619490356 ]
    mass: 118.710000
    reduced_to: 73
  - symbol: Sn # 79
    coordinates: [  0.229210259071690,  0.869662303218519,  0.758462619490356 ]
    mass: 118.710000
    reduced_to: 73
  - symbol: Sn # 80
    coordinates: [  0.562543592405024,  0.869662303218519,  0.758462619490356 ]
    mass: 118.710000
    reduced_to: 73
  - symbol: Sn # 81
    coordinates: [  0.895876925738357,  0.869662303218519,  0.758462619490356 ]
    mass: 118.710000
    reduced_to: 73
  - symbol: Sn # 82
    coordinates: [  0.168645920496009,  0.263677753976497,  0.304566889688558 ]
    mass: 118.710000
    reduced_to: 82
  - symbol: Sn # 83
    coordinates: [  0.501979253829342,  0.263677753976497,  0.304566889688558 ]
    mass: 118.710000
    reduced_to: 82
  - symbol: Sn # 84
    coordinates: [  0.835312587162675,  0.263677753976497,  0.304566889688558 ]
    mass: 118.710000
    reduced_to: 82
  - symbol: Sn # 85
    coordinates: [  0.168645920496009,  0.597011087309831,  0.304566889688558 ]
    mass: 118.710000
    reduced_to: 82
  - symbol: Sn # 86
    coordinates: [  0.501979253829342,  0.597011087309831,  0.304566889688558 ]
    mass: 118.710000
    reduced_to: 82
  - symbol: Sn # 87
    coordinates: [  0.835312587162675,  0.597011087309831,  0.304566889688558 ]
    mass: 118.710000
    reduced_to: 82
  - symbol: Sn # 88
    coordinates: [  0.168645920496009,  0.930344420643164,  0.304566889688558 ]
    mass: 118.710000
    reduced_to: 82
  - symbol: Sn # 89
    coordinates: [  0.501979253829342,  0.930344420643164,  0.304566889688558 ]
    mass: 118.710000
    reduced_to: 82
  - symbol: Sn # 90
    coordinates: [  0.835312587162675,  0.930344420643164,  0.304566889688558 ]
    mass: 118.710000
    reduced_to: 82
  - symbol: Sn # 91
    coordinates: [  0.320185165104615,  0.111752099074077,  0.940114114901442 ]
    mass: 118.710000
    reduced_to: 91
  - symbol: Sn # 92
    coordinates: [  0.653518498437948,  0.111752099074077,  0.940114114901442 ]
    mass: 118.710000
    reduced_to: 91
  - symbol: Sn # 93
    coordinates: [  0.986851831771281,  0.111752099074077,  0.940114114901442 ]
    mass: 118.710000
    reduced_to: 91
  - symbol: Sn # 94
    coordinates: [  0.320185165104615,  0.445085432407410,  0.940114114901442 ]
    mass: 118.710000
    reduced_to: 91
  - symbol: Sn # 95
    coordinates: [  0.653518498437948,  0.445085432407410,  0.940114114901442 ]
    mass: 118.710000
    reduced_to: 91
  - symbol: Sn # 96
    coordinates: [  0.986851831771281,  0.445085432407410,  0.940114114901442 ]
    mass: 118.710000
    reduced_to: 91
  - symbol: Sn # 97
    coordinates: [  0.320185165104615,  0.778418765740744,  0.940114114901442 ]
    mass: 118.710000
    reduced_to: 91
  - symbol: Sn # 98
    coordinates: [  0.653518498437948,  0.778418765740744,  0.940114114901442 ]
    mass: 118.710000
    reduced_to: 91
  - symbol: Sn # 99
    coordinates: [  0.986851831771281,  0.778418765740744,  0.940114114901442 ]
    mass: 118.710000
    reduced_to: 91

displacements:
- atom:    1
  displacement:
    [   0.0100000000000000,  0.0000000000000000,  0.0000000000000000 ]
  forces:
  - [  -0.0166772548109293,  0.0024395515210927,  0.0044587771408260 ]
  - [  -0.0028371629305184,  0.0024665731471032,  0.0045098820701241 ]
  - [  -0.0028980732895434,  0.0024756605271250,  0.0045282607898116 ]
  - [  -0.0026878691278398,  0.0025791577063501,  0.0044682626612484 ]
  - [  -0.0026759682223201,  0.0023788434918970,  0.0045704268850386 ]
  - [  -0.0029911955352873,  0.0024752693716437,  0.0045129302889109 ]
  - [  -0.0026798294857144,  0.0025735527742654,  0.0044592516496778 ]
  - [  -0.0029915189370513,  0.0024732416495681,  0.0045147961936891 ]
  - [  -0.0026898987125605,  0.0023723058402538,  0.0045656790025532 ]
  - [  -0.0028966916725039,  0.0023307353258133, -0.0040002376772463 ]
  - [  -0.0023511776234955,  0.0024625081568956, -0.0040957047604024 ]
  - [  -0.0023539518006146,  0.0022936770692468, -0.0039703864604235 ]
  - [  -0.0023144427686930,  0.0019746301695704, -0.0038049332797527 ]
  - [  -0.0023173529189080,  0.0027761058881879, -0.0042580249719322 ]
  - [  -0.0025004609487951,  0.0023673316463828, -0.0040275999344885 ]
  - [  -0.0000653918832541,  0.0007237400859594, -0.0067008729092777 ]
  - [  -0.0016252659261227,  0.0023627290502191, -0.0040409881621599 ]
  - [  -0.0002472735941410,  0.0038771973922849, -0.0015778369270265 ]
  - [   0.0010115494951606,  0.0006272763712332,  0.0048312279395759 ]
  - [  -0.0003889258659910, -0.0009171067504212,  0.0022883559577167 ]
  - [   0.0008013133774512, -0.0023049185983837, -0.0000140136107802 ]
  - [  -0.0012629907578230, -0.0009234584867954,  0.0022766035981476 ]
  - [  -0.0010824659839272, -0.0005217846482992,  0.0020457589998841 ]
  - [  -0.0010840520262718, -0.0013308916240931,  0.0025112587027252 ]
  - [  -0.0011189747601748, -0.0010114656761289,  0.0023397207260132 ]
  - [  -0.0011206055060029, -0.0008473221678287,  0.0022181808017194 ]
  - [  -0.0016416113357991, -0.0008931099437177,  0.0022372272796929 ]
  - [  -0.0035027673002332,  0.0004688659682870, -0.0090338531881571 ]
  - [  -0.0035035132896155,  0.0004778122529387, -0.0090549606829882 ]
  - [  -0.0034903353080153,  0.0004724066238850, -0.0090455133467913 ]
  - [  -0.0035001635551453,  0.0004675996024162, -0.0090405531227589 ]
  - [  -0.0034949332475662,  0.0004726836923510, -0.0090456400066614 ]
  - [  -0.0035007845144719,  0.0004781570751220, -0.0090500954538584 ]
  - [  -0.0035090432502329,  0.0004724748432636, -0.0090456409379840 ]
  - [  -0.0034929970279336,  0.0004712538793683, -0.0090522747486830 ]
  - [  -0.0034937234595418,  0.0004738690331578, -0.0090390648692846 ]
  - [  -0.0013059771154076,  0.0015679646749049, -0.0179963055998087 ]
  - [  -0.0012906369520351,  0.0015692067099735, -0.0179891791194677 ]
  - [  -0.0012913712998852,  0.0015661829384044, -0.0180019214749336 ]
  - [  -0.0012966503854841,  0.0015630447305739, -0.0179928801953793 ]
  - [  -0.0012981075560674,  0.0015736676286906, -0.0180020201951265 ]
  - [  -0.0012933277757838,  0.0015686799306422, -0.0179960150271654 ]
  - [  -0.0012985004577786,  0.0015636788448319, -0.0179853960871696 ]
  - [  -0.0012884614989161,  0.0015666577965021, -0.0179964210838079 ]
  - [  -0.0012995433062315,  0.0015704679535702, -0.0180085059255362 ]
  - [  -0.0010996269993484,  0.0011341392528266, -0.0161799062043428 ]
  - [  -0.0012678250204772,  0.0011046866420656, -0.0161266103386879 ]
  - [  -0.0010968055576086,  0.0010788324289024, -0.0160819794982672 ]
  - [  -0.0011062703561038,  0.0011052184272557, -0.0161295868456364 ]
  - [  -0.0011773773003370,  0.0010535479523242, -0.0161420479416847 ]
  - [  -0.0011763591319323,  0.0011572891380638, -0.0161166936159134 ]
  - [  -0.0011606449261308,  0.0011356337927282, -0.0161616727709770 ]
  - [  -0.0011604875326157,  0.0010751516092569, -0.0160946249961853 ]
  - [  -0.0011427188292146,  0.0011051582405344, -0.0161298811435699 ]
  - [   0.0030848802998662, -0.0015621539205313, -0.0061510428786278 ]
  - [   0.0030164849013090, -0.0017155036330223, -0.0060775293968618 ]
  - [   0.0030134590342641, -0.0014121492858976, -0.0062162466347218 ]
  - [   0.0027713193558156, -0.0015513657126576, -0.0061067370697856 ]
  - [   0.0027770206797868, -0.0015687006525695, -0.0061986306682229 ]
  - [   0.0035612620413303, -0.0015563364140689, -0.0061484207399189 ]
  - [   0.0030285816174001, -0.0017006797716022, -0.0060391323640943 ]
  - [   0.0030516220722347, -0.0015599587932229, -0.0061510629020631 ]
  - [   0.0030290472786874, -0.0014247680082917, -0.0062596402131021 ]
  - [   0.0021221749484539, -0.0021795053035021,  0.0174628682434559 ]
  - [   0.0021194214932621, -0.0019013993442059,  0.0172436200082302 ]
  - [   0.0021425448358059, -0.0020436448976398,  0.0173535291105509 ]
  - [   0.0018691709265113, -0.0020326995290816,  0.0174025334417820 ]
  - [   0.0026552667841315, -0.0020463382825255,  0.0173522531986237 ]
  - [   0.0018612710991874, -0.0020520784892142,  0.0173076819628477 ]
  - [   0.0021779970265925, -0.0020417356863618,  0.0173532757908106 ]
  - [   0.0021040923893452, -0.0018968870863318,  0.0172958076000214 ]
  - [   0.0021049221977592, -0.0021868925541639,  0.0174146760255098 ]
  - [   0.0040606344118714, -0.0024452835787088,  0.0171585902571678 ]
  - [   0.0040419986471534, -0.0024751008022577,  0.0171945765614510 ]
  - [   0.0040411963127553, -0.0024145138449967,  0.0171268545091152 ]
  - [   0.0040236189961433, -0.0023923916742206,  0.0171716567128897 ]
  - [   0.0040238313376904, -0.0024963614996523,  0.0171447619795799 ]
  - [   0.0040946179069579, -0.0024443450383842,  0.0171587169170380 ]
  - [   0.0041041760705411, -0.0024682357907295,  0.0172050315886736 ]
  - [   0.0039334343746305, -0.0024424728471786,  0.0171583071351051 ]
  - [   0.0041038482449949, -0.0024172884877771,  0.0171110145747662 ]
  - [   0.0026346757076681, -0.0023368904367089,  0.0053481366485357 ]
  - [   0.0033001005649567, -0.0017773639410734,  0.0062694926746190 ]
  - [   0.0033190757967532, -0.0028968127444386,  0.0044199321419001 ]
  - [   0.0024734903126955, -0.0021229723934084,  0.0052473666146398 ]
  - [   0.0024714446626604, -0.0025366370100528,  0.0054640350863338 ]
  - [   0.0023401274811476, -0.0023286908399314,  0.0053554465994239 ]
  - [   0.0026979777030647, -0.0023548542521894,  0.0055908961221576 ]
  - [   0.0021124286577106, -0.0023273453116417,  0.0053503271192312 ]
  - [   0.0027124611660838, -0.0022886227816343,  0.0051031205803156 ]
  - [   0.0009430707432330,  0.0013399450108409,  0.0064604640938342 ]
  - [   0.0003552949056029,  0.0013117115013301,  0.0066909086890519 ]
  - [   0.0009542945772409,  0.0012674776371568,  0.0069479285739362 ]
  - [   0.0005809180438519,  0.0013086963444948,  0.0066923829726875 ]
  - [   0.0007145458366722,  0.0011055395007133,  0.0068005658686161 ]
  - [   0.0007129302248359,  0.0015172967687249,  0.0065804617479444 ]
  - [   0.0015420410782099,  0.0007611401379108,  0.0057739699259400 ]
  - [   0.0015582153573632,  0.0018741628155112,  0.0076265595853329 ]
  - [   0.0008855182677507,  0.0013186782598495,  0.0067039299756289 ]
- atom:    1
  displacement:
    [  -0.0100000000000000,  0.0000000000000000,  0.0000000000000000 ]
  forces:
  - [   0.0110859815031290,  0.0025146119296551,  0.0045806085690856 ]
  - [  -0.0026988699100912,  0.0024762239772826,  0.0045215869322419 ]
  - [  -0.0027594063431025,  0.0024670213460922,  0.0045158453285694 ]
  - [  -0.0029093504417688,  0.0023802800569683,  0.0045637991279364 ]
  - [  -0.0029050123412162,  0.0025808182545006,  0.0044627124443650 ]
  - [  -0.0025971531867981,  0.0024743373505771,  0.0045136916451156 ]
  - [  -0.0029010130092502,  0.0023634359240532,  0.0045640640892088 ]
  - [  -0.0025980714708567,  0.0024726223200560,  0.0045148790813982 ]
  - [  -0.0029184194281697,  0.0025634490884840,  0.0044694896787405 ]
  - [  -0.0018583833007142,  0.0023525999858975, -0.0040119742043316 ]
  - [  -0.0024027063045651,  0.0022914484143257, -0.0039701787754893 ]
  - [  -0.0024030385538936,  0.0024601742625237, -0.0040957136079669 ]
  - [  -0.0024373349733651,  0.0027725491672754, -0.0042564347386360 ]
  - [  -0.0024408185854554,  0.0019711432978511, -0.0038038906641304 ]
  - [  -0.0022544339299202,  0.0023709796369076, -0.0040289168246090 ]
  - [  -0.0045228479430079,  0.0038864919915795, -0.0015672855079174 ]
  - [  -0.0031284196302295,  0.0023659905418754, -0.0040360018610954 ]
  - [  -0.0046710055321455,  0.0007326891645789, -0.0066924043931067 ]
  - [  -0.0031370166689157, -0.0023487643338740, -0.0000718268565834 ]
  - [  -0.0018994526471943, -0.0009195889579132,  0.0022842087782919 ]
  - [  -0.0032230534125119,  0.0005811256123707,  0.0047461609356105 ]
  - [  -0.0010224711149931, -0.0009219814091921,  0.0022754222154617 ]
  - [  -0.0012028571218252, -0.0013323519378901,  0.0025112144649029 ]
  - [  -0.0012043947353959, -0.0005230735987425,  0.0020455718040466 ]
  - [  -0.0011650696396828, -0.0008478451054543,  0.0022180364467204 ]
  - [  -0.0011706147342920, -0.0010106444824487,  0.0023414799943566 ]
  - [  -0.0006213258020580, -0.0008983458392322,  0.0022415849380195 ]
  - [  -0.0034953118301928,  0.0004772394895554, -0.0090561117976904 ]
  - [  -0.0034948175307363,  0.0004691733047366, -0.0090325390920043 ]
  - [  -0.0035066320560873,  0.0004728364292532, -0.0090453382581472 ]
  - [  -0.0034973127767444,  0.0004787254147232, -0.0090496409684420 ]
  - [  -0.0035017738118768,  0.0004728718195111, -0.0090458579361439 ]
  - [  -0.0034966736566275,  0.0004671546630561, -0.0090406024828553 ]
  - [  -0.0034869904629886,  0.0004722913727164, -0.0090450290590525 ]
  - [  -0.0035043070092797,  0.0004740757867694, -0.0090395007282495 ]
  - [  -0.0035046320408583,  0.0004709856584668, -0.0090524107217789 ]
  - [  -0.0012848189799115,  0.0015672720037401, -0.0179959125816822 ]
  - [  -0.0013011983828619,  0.0015664106467739, -0.0180025361478329 ]
  - [  -0.0013024165527895,  0.0015694034518674, -0.0179900676012039 ]
  - [  -0.0012939707376063,  0.0015736517962068, -0.0180019810795784 ]
  - [  -0.0012944373302162,  0.0015630952548236, -0.0179926436394453 ]
  - [  -0.0012996041914448,  0.0015688345301896, -0.0179963074624538 ]
  - [  -0.0012914156541228,  0.0015714340843260, -0.0180072039365768 ]
  - [  -0.0013043133076280,  0.0015672410372645, -0.0179969109594822 ]
  - [  -0.0012911520898342,  0.0015629503177479, -0.0179862119257450 ]
  - [  -0.0012133880518377,  0.0010825280332938, -0.0160864330828190 ]
  - [  -0.0010416561271995,  0.0011049405438825, -0.0161269269883633 ]
  - [  -0.0012092818506062,  0.0011300421319902, -0.0161741077899933 ]
  - [  -0.0011999588459730,  0.0011053853668272, -0.0161289423704147 ]
  - [  -0.0011308626271784,  0.0011576883262023, -0.0161159373819828 ]
  - [  -0.0011292761191726,  0.0010533388704062, -0.0161426626145840 ]
  - [  -0.0011486094444990,  0.0010747563792393, -0.0160951670259237 ]
  - [  -0.0011488553136587,  0.0011354731395841, -0.0161616150289774 ]
  - [  -0.0011665134225041,  0.0011054048081860, -0.0161292441189289 ]
  - [   0.0029891058802605, -0.0015610260888934, -0.0061504091136158 ]
  - [   0.0030646640807390, -0.0014188680797815, -0.0062050400301814 ]
  - [   0.0030610691756010, -0.0017082367558032, -0.0060891765169799 ]
  - [   0.0032983734272420, -0.0015689879655838, -0.0061987256631255 ]
  - [   0.0033004228025675, -0.0015510900411755, -0.0061057610437274 ]
  - [   0.0025110752321780, -0.0015617271419615, -0.0061571397818625 ]
  - [   0.0030436590313911, -0.0014229398220778, -0.0062612518668175 ]
  - [   0.0030219336040318, -0.0015600156039000, -0.0061509865336120 ]
  - [   0.0030443919822574, -0.0016992958262563, -0.0060412944294512 ]