# Thermal properties / unit cell (natom)

unit:
  temperature:   K
  free_energy:   kJ/mol
  entropy:       J/K/mol
  heat_capacity: J/K/mol

natom: 4    
cutoff_frequency: 0.00000
num_modes: 146004
num_integrated_modes: 107708

zero_point_energy:      15.0598611

thermal_properties:
- temperature:         0.0000000
  free_energy:        15.0598611
  entropy:             0.0000000
  heat_capacity:       0.0000000
  energy:             15.0598611

- temperature:        10.0000000
  free_energy:        15.0590206
  entropy:             0.2581639
  heat_capacity:       0.5437872
  energy:             15.0616023

- temperature:        20.0000000
  free_energy:        15.0531188
  entropy:             0.9741271
  heat_capacity:       1.7188286
  energy:             15.0726013

- temperature:        30.0000000
  free_energy:        15.0386963
  entropy:             1.9470915
  heat_capacity:       3.2442190
  energy:             15.0971090

- temperature:        40.0000000
  free_energy:        15.0134537
  entropy:             3.1388352
  heat_capacity:       5.2244657
  energy:             15.1390071

- temperature:        50.0000000
  free_energy:        14.9751301
  entropy:             4.5671136
  heat_capacity:       7.7654158
  energy:             15.2034858

- temperature:        60.0000000
  free_energy:        14.9212717
  entropy:             6.2465596
  heat_capacity:      10.8283768
  energy:             15.2960653

- temperature:        70.0000000
  free_energy:        14.8493795
  entropy:             8.1712212
  heat_capacity:      14.2839880
  energy:             15.4213650

- temperature:        80.0000000
  free_energy:        14.7571067
  entropy:            10.3177236
  heat_capacity:      17.9738083
  energy:             15.5825246

- temperature:        90.0000000
  free_energy:        14.6423972
  entropy:            12.6524532
  heat_capacity:      21.7476251
  energy:             15.7811180

- temperature:       100.0000000
  free_energy:        14.5035554
  entropy:            15.1378677
  heat_capacity:      25.4820962
  energy:             16.0173422

- temperature:       110.0000000
  free_energy:        14.3392614
  entropy:            17.7369254
  heat_capacity:      29.0865943
  energy:             16.2903232

- temperature:       120.0000000
  free_energy:        14.1485516
  entropy:            20.4157273
  heat_capacity:      32.5013845
  energy:             16.5984389

- temperature:       130.0000000
  free_energy:        13.9307799
  entropy:            23.1447879
  heat_capacity:      35.6922353
  energy:             16.9396023

- temperature:       140.0000000
  free_energy:        13.6855712
  entropy:            25.8993887
  heat_capacity:      38.6441499
  energy:             17.3114857

- temperature:       150.0000000
  free_energy:        13.4127746
  entropy:            28.6593888
  heat_capacity:      41.3556301
  energy:             17.7116829

- temperature:       160.0000000
  free_energy:        13.1124193
  entropy:            31.4087590
  heat_capacity:      43.8340233
  energy:             18.1378207

- temperature:       170.0000000
  free_energy:        12.7846768
  entropy:            34.1350096
  heat_capacity:      46.0920241
  energy:             18.5876284

- temperature:       180.0000000
  free_energy:        12.4298282
  entropy:            36.8286116
  heat_capacity:      48.1451856
  energy:             19.0589783

- temperature:       190.0000000
  free_energy:        12.0482373
  entropy:            39.4824621
  heat_capacity:      50.0102287
  energy:             19.5499051

- temperature:       200.0000000
  free_energy:        11.6403288
  entropy:            42.0914153
  heat_capacity:      51.7039448
  energy:             20.0586118

- temperature:       210.0000000
  free_energy:        11.2065707
  entropy:            44.6518868
  heat_capacity:      53.2425210
  energy:             20.5834669

- temperature:       220.0000000
  free_energy:        10.7474606
  entropy:            47.1615242
  heat_capacity:      54.6411562
  energy:             21.1229959

- temperature:       230.0000000
  free_energy:        10.2635144
  entropy:            49.6189395
  heat_capacity:      55.9138701
  energy:             21.6758705

- temperature:       240.0000000
  free_energy:         9.7552581
  entropy:            52.0234926
  heat_capacity:      57.0734377
  energy:             22.2408963

- temperature:       250.0000000
  free_energy:         9.2232210
  entropy:            54.3751187
  heat_capacity:      58.1314013
  energy:             22.8170007

- temperature:       260.0000000
  free_energy:         8.6679309
  entropy:            56.6741901
  heat_capacity:      59.0981283
  energy:             23.4032203

- temperature:       270.0000000
  free_energy:         8.0899101
  entropy:            58.9214077
  heat_capacity:      59.9828936
  energy:             23.9986901

- temperature:       280.0000000
  free_energy:         7.4896725
  entropy:            61.1177150
  heat_capacity:      60.7939729
  energy:             24.6026327

- temperature:       290.0000000
  free_energy:         6.8677218
  entropy:            63.2642306
  heat_capacity:      61.5387390
  energy:             25.2143487

- temperature:       300.0000000
  free_energy:         6.2245497
  entropy:            65.3621955
  heat_capacity:      62.2237543
  energy:             25.8332084

- temperature:       310.0000000
  free_energy:         5.5606353
  entropy:            67.4129317
  heat_capacity:      62.8548595
  energy:             26.4586441

- temperature:       320.0000000
  free_energy:         4.8764439
  entropy:            69.4178104
  heat_capacity:      63.4372534
  energy:             27.0901433

- temperature:       330.0000000
  free_energy:         4.1724273
  entropy:            71.3782273
  heat_capacity:      63.9755665
  energy:             27.7272423

- temperature:       340.0000000
  free_energy:         3.4490229
  entropy:            73.2955839
  heat_capacity:      64.4739265
  energy:             28.3695215

- temperature:       350.0000000
  free_energy:         2.7066545
  entropy:            75.1712728
  heat_capacity:      64.9360171
  energy:             29.0166000

- temperature:       360.0000000
  free_energy:         1.9457318
  entropy:            77.0066670
  heat_capacity:      65.3651289
  energy:             29.6681319

- temperature:       370.0000000
  free_energy:         1.1666510
  entropy:            78.8031121
  heat_capacity:      65.7642061
  energy:             30.3238025

- temperature:       380.0000000
  free_energy:         0.3697950
  entropy:            80.5619204
  heat_capacity:      66.1358862
  energy:             30.9833247

- temperature:       390.0000000
  free_energy:        -0.4444662
  entropy:            82.2843667
  heat_capacity:      66.4825353
  energy:             31.6464368

- temperature:       400.0000000
  free_energy:        -1.2757753
  entropy:            83.9716859
  heat_capacity:      66.8062797
  energy:             32.3128991

- temperature:       410.0000000
  free_energy:        -2.1237868
  entropy:            85.6250714
  heat_capacity:      67.1090324
  energy:             32.9824924

- temperature:       420.0000000
  free_energy:        -2.9881674
  entropy:            87.2456737
  heat_capacity:      67.3925179
  energy:             33.6550156

- temperature:       430.0000000
  free_energy:        -3.8685947
  entropy:            88.8346011
  heat_capacity:      67.6582926
  energy:             34.3302838

- temperature:       440.0000000
  free_energy:        -4.7647574
  entropy:            90.3929193
  heat_capacity:      67.9077638
  energy:             35.0081271

- temperature:       450.0000000
  free_energy:        -5.6763545
  entropy:            91.9216521
  heat_capacity:      68.1422054
  energy:             35.6883890

- temperature:       460.0000000
  free_energy:        -6.6030951
  entropy:            93.4217827
  heat_capacity:      68.3627727
  energy:             36.3709250

- temperature:       470.0000000
  free_energy:        -7.5446980
  entropy:            94.8942545
  heat_capacity:      68.5705151
  energy:             37.0556017

- temperature:       480.0000000
  free_energy:        -8.5008910
  entropy:            96.3399723
  heat_capacity:      68.7663868
  energy:             37.7422957

- temperature:       490.0000000
  free_energy:        -9.4714111
  entropy:            97.7598038
  heat_capacity:      68.9512569
  energy:             38.4308927

- temperature:       500.0000000
  free_energy:       -10.4560036
  entropy:            99.1545808
  heat_capacity:      69.1259183
  energy:             39.1212868

- temperature:       510.0000000
  free_energy:       -11.4544219
  entropy:           100.5251008
  heat_capacity:      69.2910949
  energy:             39.8133795

- temperature:       520.0000000
  free_energy:       -12.4664273
  entropy:           101.8721281
  heat_capacity:      69.4474491
  energy:             40.5070793

- temperature:       530.0000000
  free_energy:       -13.4917886
  entropy:           103.1963956
  heat_capacity:      69.5955875
  energy:             41.2023011

- temperature:       540.0000000
  free_energy:       -14.5302817
  entropy:           104.4986060
  heat_capacity:      69.7360663
  energy:             41.8989655

- temperature:       550.0000000
  free_energy:       -15.5816894
  entropy:           105.7794328
  heat_capacity:      69.8693963
  energy:             42.5969986

- temperature:       560.0000000
  free_energy:       -16.6458012
  entropy:           107.0395222
  heat_capacity:      69.9960471
  energy:             43.2963312

- temperature:       570.0000000
  free_energy:       -17.7224128
  entropy:           108.2794939
  heat_capacity:      70.1164510
  energy:             43.9968987

- temperature:       580.0000000
  free_energy:       -18.8113260
  entropy:           109.4999427
  heat_capacity:      70.2310063
  energy:             44.6986407

- temperature:       590.0000000
  free_energy:       -19.9123485
  entropy:           110.7014391
  heat_capacity:      70.3400807
  energy:             45.4015006

- temperature:       600.0000000
  free_energy:       -21.0252935
  entropy:           111.8845311
  heat_capacity:      70.4440137
  energy:             46.1054252

- temperature:       610.0000000
  free_energy:       -22.1499795
  entropy:           113.0497448
  heat_capacity:      70.5431195
  energy:             46.8103648

- temperature:       620.0000000
  free_energy:       -23.2862305
  entropy:           114.1975854
  heat_capacity:      70.6376886
  energy:             47.5162725

- temperature:       630.0000000
  free_energy:       -24.4338749
  entropy:           115.3285385
  heat_capacity:      70.7279907
  energy:             48.2231043

- temperature:       640.0000000
  free_energy:       -25.5927465
  entropy:           116.4430709
  heat_capacity:      70.8142756
  energy:             48.9308189

- temperature:       650.0000000
  free_energy:       -26.7626831
  entropy:           117.5416313
  heat_capacity:      70.8967755
  energy:             49.6393772

- temperature:       660.0000000
  free_energy:       -27.9435273
  entropy:           118.6246513
  heat_capacity:      70.9757062
  energy:             50.3487425

- temperature:       670.0000000
  free_energy:       -29.1351257
  entropy:           119.6925461
  heat_capacity:      71.0512685
  energy:             51.0588801

- temperature:       680.0000000
  free_energy:       -30.3373292
  entropy:           120.7457153
  heat_capacity:      71.1236495
  energy:             51.7697573

- temperature:       690.0000000
  free_energy:       -31.5499922
  entropy:           121.7845440
  heat_capacity:      71.1930236
  energy:             52.4813431

- temperature:       700.0000000
  free_energy:       -32.7729735
  entropy:           122.8094025
  heat_capacity:      71.2595535
  energy:             53.1936083

- temperature:       710.0000000
  free_energy:       -34.0061349
  entropy:           123.8206480
  heat_capacity:      71.3233910
  energy:             53.9065252

- temperature:       720.0000000
  free_energy:       -35.2493422
  entropy:           124.8186247
  heat_capacity:      71.3846783
  energy:             54.6200676

- temperature:       730.0000000
  free_energy:       -36.5024643
  entropy:           125.8036644
  heat_capacity:      71.4435482
  energy:             55.3342107

- temperature:       740.0000000
  free_energy:       -37.7653734
  entropy:           126.7760870
  heat_capacity:      71.5001251
  energy:             56.0489309

- temperature:       750.0000000
  free_energy:       -39.0379450
  entropy:           127.7362013
  heat_capacity:      71.5545257
  energy:             56.7642059

- temperature:       760.0000000
  free_energy:       -40.3200574
  entropy:           128.6843052
  heat_capacity:      71.6068591
  energy:             57.4800145

- temperature:       770.0000000
  free_energy:       -41.6115920
  entropy:           129.6206865
  heat_capacity:      71.6572281
  energy:             58.1963366

- temperature:       780.0000000
  free_energy:       -42.9124330
  entropy:           130.5456229
  heat_capacity:      71.7057290
  energy:             58.9131529

- temperature:       790.0000000
  free_energy:       -44.2224672
  entropy:           131.4593829
  heat_capacity:      71.7524523
  energy:             59.6304452

- temperature:       800.0000000
  free_energy:       -45.5415843
  entropy:           132.3622257
  heat_capacity:      71.7974833
  energy:             60.3481963

- temperature:       810.0000000
  free_energy:       -46.8696762
  entropy:           133.2544021
  heat_capacity:      71.8409021
  energy:             61.0663895

- temperature:       820.0000000
  free_energy:       -48.2066376
  entropy:           134.1361546
  heat_capacity:      71.8827843
  energy:             61.7850092

- temperature:       830.0000000
  free_energy:       -49.5523653
  entropy:           135.0077176
  heat_capacity:      71.9232010
  energy:             62.5040403

- temperature:       840.0000000
  free_energy:       -50.9067587
  entropy:           135.8693182
  heat_capacity:      71.9622193
  energy:             63.2234686

- temperature:       850.0000000
  free_energy:       -52.2697192
  entropy:           136.7211759
  heat_capacity:      71.9999027
  energy:             63.9432803

- temperature:       860.0000000
  free_energy:       -53.6411505
  entropy:           137.5635033
  heat_capacity:      72.0363110
  energy:             64.6634624

- temperature:       870.0000000
  free_energy:       -55.0209582
  entropy:           138.3965065
  heat_capacity:      72.0715007
  energy:             65.3840024

- temperature:       880.0000000
  free_energy:       -56.4090502
  entropy:           139.2203849
  heat_capacity:      72.1055253
  energy:             66.1048885

- temperature:       890.0000000
  free_energy:       -57.8053361
  entropy:           140.0353318
  heat_capacity:      72.1384352
  energy:             66.8261092

- temperature:       900.0000000
  free_energy:       -59.2097277
  entropy:           140.8415348
  heat_capacity:      72.1702786
  energy:             67.5476536

- temperature:       910.0000000
  free_energy:       -60.6221383
  entropy:           141.6391754
  heat_capacity:      72.2011006
  energy:             68.2695114

- temperature:       920.0000000
  free_energy:       -62.0424832
  entropy:           142.4284300
  heat_capacity:      72.2309442
  energy:             68.9916724

- temperature:       930.0000000
  free_energy:       -63.4706795
  entropy:           143.2094695
  heat_capacity:      72.2598503
  energy:             69.7141271

- temperature:       940.0000000
  free_energy:       -64.9066458
  entropy:           143.9824598
  heat_capacity:      72.2878574
  energy:             70.4368664

- temperature:       950.0000000
  free_energy:       -66.3503024
  entropy:           144.7475619
  heat_capacity:      72.3150023
  energy:             71.1598814

- temperature:       960.0000000
  free_energy:       -67.8015713
  entropy:           145.5049322
  heat_capacity:      72.3413199
  energy:             71.8831637

- temperature:       970.0000000
  free_energy:       -69.2603758
  entropy:           146.2547226
  heat_capacity:      72.3668432
  energy:             72.6067052

- temperature:       980.0000000
  free_energy:       -70.7266409
  entropy:           146.9970806
  heat_capacity:      72.3916037
  energy:             73.3304980

- temperature:       990.0000000
  free_energy:       -72.2002931
  entropy:           147.7321494
  heat_capacity:      72.4156315
  energy:             74.0545348

- temperature:      1000.0000000
  free_energy:       -73.6812601
  entropy:           148.4600684
  heat_capacity:      72.4389549
  energy:             74.7788083
