# Thermal properties / unit cell (natom)

unit:
  temperature:   K
  free_energy:   kJ/mol
  entropy:       J/K/mol
  heat_capacity: J/K/mol

natom: 3    
cutoff_frequency: 0.00000
num_modes: 324000
num_integrated_modes: 319073

zero_point_energy:      11.5298490

thermal_properties:
- temperature:         0.0000000
  free_energy:        11.5298490
  entropy:             0.0000000
  heat_capacity:       0.0000000
  energy:             11.5298490

- temperature:        10.0000000
  free_energy:        11.5272476
  entropy:             0.8218654
  heat_capacity:       1.8980650
  energy:             11.5354662

- temperature:        20.0000000
  free_energy:        11.5056208
  entropy:             3.8349770
  heat_capacity:       7.7361410
  energy:             11.5823203

- temperature:        30.0000000
  free_energy:        11.4466312
  entropy:             8.0420651
  heat_capacity:      13.0837241
  energy:             11.6878932

- temperature:        40.0000000
  free_energy:        11.3445420
  entropy:            12.3489026
  heat_capacity:      16.8362399
  energy:             11.8384981

- temperature:        50.0000000
  free_energy:        11.2004115
  entropy:            16.4382192
  heat_capacity:      19.8862078
  energy:             12.0223224

- temperature:        60.0000000
  free_energy:        11.0164389
  entropy:            20.3304604
  heat_capacity:      22.9323041
  energy:             12.2362666

- temperature:        70.0000000
  free_energy:        10.7941821
  entropy:            24.1077208
  heat_capacity:      26.1959468
  energy:             12.4817225

- temperature:        80.0000000
  free_energy:        10.5344685
  entropy:            27.8286413
  heat_capacity:      29.6294635
  energy:             12.7607598

- temperature:        90.0000000
  free_energy:        10.2377080
  entropy:            31.5191906
  heat_capacity:      33.1004490
  energy:             13.0744352

- temperature:       100.0000000
  free_energy:         9.9041727
  entropy:            35.1829722
  heat_capacity:      36.4830934
  energy:             13.4224699

- temperature:       110.0000000
  free_energy:         9.5341635
  entropy:            38.8121525
  heat_capacity:      39.6880013
  energy:             13.8035003

- temperature:       120.0000000
  free_energy:         9.1280848
  entropy:            42.3948112
  heat_capacity:      42.6635358
  energy:             14.2154621

- temperature:       130.0000000
  free_energy:         8.6864625
  entropy:            45.9189846
  heat_capacity:      45.3875634
  energy:             14.6559305

- temperature:       140.0000000
  free_energy:         8.2099341
  entropy:            49.3745182
  heat_capacity:      47.8579849
  energy:             15.1223667

- temperature:       150.0000000
  free_energy:         7.6992270
  entropy:            52.7536730
  heat_capacity:      50.0849482
  energy:             15.6122779

- temperature:       160.0000000
  free_energy:         7.1551333
  entropy:            56.0511033
  heat_capacity:      52.0852674
  energy:             16.1233099

- temperature:       170.0000000
  free_energy:         6.5784883
  entropy:            59.2635610
  heat_capacity:      53.8787359
  energy:             16.6532937

- temperature:       180.0000000
  free_energy:         5.9701506
  entropy:            62.3895158
  heat_capacity:      55.4858420
  energy:             17.2002634

- temperature:       190.0000000
  free_energy:         5.3309871
  entropy:            65.4287820
  heat_capacity:      56.9264407
  energy:             17.7624557

- temperature:       200.0000000
  free_energy:         4.6618612
  entropy:            68.3821895
  heat_capacity:      58.2190486
  energy:             18.3382991

- temperature:       210.0000000
  free_energy:         3.9636243
  entropy:            71.2513115
  heat_capacity:      59.3805250
  energy:             18.9263997

- temperature:       220.0000000
  free_energy:         3.2371090
  entropy:            74.0382459
  heat_capacity:      60.4259857
  energy:             19.5255231

- temperature:       230.0000000
  free_energy:         2.4831252
  entropy:            76.7454453
  heat_capacity:      61.3688473
  energy:             20.1345776

- temperature:       240.0000000
  free_energy:         1.7024570
  entropy:            79.3755862
  heat_capacity:      62.2209421
  energy:             20.7525977

- temperature:       250.0000000
  free_energy:         0.8958610
  entropy:            81.9314707
  heat_capacity:      62.9926626
  energy:             21.3787287

- temperature:       260.0000000
  free_energy:         0.0640656
  entropy:            84.4159535
  heat_capacity:      63.6931162
  energy:             22.0122135

- temperature:       270.0000000
  free_energy:        -0.7922296
  entropy:            86.8318879
  heat_capacity:      64.3302755
  energy:             22.6523801

- temperature:       280.0000000
  free_energy:        -1.6723531
  entropy:            89.1820873
  heat_capacity:      64.9111184
  energy:             23.2986314

- temperature:       290.0000000
  free_energy:        -2.5756614
  entropy:            91.4692987
  heat_capacity:      65.4417554
  energy:             23.9504352

- temperature:       300.0000000
  free_energy:        -3.5015380
  entropy:            93.6961834
  heat_capacity:      65.9275423
  energy:             24.6073171

- temperature:       310.0000000
  free_energy:        -4.4493925
  entropy:            95.8653059
  heat_capacity:      66.3731797
  energy:             25.2688523

- temperature:       320.0000000
  free_energy:        -5.4186598
  entropy:            97.9791263
  heat_capacity:      66.7827994
  energy:             25.9346606

- temperature:       330.0000000
  free_energy:        -6.4087986
  entropy:           100.0399969
  heat_capacity:      67.1600397
  energy:             26.6044004

- temperature:       340.0000000
  free_energy:        -7.4192907
  entropy:           102.0501616
  heat_capacity:      67.5081102
  energy:             27.2777642

- temperature:       350.0000000
  free_energy:        -8.4496399
  entropy:           104.0117565
  heat_capacity:      67.8298479
  energy:             27.9544749

- temperature:       360.0000000
  free_energy:        -9.4993707
  entropy:           105.9268126
  heat_capacity:      68.1277654
  energy:             28.6342818

- temperature:       370.0000000
  free_energy:       -10.5680275
  entropy:           107.7972587
  heat_capacity:      68.4040926
  energy:             29.3169583

- temperature:       380.0000000
  free_energy:       -11.6551733
  entropy:           109.6249254
  heat_capacity:      68.6608123
  energy:             30.0022983

- temperature:       390.0000000
  free_energy:       -12.7603892
  entropy:           111.4115493
  heat_capacity:      68.8996914
  energy:             30.6901150

- temperature:       400.0000000
  free_energy:       -13.8832730
  entropy:           113.1587774
  heat_capacity:      69.1223075
  energy:             31.3802380

- temperature:       410.0000000
  free_energy:       -15.0234386
  entropy:           114.8681715
  heat_capacity:      69.3300720
  energy:             32.0725117

- temperature:       420.0000000
  free_energy:       -16.1805152
  entropy:           116.5412128
  heat_capacity:      69.5242498
  energy:             32.7667942

- temperature:       430.0000000
  free_energy:       -17.3541464
  entropy:           118.1793061
  heat_capacity:      69.7059774
  energy:             33.4629552

- temperature:       440.0000000
  free_energy:       -18.5439893
  entropy:           119.7837839
  heat_capacity:      69.8762769
  energy:             34.1608756

- temperature:       450.0000000
  free_energy:       -19.7497142
  entropy:           121.3559111
  heat_capacity:      70.0360700
  energy:             34.8604457

- temperature:       460.0000000
  free_energy:       -20.9710037
  entropy:           122.8968880
  heat_capacity:      70.1861890
  energy:             35.5615648

- temperature:       470.0000000
  free_energy:       -22.2075520
  entropy:           124.4078548
  heat_capacity:      70.3273868
  energy:             36.2641398

- temperature:       480.0000000
  free_energy:       -23.4590644
  entropy:           125.8898947
  heat_capacity:      70.4603457
  energy:             36.9680851

- temperature:       490.0000000
  free_energy:       -24.7252569
  entropy:           127.3440371
  heat_capacity:      70.5856851
  energy:             37.6733213

- temperature:       500.0000000
  free_energy:       -26.0058554
  entropy:           128.7712613
  heat_capacity:      70.7039681
  energy:             38.3797752

- temperature:       510.0000000
  free_energy:       -27.3005955
  entropy:           130.1724987
  heat_capacity:      70.8157075
  energy:             39.0873789

- temperature:       520.0000000
  free_energy:       -28.6092217
  entropy:           131.5486363
  heat_capacity:      70.9213711
  energy:             39.7960691

- temperature:       530.0000000
  free_energy:       -29.9314874
  entropy:           132.9005185
  heat_capacity:      71.0213860
  energy:             40.5057875

- temperature:       540.0000000
  free_energy:       -31.2671539
  entropy:           134.2289505
  heat_capacity:      71.1161430
  energy:             41.2164793

- temperature:       550.0000000
  free_energy:       -32.6159908
  entropy:           135.5346996
  heat_capacity:      71.2060001
  energy:             41.9280940

- temperature:       560.0000000
  free_energy:       -33.9777747
  entropy:           136.8184980
  heat_capacity:      71.2912858
  energy:             42.6405841

- temperature:       570.0000000
  free_energy:       -35.3522899
  entropy:           138.0810445
  heat_capacity:      71.3723016
  energy:             43.3539055

- temperature:       580.0000000
  free_energy:       -36.7393270
  entropy:           139.3230067
  heat_capacity:      71.4493249
  energy:             44.0680168

- temperature:       590.0000000
  free_energy:       -38.1386835
  entropy:           140.5450221
  heat_capacity:      71.5226114
  energy:             44.7828795

- temperature:       600.0000000
  free_energy:       -39.5501630
  entropy:           141.7477007
  heat_capacity:      71.5923966
  energy:             45.4984574

- temperature:       610.0000000
  free_energy:       -40.9735750
  entropy:           142.9316255
  heat_capacity:      71.6588980
  energy:             46.2147165

- temperature:       620.0000000
  free_energy:       -42.4087349
  entropy:           144.0973548
  heat_capacity:      71.7223165
  energy:             46.9316251

- temperature:       630.0000000
  free_energy:       -43.8554633
  entropy:           145.2454230
  heat_capacity:      71.7828383
  energy:             47.6491532

- temperature:       640.0000000
  free_energy:       -45.3135862
  entropy:           146.3763421
  heat_capacity:      71.8406355
  energy:             48.3672728

- temperature:       650.0000000
  free_energy:       -46.7829346
  entropy:           147.4906030
  heat_capacity:      71.8958682
  energy:             49.0859574

- temperature:       660.0000000
  free_energy:       -48.2633443
  entropy:           148.5886763
  heat_capacity:      71.9486844
  energy:             49.8051821

- temperature:       670.0000000
  free_energy:       -49.7546557
  entropy:           149.6710136
  heat_capacity:      71.9992222
  energy:             50.5249235

- temperature:       680.0000000
  free_energy:       -51.2567135
  entropy:           150.7380484
  heat_capacity:      72.0476098
  energy:             51.2451594

- temperature:       690.0000000
  free_energy:       -52.7693670
  entropy:           151.7901969
  heat_capacity:      72.0939665
  energy:             51.9658689

- temperature:       700.0000000
  free_energy:       -54.2924692
  entropy:           152.8278593
  heat_capacity:      72.1384037
  energy:             52.6870323

- temperature:       710.0000000
  free_energy:       -55.8258772
  entropy:           153.8514198
  heat_capacity:      72.1810252
  energy:             53.4086309

- temperature:       720.0000000
  free_energy:       -57.3694518
  entropy:           154.8612484
  heat_capacity:      72.2219280
  energy:             54.1306471

- temperature:       730.0000000
  free_energy:       -58.9230576
  entropy:           155.8577008
  heat_capacity:      72.2612026
  energy:             54.8530640

- temperature:       740.0000000
  free_energy:       -60.4865624
  entropy:           156.8411194
  heat_capacity:      72.2989338
  energy:             55.5758660

- temperature:       750.0000000
  free_energy:       -62.0598376
  entropy:           157.8118339
  heat_capacity:      72.3352009
  energy:             56.2990378

- temperature:       760.0000000
  free_energy:       -63.6427578
  entropy:           158.7701620
  heat_capacity:      72.3700783
  energy:             57.0225654

- temperature:       770.0000000
  free_energy:       -65.2352006
  entropy:           159.7164098
  heat_capacity:      72.4036357
  energy:             57.7464350

- temperature:       780.0000000
  free_energy:       -66.8370467
  entropy:           160.6508725
  heat_capacity:      72.4359385
  energy:             58.4706339

- temperature:       790.0000000
  free_energy:       -68.4481797
  entropy:           161.5738348
  heat_capacity:      72.4670481
  energy:             59.1951498

- temperature:       800.0000000
  free_energy:       -70.0684860
  entropy:           162.4855713
  heat_capacity:      72.4970223
  energy:             59.9199711

- temperature:       810.0000000
  free_energy:       -71.6978546
  entropy:           163.3863472
  heat_capacity:      72.5259153
  energy:             60.6450866

- temperature:       820.0000000
  free_energy:       -73.3361772
  entropy:           164.2764185
  heat_capacity:      72.5537784
  energy:             61.3704859

- temperature:       830.0000000
  free_energy:       -74.9833481
  entropy:           165.1560326
  heat_capacity:      72.5806596
  energy:             62.0961589

- temperature:       840.0000000
  free_energy:       -76.6392638
  entropy:           166.0254284
  heat_capacity:      72.6066043
  energy:             62.8220960

- temperature:       850.0000000
  free_energy:       -78.3038234
  entropy:           166.8848370
  heat_capacity:      72.6316554
  energy:             63.5482880

- temperature:       860.0000000
  free_energy:       -79.9769280
  entropy:           167.7344817
  heat_capacity:      72.6558531
  energy:             64.2747263

- temperature:       870.0000000
  free_energy:       -81.6584812
  entropy:           168.5745788
  heat_capacity:      72.6792358
  energy:             65.0014024

- temperature:       880.0000000
  free_energy:       -83.3483885
  entropy:           169.4053373
  heat_capacity:      72.7018393
  energy:             65.7283084

- temperature:       890.0000000
  free_energy:       -85.0465575
  entropy:           170.2269597
  heat_capacity:      72.7236978
  energy:             66.4554367

- temperature:       900.0000000
  free_energy:       -86.7528979
  entropy:           171.0396420
  heat_capacity:      72.7448436
  energy:             67.1827800

- temperature:       910.0000000
  free_energy:       -88.4673212
  entropy:           171.8435741
  heat_capacity:      72.7653071
  energy:             67.9103313

- temperature:       920.0000000
  free_energy:       -90.1897408
  entropy:           172.6389399
  heat_capacity:      72.7851174
  energy:             68.6380839

- temperature:       930.0000000
  free_energy:       -91.9200720
  entropy:           173.4259178
  heat_capacity:      72.8043017
  energy:             69.3660315

- temperature:       940.0000000
  free_energy:       -93.6582318
  entropy:           174.2046806
  heat_capacity:      72.8228861
  energy:             70.0941680

- temperature:       950.0000000
  free_energy:       -95.4041388
  entropy:           174.9753959
  heat_capacity:      72.8408953
  energy:             70.8224873

- temperature:       960.0000000
  free_energy:       -97.1577134
  entropy:           175.7382265
  heat_capacity:      72.8583527
  energy:             71.5509840

- temperature:       970.0000000
  free_energy:       -98.9188776
  entropy:           176.4933301
  heat_capacity:      72.8752805
  energy:             72.2796526

- temperature:       980.0000000
  free_energy:      -100.6875548
  entropy:           177.2408599
  heat_capacity:      72.8916998
  energy:             73.0084880

- temperature:       990.0000000
  free_energy:      -102.4636700
  entropy:           177.9809647
  heat_capacity:      72.9076307
  energy:             73.7374850

- temperature:      1000.0000000
  free_energy:      -104.2471498
  entropy:           178.7137888
  heat_capacity:      72.9230924
  energy:             74.4666390
