# Tetrahedron method
       -0.4904993588        0.0000000000
       -0.4610694268        0.0000000000
       -0.4316394947        0.0000000000
       -0.4022095626        0.0000000000
       -0.3727796305        0.0000000000
       -0.3433496984        0.0000000000
       -0.3139197664        0.0000000000
       -0.2844898343        0.0000000000
       -0.2550599022        0.0000000000
       -0.2256299701        0.0000000000
       -0.1962000380        0.0000000000
       -0.1667701059        0.0000000000
       -0.1373401739        0.0000000000
       -0.1079102418        0.0000000000
       -0.0784803097        0.0000000000
       -0.0490503776        0.0000000000
       -0.0196204455        0.0000000000
        0.0098094865        0.0000482572
        0.0392394186        0.0007495647
        0.0686693507        0.0022264460
        0.0980992828        0.0044027479
        0.1275292149        0.0115765612
        0.1569591469        0.0176651050
        0.1863890790        0.0275338449
        0.2158190111        0.0374469083
        0.2452489432        0.0504169915
        0.2746788753        0.0674383708
        0.3041088073        0.0878097365
        0.3335387394        0.1031589392
        0.3629686715        0.1263443062
        0.3923986036        0.1848884302
        0.4218285357        0.2483320724
        0.4512584678        0.2985994512
        0.4806883998        0.3656471863
        0.5101183319        0.4251660591
        0.5395482640        0.4948140990
        0.5689781961        0.5698255780
        0.5984081282        0.6531073679
        0.6278380602        0.7549097614
        0.6572679923        0.8659518194
        0.6866979244        1.0012979605
        0.7161278565        1.2490318112
        0.7455577886        1.4294768959
        0.7749877206        1.4606952344
        0.8044176527        1.5313387932
        0.8338475848        1.5994471701
        0.8632775169        1.7207725038
        0.8927074490        1.7798022236
        0.9221373810        1.8702926710
        0.9515673131        1.9950863137
        0.9809972452        2.2140598102
        1.0104271773        2.2581587885
        1.0398571094        2.0511022806
        1.0692870414        1.9334161625
        1.0987169735        1.8862442944
        1.1281469056        1.8997584330
        1.1575768377        1.9402707915
        1.1870067698        1.9668260944
        1.2164367019        2.0696048670
        1.2458666339        2.1185287839
        1.2752965660        2.1671523831
        1.3047264981        2.2684580336
        1.3341564302        2.4182678332
        1.3635863623        2.6032243536
        1.3930162943        2.9459216756
        1.4224462264        3.0193715727
        1.4518761585        3.1722345758
        1.4813060906        3.3495650736
        1.5107360227        3.2554611444
        1.5401659547        3.1545713583
        1.5695958868        3.3235758897
        1.5990258189        3.5395204647
        1.6284557510        3.6532869033
        1.6578856831        3.6961059895
        1.6873156151        3.7893835288
        1.7167455472        3.8583092375
        1.7461754793        4.0023456387
        1.7756054114        4.0690633778
        1.8050353435        4.2994928276
        1.8344652755        4.6795300068
        1.8638952076        4.7222290009
        1.8933251397        4.8725929933
        1.9227550718        5.1984779168
        1.9521850039        5.3985009040
        1.9816149360        5.2735355727
        2.0110448680        5.2325595894
        2.0404748001        5.3088801601
        2.0699047322        5.2395759307
        2.0993346643        5.0066545471
        2.1287645964        4.5368033422
        2.1581945284        4.3652873641
        2.1876244605        4.2087904129
        2.2170543926        4.1792790907
        2.2464843247        4.3365915340
        2.2759142568        4.3137812142
        2.3053441888        4.2910004797
        2.3347741209        4.2160211129
        2.3642040530        4.1020615106
        2.3936339851        4.0548093417
        2.4230639172        4.1064712044
        2.4524938492        4.0162495533
        2.4819237813        3.8662763778
        2.5113537134        3.8139948688
        2.5407836455        3.5914858748
        2.5702135776        3.4994293837
        2.5996435096        3.3729816278
        2.6290734417        3.2152871499
        2.6585033738        3.0733510371
        2.6879333059        2.9162310282
        2.7173632380        2.8197823891
        2.7467931701        2.7750722672
        2.7762231021        2.7510396341
        2.8056530342        2.7007716882
        2.8350829663        2.6652268744
        2.8645128984        2.6347265040
        2.8939428305        2.6230248862
        2.9233727625        2.6370283844
        2.9528026946        2.6085198164
        2.9822326267        2.5793072683
        3.0116625588        2.5163681424
        3.0410924909        2.4790217254
        3.0705224229        2.4992973420
        3.0999523550        2.6556409642
        3.1293822871        2.4754342230
        3.1588122192        2.3325534613
        3.1882421513        2.2957711904
        3.2176720833        2.3572320992
        3.2471020154        2.3463268883
        3.2765319475        2.3230390119
        3.3059618796        2.2954759910
        3.3353918117        2.2505978658
        3.3648217437        2.2222322409
        3.3942516758        2.2259109012
        3.4236816079        2.2023777838
        3.4531115400        2.1372341309
        3.4825414721        2.1134005693
        3.5119714042        1.8945062344
        3.5414013362        1.8409575556
        3.5708312683        1.7492595494
        3.6002612004        1.7495640171
        3.6296911325        1.7079274935
        3.6591210646        1.8880649527
        3.6885509966        1.9924901394
        3.7179809287        2.1053740129
        3.7474108608        2.0971573585
        3.7768407929        2.1461737188
        3.8062707250        2.3691093222
        3.8357006570        2.7363566072
        3.8651305891        2.6470536771
        3.8945605212        2.7129930450
        3.9239904533        2.8485390048
        3.9534203854        3.2118369668
        3.9828503174        3.2080533768
        4.0122802495        3.2809252503
        4.0417101816        3.5124209229
        4.0711401137        3.6620499408
        4.1005700458        3.7654338453
        4.1299999779        3.9287341611
        4.1594299099        4.1672661717
        4.1888598420        3.9663998513
        4.2182897741        4.2609018775
        4.2477197062        3.8617062739
        4.2771496383        3.7265773918
        4.3065795703        3.7311077222
        4.3360095024        3.6768992299
        4.3654394345        3.1488259003
        4.3948693666        2.7295292505
        4.4242992987        2.4513685608
        4.4537292307        2.1724354609
        4.4831591628        1.9203746682
        4.5125890949        1.7164653918
        4.5420190270        1.5067378407
        4.5714489591        1.3122336208
        4.6008788911        1.1428070819
        4.6303088232        1.0413947624
        4.6597387553        0.9343644955
        4.6891686874        0.8433447154
        4.7185986195        0.7478039831
        4.7480285515        0.6249035623
        4.7774584836        0.5198686221
        4.8068884157        0.4463138765
        4.8363183478        0.3584521228
        4.8657482799        0.2666519394
        4.8951782120        0.1394956326
        4.9246081440        0.0000000000
        4.9540380761        0.0000000000
        4.9834680082        0.0000000000
        5.0128979403        0.0000000000
        5.0423278724        0.0000000000
        5.0717578044        0.0000000000
        5.1011877365        0.0000000000
        5.1306176686        0.0000000000
        5.1600476007        0.0000000000
        5.1894775328        0.0000000000
        5.2189074648        0.0000000000
        5.2483373969        0.0000000000
        5.2777673290        0.0000000000
        5.3071972611        0.0000000000
        5.3366271932        0.0000000000
        5.3660571252        0.0000000000
        5.3954870573        0.0000000000
