# Thermal properties / unit cell (natom)

unit:
  temperature:   K
  free_energy:   kJ/mol
  entropy:       J/K/mol
  heat_capacity: J/K/mol

natom: 8    
cutoff_frequency: 0.00000
num_modes: 152064
num_integrated_modes: 152058

zero_point_energy:       6.8777822

thermal_properties:
- temperature:         0.0000000
  free_energy:         6.8777822
  entropy:             0.0000000
  heat_capacity:       0.0000000
  energy:              6.8777822

- temperature:        10.0000000
  free_energy:         6.8564582
  entropy:             8.6323327
  heat_capacity:      24.5573847
  energy:              6.9427815

- temperature:        20.0000000
  free_energy:         6.6039132
  entropy:            44.9660686
  heat_capacity:      86.7193077
  energy:              7.5032346

- temperature:        30.0000000
  free_energy:         5.9332308
  entropy:            89.1355235
  heat_capacity:     130.1634200
  energy:              8.6072965

- temperature:        40.0000000
  free_energy:         4.8321928
  entropy:           130.2746324
  heat_capacity:     154.6616962
  energy:             10.0431780

- temperature:        50.0000000
  free_energy:         3.3445445
  entropy:           166.4325017
  heat_capacity:     168.7087609
  energy:             11.6661695

- temperature:        60.0000000
  free_energy:         1.5188477
  entropy:           198.0068121
  heat_capacity:     177.2474837
  energy:             13.3992564

- temperature:        70.0000000
  free_energy:        -0.6029050
  entropy:           225.7716868
  heat_capacity:     182.7467638
  energy:             15.2011131

- temperature:        80.0000000
  free_energy:        -2.9862546
  entropy:           250.4322629
  heat_capacity:     186.4683240
  energy:             17.0483264

- temperature:        90.0000000
  free_energy:        -5.6031050
  entropy:           272.5550841
  heat_capacity:     189.0925710
  energy:             18.9268526

- temperature:       100.0000000
  free_energy:        -8.4303811
  entropy:           292.5821005
  heat_capacity:     191.0072238
  energy:             20.8278290

- temperature:       110.0000000
  free_energy:       -11.4489166
  entropy:           310.8575605
  heat_capacity:     192.4444917
  energy:             22.7454150

- temperature:       120.0000000
  free_energy:       -14.6426010
  entropy:           327.6518182
  heat_capacity:     193.5496148
  energy:             24.6756171

- temperature:       130.0000000
  free_energy:       -17.9977362
  entropy:           343.1796468
  heat_capacity:     194.4169086
  energy:             26.6156179

- temperature:       140.0000000
  free_energy:       -21.5025518
  entropy:           357.6137670
  heat_capacity:     195.1096412
  energy:             28.5633756

- temperature:       150.0000000
  free_energy:       -25.1468371
  entropy:           371.0947527
  heat_capacity:     195.6714682
  energy:             30.5173758

- temperature:       160.0000000
  free_energy:       -28.9216576
  entropy:           383.7383127
  heat_capacity:     196.1332665
  energy:             32.4764724

- temperature:       170.0000000
  free_energy:       -32.8191345
  entropy:           395.6406894
  heat_capacity:     196.5173544
  energy:             34.4397827

- temperature:       180.0000000
  free_energy:       -36.8322716
  entropy:           406.8827073
  heat_capacity:     196.8401780
  energy:             36.4066158

- temperature:       190.0000000
  free_energy:       -40.9548168
  entropy:           417.5328435
  heat_capacity:     197.1140658
  energy:             38.3764235

- temperature:       200.0000000
  free_energy:       -45.1811513
  entropy:           427.6495840
  heat_capacity:     197.3484034
  energy:             40.3487655

- temperature:       210.0000000
  free_energy:       -49.5061990
  entropy:           437.2832524
  heat_capacity:     197.5504353
  energy:             42.3232840

- temperature:       220.0000000
  free_energy:       -53.9253521
  entropy:           446.4774435
  heat_capacity:     197.7258240
  energy:             44.2996855

- temperature:       230.0000000
  free_energy:       -58.4344101
  entropy:           455.2701602
  heat_capacity:     197.8790465
  energy:             46.2777267

- temperature:       240.0000000
  free_energy:       -63.0295285
  entropy:           463.6947211
  heat_capacity:     198.0136791
  energy:             48.2572045

- temperature:       250.0000000
  free_energy:       -67.7071756
  entropy:           471.7804945
  heat_capacity:     198.1326065
  energy:             50.2379480

- temperature:       260.0000000
  free_energy:       -72.4640962
  entropy:           479.5534936
  heat_capacity:     198.2381755
  energy:             52.2198122

- temperature:       270.0000000
  free_energy:       -77.2972803
  entropy:           487.0368659
  heat_capacity:     198.3323112
  energy:             54.2026734

- temperature:       280.0000000
  free_energy:       -82.2039372
  entropy:           494.2512960
  heat_capacity:     198.4166046
  energy:             56.1864256

- temperature:       290.0000000
  free_energy:       -87.1814719
  entropy:           501.2153414
  heat_capacity:     198.4923794
  energy:             58.1709772

- temperature:       300.0000000
  free_energy:       -92.2274653
  entropy:           507.9457129
  heat_capacity:     198.5607447
  energy:             60.1562485

- temperature:       310.0000000
  free_energy:       -97.3396577
  entropy:           514.4575102
  heat_capacity:     198.6226346
  energy:             62.1421705

- temperature:       320.0000000
  free_energy:      -102.5159327
  entropy:           520.7644220
  heat_capacity:     198.6788410
  energy:             64.1286823

- temperature:       330.0000000
  free_energy:      -107.7543048
  entropy:           526.8788952
  heat_capacity:     198.7300383
  energy:             66.1157306

- temperature:       340.0000000
  free_energy:      -113.0529071
  entropy:           532.8122806
  heat_capacity:     198.7768040
  energy:             68.1032683

- temperature:       350.0000000
  free_energy:      -118.4099815
  entropy:           538.5749573
  heat_capacity:     198.8196345
  energy:             70.0912536

- temperature:       360.0000000
  free_energy:      -123.8238690
  entropy:           544.1764398
  heat_capacity:     198.8589591
  energy:             72.0796493

- temperature:       370.0000000
  free_energy:      -129.2930022
  entropy:           549.6254716
  heat_capacity:     198.8951497
  energy:             74.0684223

- temperature:       380.0000000
  free_energy:      -134.8158972
  entropy:           554.9301057
  heat_capacity:     198.9285306
  energy:             76.0575429

- temperature:       390.0000000
  free_energy:      -140.3911478
  entropy:           560.0977752
  heat_capacity:     198.9593850
  energy:             78.0469845

- temperature:       400.0000000
  free_energy:      -146.0174191
  entropy:           565.1353555
  heat_capacity:     198.9879613
  energy:             80.0367231

- temperature:       410.0000000
  free_energy:      -151.6934426
  entropy:           570.0492182
  heat_capacity:     199.0144784
  energy:             82.0267369

- temperature:       420.0000000
  free_energy:      -157.4180109
  entropy:           574.8452792
  heat_capacity:     199.0391292
  energy:             84.0170064

- temperature:       430.0000000
  free_energy:      -163.1899739
  entropy:           579.5290411
  heat_capacity:     199.0620848
  energy:             86.0075138

- temperature:       440.0000000
  free_energy:      -169.0082345
  entropy:           584.1056306
  heat_capacity:     199.0834970
  energy:             87.9982430

- temperature:       450.0000000
  free_energy:      -174.8717452
  entropy:           588.5798317
  heat_capacity:     199.1035011
  energy:             89.9891791

- temperature:       460.0000000
  free_energy:      -180.7795048
  entropy:           592.9561162
  heat_capacity:     199.1222178
  energy:             91.9803087

- temperature:       470.0000000
  free_energy:      -186.7305551
  entropy:           597.2386694
  heat_capacity:     199.1397552
  energy:             93.9716195

- temperature:       480.0000000
  free_energy:      -192.7239788
  entropy:           601.4314146
  heat_capacity:     199.1562103
  energy:             95.9631002

- temperature:       490.0000000
  free_energy:      -198.7588964
  entropy:           605.5380342
  heat_capacity:     199.1716703
  energy:             97.9547404

- temperature:       500.0000000
  free_energy:      -204.8344640
  entropy:           609.5619890
  heat_capacity:     199.1862138
  energy:             99.9465305

- temperature:       510.0000000
  free_energy:      -210.9498715
  entropy:           613.5065359
  heat_capacity:     199.1999118
  energy:            101.9384618

- temperature:       520.0000000
  free_energy:      -217.1043403
  entropy:           617.3747431
  heat_capacity:     199.2128285
  energy:            103.9305262

- temperature:       530.0000000
  free_energy:      -223.2971215
  entropy:           621.1695048
  heat_capacity:     199.2250224
  energy:            105.9227160

- temperature:       540.0000000
  free_energy:      -229.5274947
  entropy:           624.8935538
  heat_capacity:     199.2365462
  energy:            107.9150244

- temperature:       550.0000000
  free_energy:      -235.7947655
  entropy:           628.5494734
  heat_capacity:     199.2474482
  energy:            109.9074449

- temperature:       560.0000000
  free_energy:      -242.0982652
  entropy:           632.1397082
  heat_capacity:     199.2577722
  energy:            111.8999714

- temperature:       570.0000000
  free_energy:      -248.4373485
  entropy:           635.6665737
  heat_capacity:     199.2675585
  energy:            113.8925985

- temperature:       580.0000000
  free_energy:      -254.8113928
  entropy:           639.1322650
  heat_capacity:     199.2768438
  energy:            115.8853209

- temperature:       590.0000000
  free_energy:      -261.2197968
  entropy:           642.5388655
  heat_capacity:     199.2856615
  energy:            117.8781338

- temperature:       600.0000000
  free_energy:      -267.6619797
  entropy:           645.8883540
  heat_capacity:     199.2940427
  energy:            119.8710327

- temperature:       610.0000000
  free_energy:      -274.1373798
  entropy:           649.1826117
  heat_capacity:     199.3020156
  energy:            121.8640133

- temperature:       620.0000000
  free_energy:      -280.6454538
  entropy:           652.4234283
  heat_capacity:     199.3096063
  energy:            123.8570717

- temperature:       630.0000000
  free_energy:      -287.1856759
  entropy:           655.6125082
  heat_capacity:     199.3168388
  energy:            125.8502043

- temperature:       640.0000000
  free_energy:      -293.7575369
  entropy:           658.7514755
  heat_capacity:     199.3237354
  energy:            127.8434074

- temperature:       650.0000000
  free_energy:      -300.3605436
  entropy:           661.8418792
  heat_capacity:     199.3303166
  energy:            129.8366779

- temperature:       660.0000000
  free_energy:      -306.9942176
  entropy:           664.8851975
  heat_capacity:     199.3366011
  energy:            131.8300127

- temperature:       670.0000000
  free_energy:      -313.6580953
  entropy:           667.8828422
  heat_capacity:     199.3426067
  energy:            133.8234090

- temperature:       680.0000000
  free_energy:      -320.3517267
  entropy:           670.8361628
  heat_capacity:     199.3483496
  energy:            135.8168640

- temperature:       690.0000000
  free_energy:      -327.0746751
  entropy:           673.7464496
  heat_capacity:     199.3538448
  energy:            137.8103752

- temperature:       700.0000000
  free_energy:      -333.8265164
  entropy:           676.6149378
  heat_capacity:     199.3591065
  energy:            139.8039401

- temperature:       710.0000000
  free_energy:      -340.6068385
  entropy:           679.4428099
  heat_capacity:     199.3641476
  energy:            141.7975566

- temperature:       720.0000000
  free_energy:      -347.4152410
  entropy:           682.2311991
  heat_capacity:     199.3689804
  energy:            143.7912224

- temperature:       730.0000000
  free_energy:      -354.2513345
  entropy:           684.9811917
  heat_capacity:     199.3736160
  energy:            145.7849355

- temperature:       740.0000000
  free_energy:      -361.1147403
  entropy:           687.6938302
  heat_capacity:     199.3780652
  energy:            147.7786941

- temperature:       750.0000000
  free_energy:      -368.0050899
  entropy:           690.3701148
  heat_capacity:     199.3823378
  energy:            149.7724962

- temperature:       760.0000000
  free_energy:      -374.9220246
  entropy:           693.0110064
  heat_capacity:     199.3864429
  energy:            151.7663403

- temperature:       770.0000000
  free_energy:      -381.8651951
  entropy:           695.6174282
  heat_capacity:     199.3903893
  energy:            153.7602246

- temperature:       780.0000000
  free_energy:      -388.8342612
  entropy:           698.1902677
  heat_capacity:     199.3941850
  energy:            155.7541476

- temperature:       790.0000000
  free_energy:      -395.8288914
  entropy:           700.7303787
  heat_capacity:     199.3978376
  energy:            157.7481078

- temperature:       800.0000000
  free_energy:      -402.8487624
  entropy:           703.2385829
  heat_capacity:     199.4013541
  energy:            159.7421039

- temperature:       810.0000000
  free_energy:      -409.8935593
  entropy:           705.7156713
  heat_capacity:     199.4047414
  energy:            161.7361344

- temperature:       820.0000000
  free_energy:      -416.9629747
  entropy:           708.1624061
  heat_capacity:     199.4080055
  energy:            163.7301983

- temperature:       830.0000000
  free_energy:      -424.0567087
  entropy:           710.5795215
  heat_capacity:     199.4111525
  energy:            165.7242942

- temperature:       840.0000000
  free_energy:      -431.1744688
  entropy:           712.9677258
  heat_capacity:     199.4141878
  energy:            167.7184209

- temperature:       850.0000000
  free_energy:      -438.3159691
  entropy:           715.3277020
  heat_capacity:     199.4171167
  energy:            169.7125776

- temperature:       860.0000000
  free_energy:      -445.4809309
  entropy:           717.6601091
  heat_capacity:     199.4199441
  energy:            171.7067629

- temperature:       870.0000000
  free_energy:      -452.6690816
  entropy:           719.9655835
  heat_capacity:     199.4226746
  energy:            173.7009761

- temperature:       880.0000000
  free_energy:      -459.8801549
  entropy:           722.2447397
  heat_capacity:     199.4253126
  energy:            175.6952161

- temperature:       890.0000000
  free_energy:      -467.1138906
  entropy:           724.4981715
  heat_capacity:     199.4278623
  energy:            177.6894821

- temperature:       900.0000000
  free_energy:      -474.3700345
  entropy:           726.7264528
  heat_capacity:     199.4303275
  energy:            179.6837731

- temperature:       910.0000000
  free_energy:      -481.6483377
  entropy:           728.9301385
  heat_capacity:     199.4327119
  energy:            181.6780884

- temperature:       920.0000000
  free_energy:      -488.9485570
  entropy:           731.1097653
  heat_capacity:     199.4350190
  energy:            183.6724271

- temperature:       930.0000000
  free_energy:      -496.2704545
  entropy:           733.2658527
  heat_capacity:     199.4372522
  energy:            185.6667885

- temperature:       940.0000000
  free_energy:      -503.6137973
  entropy:           735.3989034
  heat_capacity:     199.4394145
  energy:            187.6611719

- temperature:       950.0000000
  free_energy:      -510.9783574
  entropy:           737.5094042
  heat_capacity:     199.4415089
  energy:            189.6555765

- temperature:       960.0000000
  free_energy:      -518.3639118
  entropy:           739.5978267
  heat_capacity:     199.4435382
  energy:            191.6500018

- temperature:       970.0000000
  free_energy:      -525.7702419
  entropy:           741.6646278
  heat_capacity:     199.4455052
  energy:            193.6444471

- temperature:       980.0000000
  free_energy:      -533.1971337
  entropy:           743.7102505
  heat_capacity:     199.4474122
  energy:            195.6389117

- temperature:       990.0000000
  free_energy:      -540.6443777
  entropy:           745.7351241
  heat_capacity:     199.4492618
  energy:            197.6333952

- temperature:      1000.0000000
  free_energy:      -548.1117685
  entropy:           747.7396652
  heat_capacity:     199.4510562
  energy:            199.6278968
