phonopy:
  version: "2.37.1"
  frequency_unit_conversion_factor: 15.633302
  symmetry_tolerance: 1.00000e-05

space_group:
  type: "P1"
  number: 1
  Hall_symbol: "P 1"

primitive_matrix:
- [  1.000000000000000,  0.000000000000000,  0.000000000000000 ]
- [  0.000000000000000,  1.000000000000000, -0.000000000000000 ]
- [  0.000000000000000,  0.000000000000000,  1.000000000000000 ]

supercell_matrix:
- [   3,   0,   0 ]
- [   0,   2,   0 ]
- [   0,   0,   2 ]

primitive_cell:
  lattice:
  - [     4.589215230107087,     0.000000000000000,     0.000000000000000 ] # a
  - [     2.291119556938702,     7.403602442290644,     0.000000000000000 ] # b
  - [     2.292166229605250,     0.008656416850928,     7.406164942184431 ] # c
  points:
  - symbol: Sn # 1
    coordinates: [  0.914557345529882,  0.627192989546327,  0.413997641578182 ]
    mass: 118.710000
  - symbol: Sn # 2
    coordinates: [  0.248291112641292,  0.628262496968285,  0.748255324272728 ]
    mass: 118.710000
  - symbol: Sn # 3
    coordinates: [  0.914361829440222,  0.960605177723166,  0.080097480534330 ]
    mass: 118.710000
  - symbol: Sn # 4
    coordinates: [  0.247099498203593,  0.960667006535275,  0.413835479752537 ]
    mass: 118.710000
  - symbol: Sn # 5
    coordinates: [  0.582561859929653,  0.961305036583749,  0.747378330419408 ]
    mass: 118.710000
  - symbol: Sn # 6
    coordinates: [  0.246676623913495,  0.294405496070771,  0.082363569818877 ]
    mass: 118.710000
  - symbol: Sn # 7
    coordinates: [  0.580505250432806,  0.294662781601908,  0.414263596040391 ]
    mass: 118.710000
  - symbol: Sn # 8
    coordinates: [  0.579872357299915,  0.628319264053985,  0.081941460754830 ]
    mass: 118.710000
  - symbol: Sn # 9
    coordinates: [  0.915339693250332,  0.293632430455458,  0.747767976124537 ]
    mass: 118.710000
  reciprocal_lattice: # without 2pi
  - [     0.217902179318067,    -0.067432030342883,    -0.067360678694170 ] # a*
  - [     0.000000000000000,     0.135069381128277,    -0.000157870757129 ] # b*
  - [     0.000000000000000,     0.000000000000000,     0.135022647727456 ] # c*

unit_cell:
  lattice:
  - [     4.589215230107087,     0.000000000000000,     0.000000000000000 ] # a
  - [     2.291119556938702,     7.403602442290644,     0.000000000000000 ] # b
  - [     2.292166229605249,     0.008656416850928,     7.406164942184430 ] # c
  points:
  - symbol: Sn # 1
    coordinates: [  0.914557345529882,  0.627192989546327,  0.413997641578182 ]
    mass: 118.710000
    reduced_to: 1
  - symbol: Sn # 2
    coordinates: [  0.248291112641292,  0.628262496968285,  0.748255324272729 ]
    mass: 118.710000
    reduced_to: 2
  - symbol: Sn # 3
    coordinates: [  0.914361829440222,  0.960605177723166,  0.080097480534330 ]
    mass: 118.710000
    reduced_to: 3
  - symbol: Sn # 4
    coordinates: [  0.247099498203593,  0.960667006535275,  0.413835479752538 ]
    mass: 118.710000
    reduced_to: 4
  - symbol: Sn # 5
    coordinates: [  0.582561859929653,  0.961305036583749,  0.747378330419408 ]
    mass: 118.710000
    reduced_to: 5
  - symbol: Sn # 6
    coordinates: [  0.246676623913495,  0.294405496070771,  0.082363569818877 ]
    mass: 118.710000
    reduced_to: 6
  - symbol: Sn # 7
    coordinates: [  0.580505250432806,  0.294662781601908,  0.414263596040391 ]
    mass: 118.710000
    reduced_to: 7
  - symbol: Sn # 8
    coordinates: [  0.579872357299915,  0.628319264053985,  0.081941460754830 ]
    mass: 118.710000
    reduced_to: 8
  - symbol: Sn # 9
    coordinates: [  0.915339693250332,  0.293632430455458,  0.747767976124537 ]
    mass: 118.710000
    reduced_to: 9

supercell:
  lattice:
  - [    13.767645690321263,     0.000000000000000,     0.000000000000000 ] # a
  - [     4.582239113877403,    14.807204884581289,     0.000000000000000 ] # b
  - [     4.584332459210498,     0.017312833701857,    14.812329884368859 ] # c
  points:
  - symbol: Sn # 1
    coordinates: [  0.304852448509961,  0.313596494773163,  0.206998820789091 ]
    mass: 118.710000
    reduced_to: 1
  - symbol: Sn # 2
    coordinates: [  0.638185781843294,  0.313596494773163,  0.206998820789091 ]
    mass: 118.710000
    reduced_to: 1
  - symbol: Sn # 3
    coordinates: [  0.971519115176627,  0.313596494773163,  0.206998820789091 ]
    mass: 118.710000
    reduced_to: 1
  - symbol: Sn # 4
    coordinates: [  0.304852448509961,  0.813596494773163,  0.206998820789091 ]
    mass: 118.710000
    reduced_to: 1
  - symbol: Sn # 5
    coordinates: [  0.638185781843294,  0.813596494773163,  0.206998820789091 ]
    mass: 118.710000
    reduced_to: 1
  - symbol: Sn # 6
    coordinates: [  0.971519115176627,  0.813596494773163,  0.206998820789091 ]
    mass: 118.710000
    reduced_to: 1
  - symbol: Sn # 7
    coordinates: [  0.304852448509961,  0.313596494773163,  0.706998820789091 ]
    mass: 118.710000
    reduced_to: 1
  - symbol: Sn # 8
    coordinates: [  0.638185781843294,  0.313596494773163,  0.706998820789091 ]
    mass: 118.710000
    reduced_to: 1
  - symbol: Sn # 9
    coordinates: [  0.971519115176627,  0.313596494773163,  0.706998820789091 ]
    mass: 118.710000
    reduced_to: 1
  - symbol: Sn # 10
    coordinates: [  0.304852448509961,  0.813596494773163,  0.706998820789091 ]
    mass: 118.710000
    reduced_to: 1
  - symbol: Sn # 11
    coordinates: [  0.638185781843294,  0.813596494773163,  0.706998820789091 ]
    mass: 118.710000
    reduced_to: 1
  - symbol: Sn # 12
    coordinates: [  0.971519115176627,  0.813596494773163,  0.706998820789091 ]
    mass: 118.710000
    reduced_to: 1
  - symbol: Sn # 13
    coordinates: [  0.082763704213764,  0.314131248484143,  0.374127662136364 ]
    mass: 118.710000
    reduced_to: 13
  - symbol: Sn # 14
    coordinates: [  0.416097037547097,  0.314131248484143,  0.374127662136364 ]
    mass: 118.710000
    reduced_to: 13
  - symbol: Sn # 15
    coordinates: [  0.749430370880431,  0.314131248484143,  0.374127662136364 ]
    mass: 118.710000
    reduced_to: 13
  - symbol: Sn # 16
    coordinates: [  0.082763704213764,  0.814131248484143,  0.374127662136364 ]
    mass: 118.710000
    reduced_to: 13
  - symbol: Sn # 17
    coordinates: [  0.416097037547097,  0.814131248484143,  0.374127662136364 ]
    mass: 118.710000
    reduced_to: 13
  - symbol: Sn # 18
    coordinates: [  0.749430370880431,  0.814131248484143,  0.374127662136364 ]
    mass: 118.710000
    reduced_to: 13
  - symbol: Sn # 19
    coordinates: [  0.082763704213764,  0.314131248484143,  0.874127662136364 ]
    mass: 118.710000
    reduced_to: 13
  - symbol: Sn # 20
    coordinates: [  0.416097037547097,  0.314131248484143,  0.874127662136364 ]
    mass: 118.710000
    reduced_to: 13
  - symbol: Sn # 21
    coordinates: [  0.749430370880431,  0.314131248484143,  0.874127662136364 ]
    mass: 118.710000
    reduced_to: 13
  - symbol: Sn # 22
    coordinates: [  0.082763704213764,  0.814131248484143,  0.874127662136364 ]
    mass: 118.710000
    reduced_to: 13
  - symbol: Sn # 23
    coordinates: [  0.416097037547097,  0.814131248484143,  0.874127662136364 ]
    mass: 118.710000
    reduced_to: 13
  - symbol: Sn # 24
    coordinates: [  0.749430370880431,  0.814131248484143,  0.874127662136364 ]
    mass: 118.710000
    reduced_to: 13
  - symbol: Sn # 25
    coordinates: [  0.304787276480074,  0.480302588861583,  0.040048740267165 ]
    mass: 118.710000
    reduced_to: 25
  - symbol: Sn # 26
    coordinates: [  0.638120609813407,  0.480302588861583,  0.040048740267165 ]
    mass: 118.710000
    reduced_to: 25
  - symbol: Sn # 27
    coordinates: [  0.971453943146741,  0.480302588861583,  0.040048740267165 ]
    mass: 118.710000
    reduced_to: 25
  - symbol: Sn # 28
    coordinates: [  0.304787276480074,  0.980302588861583,  0.040048740267165 ]
    mass: 118.710000
    reduced_to: 25
  - symbol: Sn # 29
    coordinates: [  0.638120609813407,  0.980302588861583,  0.040048740267165 ]
    mass: 118.710000
    reduced_to: 25
  - symbol: Sn # 30
    coordinates: [  0.971453943146741,  0.980302588861583,  0.040048740267165 ]
    mass: 118.710000
    reduced_to: 25
  - symbol: Sn # 31
    coordinates: [  0.304787276480074,  0.480302588861583,  0.540048740267165 ]
    mass: 118.710000
    reduced_to: 25
  - symbol: Sn # 32
    coordinates: [  0.638120609813407,  0.480302588861583,  0.540048740267165 ]
    mass: 118.710000
    reduced_to: 25
  - symbol: Sn # 33
    coordinates: [  0.971453943146741,  0.480302588861583,  0.540048740267165 ]
    mass: 118.710000
    reduced_to: 25
  - symbol: Sn # 34
    coordinates: [  0.304787276480074,  0.980302588861583,  0.540048740267165 ]
    mass: 118.710000
    reduced_to: 25
  - symbol: Sn # 35
    coordinates: [  0.638120609813407,  0.980302588861583,  0.540048740267165 ]
    mass: 118.710000
    reduced_to: 25
  - symbol: Sn # 36
    coordinates: [  0.971453943146741,  0.980302588861583,  0.540048740267165 ]
    mass: 118.710000
    reduced_to: 25
  - symbol: Sn # 37
    coordinates: [  0.082366499401198,  0.480333503267637,  0.206917739876269 ]
    mass: 118.710000
    reduced_to: 37
  - symbol: Sn # 38
    coordinates: [  0.415699832734531,  0.480333503267637,  0.206917739876269 ]
    mass: 118.710000
    reduced_to: 37
  - symbol: Sn # 39
    coordinates: [  0.749033166067864,  0.480333503267637,  0.206917739876269 ]
    mass: 118.710000
    reduced_to: 37
  - symbol: Sn # 40
    coordinates: [  0.082366499401198,  0.980333503267637,  0.206917739876269 ]
    mass: 118.710000
    reduced_to: 37
  - symbol: Sn # 41
    coordinates: [  0.415699832734531,  0.980333503267637,  0.206917739876269 ]
    mass: 118.710000
    reduced_to: 37
  - symbol: Sn # 42
    coordinates: [  0.749033166067864,  0.980333503267637,  0.206917739876269 ]
    mass: 118.710000
    reduced_to: 37
  - symbol: Sn # 43
    coordinates: [  0.082366499401198,  0.480333503267637,  0.706917739876269 ]
    mass: 118.710000
    reduced_to: 37
  - symbol: Sn # 44
    coordinates: [  0.415699832734531,  0.480333503267637,  0.706917739876269 ]
    mass: 118.710000
    reduced_to: 37
  - symbol: Sn # 45
    coordinates: [  0.749033166067864,  0.480333503267637,  0.706917739876269 ]
    mass: 118.710000
    reduced_to: 37
  - symbol: Sn # 46
    coordinates: [  0.082366499401198,  0.980333503267637,  0.706917739876269 ]
    mass: 118.710000
    reduced_to: 37
  - symbol: Sn # 47
    coordinates: [  0.415699832734531,  0.980333503267637,  0.706917739876269 ]
    mass: 118.710000
    reduced_to: 37
  - symbol: Sn # 48
    coordinates: [  0.749033166067864,  0.980333503267637,  0.706917739876269 ]
    mass: 118.710000
    reduced_to: 37
  - symbol: Sn # 49
    coordinates: [  0.194187286643218,  0.480652518291874,  0.373689165209704 ]
    mass: 118.710000
    reduced_to: 49
  - symbol: Sn # 50
    coordinates: [  0.527520619976551,  0.480652518291874,  0.373689165209704 ]
    mass: 118.710000
    reduced_to: 49
  - symbol: Sn # 51
    coordinates: [  0.860853953309884,  0.480652518291874,  0.373689165209704 ]
    mass: 118.710000
    reduced_to: 49
  - symbol: Sn # 52
    coordinates: [  0.194187286643218,  0.980652518291874,  0.373689165209704 ]
    mass: 118.710000
    reduced_to: 49
  - symbol: Sn # 53
    coordinates: [  0.527520619976551,  0.980652518291874,  0.373689165209704 ]
    mass: 118.710000
    reduced_to: 49
  - symbol: Sn # 54
    coordinates: [  0.860853953309884,  0.980652518291874,  0.373689165209704 ]
    mass: 118.710000
    reduced_to: 49
  - symbol: Sn # 55
    coordinates: [  0.194187286643218,  0.480652518291874,  0.873689165209704 ]
    mass: 118.710000
    reduced_to: 49
  - symbol: Sn # 56
    coordinates: [  0.527520619976551,  0.480652518291874,  0.873689165209704 ]
    mass: 118.710000
    reduced_to: 49
  - symbol: Sn # 57
    coordinates: [  0.860853953309884,  0.480652518291874,  0.873689165209704 ]
    mass: 118.710000
    reduced_to: 49
  - symbol: Sn # 58
    coordinates: [  0.194187286643218,  0.980652518291874,  0.873689165209704 ]
    mass: 118.710000
    reduced_to: 49
  - symbol: Sn # 59
    coordinates: [  0.527520619976551,  0.980652518291874,  0.873689165209704 ]
    mass: 118.710000
    reduced_to: 49
  - symbol: Sn # 60
    coordinates: [  0.860853953309884,  0.980652518291874,  0.873689165209704 ]
    mass: 118.710000
    reduced_to: 49
  - symbol: Sn # 61
    coordinates: [  0.082225541304498,  0.147202748035386,  0.041181784909439 ]
    mass: 118.710000
    reduced_to: 61
  - symbol: Sn # 62
    coordinates: [  0.415558874637832,  0.147202748035386,  0.041181784909439 ]
    mass: 118.710000
    reduced_to: 61
  - symbol: Sn # 63
    coordinates: [  0.748892207971165,  0.147202748035386,  0.041181784909439 ]
    mass: 118.710000
    reduced_to: 61
  - symbol: Sn # 64
    coordinates: [  0.082225541304498,  0.647202748035386,  0.041181784909439 ]
    mass: 118.710000
    reduced_to: 61
  - symbol: Sn # 65
    coordinates: [  0.415558874637832,  0.647202748035386,  0.041181784909439 ]
    mass: 118.710000
    reduced_to: 61
  - symbol: Sn # 66
    coordinates: [  0.748892207971165,  0.647202748035386,  0.041181784909439 ]
    mass: 118.710000
    reduced_to: 61
  - symbol: Sn # 67
    coordinates: [  0.082225541304498,  0.147202748035386,  0.541181784909439 ]
    mass: 118.710000
    reduced_to: 61
  - symbol: Sn # 68
    coordinates: [  0.415558874637832,  0.147202748035386,  0.541181784909439 ]
    mass: 118.710000
    reduced_to: 61
  - symbol: Sn # 69
    coordinates: [  0.748892207971165,  0.147202748035386,  0.541181784909439 ]
    mass: 118.710000
    reduced_to: 61
  - symbol: Sn # 70
    coordinates: [  0.082225541304498,  0.647202748035386,  0.541181784909439 ]
    mass: 118.710000
    reduced_to: 61
  - symbol: Sn # 71
    coordinates: [  0.415558874637832,  0.647202748035386,  0.541181784909439 ]
    mass: 118.710000
    reduced_to: 61
  - symbol: Sn # 72
    coordinates: [  0.748892207971165,  0.647202748035386,  0.541181784909439 ]
    mass: 118.710000
    reduced_to: 61
  - symbol: Sn # 73
    coordinates: [  0.193501750144269,  0.147331390800954,  0.207131798020196 ]
    mass: 118.710000
    reduced_to: 73
  - symbol: Sn # 74
    coordinates: [  0.526835083477602,  0.147331390800954,  0.207131798020196 ]
    mass: 118.710000
    reduced_to: 73
  - symbol: Sn # 75
    coordinates: [  0.860168416810935,  0.147331390800954,  0.207131798020196 ]
    mass: 118.710000
    reduced_to: 73
  - symbol: Sn # 76
    coordinates: [  0.193501750144269,  0.647331390800954,  0.207131798020196 ]
    mass: 118.710000
    reduced_to: 73
  - symbol: Sn # 77
    coordinates: [  0.526835083477602,  0.647331390800954,  0.207131798020196 ]
    mass: 118.710000
    reduced_to: 73
  - symbol: Sn # 78
    coordinates: [  0.860168416810935,  0.647331390800954,  0.207131798020196 ]
    mass: 118.710000
    reduced_to: 73
  - symbol: Sn # 79
    coordinates: [  0.193501750144269,  0.147331390800954,  0.707131798020196 ]
    mass: 118.710000
    reduced_to: 73
  - symbol: Sn # 80
    coordinates: [  0.526835083477602,  0.147331390800954,  0.707131798020196 ]
    mass: 118.710000
    reduced_to: 73
  - symbol: Sn # 81
    coordinates: [  0.860168416810935,  0.147331390800954,  0.707131798020196 ]
    mass: 118.710000
    reduced_to: 73
  - symbol: Sn # 82
    coordinates: [  0.193501750144269,  0.647331390800954,  0.707131798020196 ]
    mass: 118.710000
    reduced_to: 73
  - symbol: Sn # 83
    coordinates: [  0.526835083477602,  0.647331390800954,  0.707131798020196 ]
    mass: 118.710000
    reduced_to: 73
  - symbol: Sn # 84
    coordinates: [  0.860168416810935,  0.647331390800954,  0.707131798020196 ]
    mass: 118.710000
    reduced_to: 73
  - symbol: Sn # 85
    coordinates: [  0.193290785766638,  0.314159632026992,  0.040970730377415 ]
    mass: 118.710000
    reduced_to: 85
  - symbol: Sn # 86
    coordinates: [  0.526624119099972,  0.314159632026992,  0.040970730377415 ]
    mass: 118.710000
    reduced_to: 85
  - symbol: Sn # 87
    coordinates: [  0.859957452433305,  0.314159632026992,  0.040970730377415 ]
    mass: 118.710000
    reduced_to: 85
  - symbol: Sn # 88
    coordinates: [  0.193290785766638,  0.814159632026992,  0.040970730377415 ]
    mass: 118.710000
    reduced_to: 85
  - symbol: Sn # 89
    coordinates: [  0.526624119099972,  0.814159632026992,  0.040970730377415 ]
    mass: 118.710000
    reduced_to: 85
  - symbol: Sn # 90
    coordinates: [  0.859957452433305,  0.814159632026992,  0.040970730377415 ]
    mass: 118.710000
    reduced_to: 85
  - symbol: Sn # 91
    coordinates: [  0.193290785766638,  0.314159632026992,  0.540970730377415 ]
    mass: 118.710000
    reduced_to: 85
  - symbol: Sn # 92
    coordinates: [  0.526624119099972,  0.314159632026992,  0.540970730377415 ]
    mass: 118.710000
    reduced_to: 85
  - symbol: Sn # 93
    coordinates: [  0.859957452433305,  0.314159632026992,  0.540970730377415 ]
    mass: 118.710000
    reduced_to: 85
  - symbol: Sn # 94
    coordinates: [  0.193290785766638,  0.814159632026992,  0.540970730377415 ]
    mass: 118.710000
    reduced_to: 85
  - symbol: Sn # 95
    coordinates: [  0.526624119099972,  0.814159632026992,  0.540970730377415 ]
    mass: 118.710000
    reduced_to: 85
  - symbol: Sn # 96
    coordinates: [  0.859957452433305,  0.814159632026992,  0.540970730377415 ]
    mass: 118.710000
    reduced_to: 85
  - symbol: Sn # 97
    coordinates: [  0.305113231083444,  0.146816215227729,  0.373883988062269 ]
    mass: 118.710000
    reduced_to: 97
  - symbol: Sn # 98
    coordinates: [  0.638446564416777,  0.146816215227729,  0.373883988062269 ]
    mass: 118.710000
    reduced_to: 97
  - symbol: Sn # 99
    coordinates: [  0.971779897750111,  0.146816215227729,  0.373883988062269 ]
    mass: 118.710000
    reduced_to: 97
  - symbol: Sn # 100
    coordinates: [  0.305113231083444,  0.646816215227729,  0.373883988062269 ]
    mass: 118.710000
    reduced_to: 97
  - symbol: Sn # 101
    coordinates: [  0.638446564416777,  0.646816215227729,  0.373883988062269 ]
    mass: 118.710000
    reduced_to: 97
  - symbol: Sn # 102
    coordinates: [  0.971779897750111,  0.646816215227729,  0.373883988062269 ]
    mass: 118.710000
    reduced_to: 97
  - symbol: Sn # 103
    coordinates: [  0.305113231083444,  0.146816215227729,  0.873883988062269 ]
    mass: 118.710000
    reduced_to: 97
  - symbol: Sn # 104
    coordinates: [  0.638446564416777,  0.146816215227729,  0.873883988062269 ]
    mass: 118.710000
    reduced_to: 97
  - symbol: Sn # 105
    coordinates: [  0.971779897750111,  0.146816215227729,  0.873883988062269 ]
    mass: 118.710000
    reduced_to: 97
  - symbol: Sn # 106
    coordinates: [  0.305113231083444,  0.646816215227729,  0.873883988062269 ]
    mass: 118.710000
    reduced_to: 97
  - symbol: Sn # 107
    coordinates: [  0.638446564416777,  0.646816215227729,  0.873883988062269 ]
    mass: 118.710000
    reduced_to: 97
  - symbol: Sn # 108
    coordinates: [  0.971779897750111,  0.646816215227729,  0.873883988062269 ]
    mass: 118.710000
    reduced_to: 97

displacements:
- atom:    1
  displacement:
    [   0.0100000000000000,  0.0000000000000000,  0.0000000000000000 ]
  forces:
  - [  -0.0123589280992746,  0.0011331383138895,  0.0076861395500600 ]
  - [   0.0012236637994647,  0.0011895771604031,  0.0076285367831588 ]
  - [   0.0011425492120907,  0.0011950116604567,  0.0076265465468168 ]
  - [   0.0006280223606154,  0.0011444769334048,  0.0076291421428323 ]
  - [   0.0006303542177193,  0.0012178199831396,  0.0076285158284009 ]
  - [   0.0006292399484664,  0.0012163992505521,  0.0076284403912723 ]
  - [   0.0006248477729969,  0.0011916680959985,  0.0075787696987391 ]
  - [   0.0006284564151429,  0.0011921632103622,  0.0076534124091268 ]
  - [   0.0006282833055593,  0.0011914481874555,  0.0076522212475538 ]
  - [   0.0006266812561080,  0.0011966889724135,  0.0076324720866978 ]
  - [   0.0006278407527134,  0.0011895024217665,  0.0076255202293396 ]
  - [   0.0006288566510193,  0.0011894784402102,  0.0076260454952717 ]
  - [  -0.0034971116110682, -0.0060620042495430, -0.0038472039159387 ]
  - [  -0.0035001598298550, -0.0060523366555572, -0.0002586566261016 ]
  - [  -0.0048547750338912, -0.0060567799955606, -0.0020553716458380 ]
  - [  -0.0047883228398860, -0.0060686096549034, -0.0020500505343080 ]
  - [  -0.0047898031771183, -0.0060690157115459, -0.0020632173400372 ]
  - [  -0.0048076817765832, -0.0060307378880680, -0.0020563739817590 ]
  - [  -0.0046755541115999, -0.0060562184080482, -0.0019144508987665 ]
  - [  -0.0050840293988585, -0.0060557657852769, -0.0020562789868563 ]
  - [  -0.0046759471297264, -0.0060565294697881, -0.0021961156744510 ]
  - [  -0.0047930446453393, -0.0060476232320070, -0.0020652597304434 ]
  - [  -0.0048000551760197, -0.0060715177096426, -0.0020568587351590 ]
  - [  -0.0047937179915607, -0.0060500674881041, -0.0020485860295594 ]
  - [   0.0032668167259544,  0.0043302555568516,  0.0018019572598860 ]
  - [   0.0040211966261268,  0.0045156856067479,  0.0016218973323703 ]
  - [   0.0040202909149230,  0.0041433647274971,  0.0019873469136655 ]
  - [   0.0036550492513925,  0.0044749770313501,  0.0019739605486393 ]
  - [   0.0036575517151505,  0.0041865347884595,  0.0016317812260240 ]
  - [   0.0036264688242227,  0.0043273973278701,  0.0018045232864097 ]
  - [   0.0036531677469611,  0.0045012999325991,  0.0019522353541106 ]
  - [   0.0036245153751224,  0.0043299547396600,  0.0018022044096142 ]
  - [   0.0036551833618432,  0.0041546900756657,  0.0016593297477812 ]
  - [   0.0036743169184774,  0.0043316152878106,  0.0018060009460896 ]
  - [   0.0036286935210228,  0.0043464764021337,  0.0017847251147032 ]
  - [   0.0036296346224844,  0.0043093911372125,  0.0018222709186375 ]
  - [   0.0072704073973000,  0.0003904190380126,  0.0042530982755125 ]
  - [   0.0073628933168948,  0.0040791351348162,  0.0042618215084076 ]
  - [   0.0059173451736569,  0.0021739099174738,  0.0042553134262562 ]
  - [   0.0060946904122829,  0.0023065421264619,  0.0042559308931231 ]
  - [   0.0056860214099288,  0.0021709720604122,  0.0042558060958982 ]
  - [   0.0061007551848888,  0.0020276445429772,  0.0042551853694022 ]
  - [   0.0059827873483300,  0.0021779118105769,  0.0042424756102264 ]
  - [   0.0059836115688086,  0.0021659557241946,  0.0042427130974829 ]
  - [   0.0059646628797054,  0.0021722214296460,  0.0042813648469746 ]
  - [   0.0059793535619974,  0.0021633282303810,  0.0042645172215998 ]
  - [   0.0059727458283305,  0.0021716416813433,  0.0042408206500113 ]
  - [   0.0059784492477775,  0.0021795094944537,  0.0042636310681701 ]
  - [  -0.0087483674287796, -0.0003649289719760, -0.0009301696554758 ]
  - [  -0.0080102263018489, -0.0001844111829996, -0.0007482011569664 ]
  - [  -0.0080090407282114, -0.0005513299256563, -0.0011153973173350 ]
  - [  -0.0083726365119219, -0.0002211123937741, -0.0011031785979867 ]
  - [  -0.0083695203065872, -0.0005144154420123, -0.0007562489481643 ]
  - [  -0.0084000816568732, -0.0003700818633661, -0.0009319883538410 ]
  - [  -0.0083726122975349, -0.0005407019052655, -0.0007828198140487 ]
  - [  -0.0083689233288169, -0.0001969307195395, -0.0010748559143394 ]
  - [  -0.0083991233259439, -0.0003701585810632, -0.0009320800891146 ]
  - [  -0.0083972271531820, -0.0003877804847434, -0.0009502954198979 ]
  - [  -0.0083516119047999, -0.0003673250030261, -0.0009300578967668 ]
  - [  -0.0083959614858031, -0.0003495596756693, -0.0009114478598349 ]
  - [   0.0013517378829420,  0.0005799156497233, -0.0092714913189411 ]
  - [   0.0006017072591931,  0.0003939464804716, -0.0094588007777929 ]
  - [   0.0013519446365535,  0.0002120407152688, -0.0096419183537364 ]
  - [   0.0009888573549688,  0.0002510347985663, -0.0092838667333126 ]
  - [   0.0009856666438282,  0.0005448674783111, -0.0096301026642323 ]
  - [   0.0009592503774911,  0.0003953817067668, -0.0094575807452202 ]
  - [   0.0009896166156977,  0.0005677280132659, -0.0095990262925625 ]
  - [   0.0009863197337836,  0.0002266352094011, -0.0093134474009275 ]
  - [   0.0009582623606548,  0.0003955179126933, -0.0094590801745653 ]
  - [   0.0010081250220537,  0.0003971527621616, -0.0094574429094791 ]
  - [   0.0009627600666136,  0.0003772997588385, -0.0094763226807117 ]
  - [   0.0009633933659643,  0.0004154820344411, -0.0094383507966995 ]
  - [   0.0027937390841544, -0.0002117661351804,  0.0052867038175464 ]
  - [   0.0028418838046491, -0.0039985147304833,  0.0053054671734571 ]
  - [   0.0013804710470140, -0.0020677815191448,  0.0052947127260268 ]
  - [   0.0011506911832839, -0.0020605889149010,  0.0052951457910240 ]
  - [   0.0015622824430466, -0.0019290415802971,  0.0052952431142330 ]
  - [   0.0015616451855749, -0.0022069178521633,  0.0052954712882638 ]
  - [   0.0014485935680568, -0.0020742136985064,  0.0052821980789304 ]
  - [   0.0014488487504423, -0.0020625584293157,  0.0052820825949311 ]
  - [   0.0014305291697383, -0.0020681119058281,  0.0053202821873128 ]
  - [   0.0014380752108991, -0.0020672343671322,  0.0052802520804107 ]
  - [   0.0014446380082518, -0.0020765229128301,  0.0053033567965031 ]
  - [   0.0014428277499974, -0.0020600082352757,  0.0053018941543996 ]
  - [   0.0034310584887862, -0.0055165048688650, -0.0059591336175799 ]
  - [   0.0034829478245229, -0.0055039348080754, -0.0097861457616091 ]
  - [   0.0020019211806357, -0.0055098971351981, -0.0078376680612564 ]
  - [   0.0020685957279056, -0.0055230888538063, -0.0078438911587000 ]
  - [   0.0020691922400147, -0.0055219437927008, -0.0078304177150130 ]
  - [   0.0020500691607594, -0.0054836487397552, -0.0078374184668064 ]
  - [   0.0017704601632431, -0.0055103874765337, -0.0078389048576355 ]
  - [   0.0021842378191650, -0.0055092331022024, -0.0076989671215415 ]
  - [   0.0021838925313205, -0.0055095618590713, -0.0079736262559891 ]
  - [   0.0020589127670974, -0.0055251359008253, -0.0078370468690991 ]
  - [   0.0020661903545260, -0.0055015152320266, -0.0078451866284013 ]
  - [   0.0020645023323596, -0.0055031701922417, -0.0078292861580849 ]
  - [  -0.0019152136519551,  0.0059091635048389,  0.0012987866066396 ]
  - [  -0.0011904630810022,  0.0057339249178767,  0.0014794399030507 ]
  - [  -0.0011869934387505,  0.0060946848243475,  0.0011163700837642 ]
  - [  -0.0015473533421755,  0.0060605662874877,  0.0014686862705275 ]
  - [  -0.0015746299177408,  0.0059109618887305,  0.0012990809045732 ]
  - [  -0.0015459954738617,  0.0057712960988283,  0.0011273021809757 ]
  - [  -0.0015477659180760,  0.0060834628529847,  0.0014427823480219 ]
  - [  -0.0015445612370968,  0.0057420162484050,  0.0011571543291211 ]
  - [  -0.0015723425894976,  0.0059150680899620,  0.0012962353648618 ]
  - [  -0.0015265864785761,  0.0059153502807021,  0.0013002967461944 ]
  - [  -0.0015711083542556,  0.0058942725881934,  0.0013153709005564 ]
  - [  -0.0015717898495495,  0.0059312460944057,  0.0012793065980077 ]
- atom:    1
  displacement:
    [  -0.0100000000000000,  0.0000000000000000,  0.0000000000000000 ]
  forces:
  - [   0.0136165302246809,  0.0012539620511234,  0.0075833271257579 ]
  - [   0.0001138708321378,  0.0011940962867811,  0.0076274718157947 ]
  - [   0.0000330361435772,  0.0011893019545823,  0.0076293093152344 ]
  - [   0.0006303469999693,  0.0012414064258337,  0.0076281148940325 ]
  - [   0.0006290870369412,  0.0011682810727507,  0.0076288990676403 ]
  - [   0.0006280966917984,  0.0011689567472786,  0.0076290024444461 ]
  - [   0.0006297578220256,  0.0011917859083042,  0.0076770586892962 ]
  - [   0.0006261205417104,  0.0011916799703613,  0.0076025957241654 ]
  - [   0.0006258054636419,  0.0011916735675186,  0.0076038828119636 ]
  - [   0.0006286870338954,  0.0011878616642207,  0.0076237320899963 ]
  - [   0.0006268739234656,  0.0011939217802137,  0.0076295863837004 ]
  - [   0.0006277766078711,  0.0011939830146730,  0.0076304087415338 ]
  - [  -0.0061418311670423, -0.0060516293160617, -0.0001957574859262 ]
  - [  -0.0060445591807365, -0.0060601402074099, -0.0037867075297982 ]
  - [  -0.0047363657504320, -0.0060560749843717, -0.0020550040062517 ]
  - [  -0.0048021241091192, -0.0060434881597757, -0.0020629013888538 ]
  - [  -0.0048009064048529, -0.0060425586998463, -0.0020495022181422 ]
  - [  -0.0047824797220528, -0.0060827508568764, -0.0020571590866894 ]
  - [  -0.0049203447997570, -0.0060567483305931, -0.0022011816035956 ]
  - [  -0.0045090895146132, -0.0060561839491129, -0.0020598785486072 ]
  - [  -0.0049156388267875, -0.0060551781207323, -0.0019189333543181 ]
  - [  -0.0047983517870307, -0.0060637556016445, -0.0020489555317909 ]
  - [  -0.0047916630282998, -0.0060409544967115, -0.0020569846965373 ]
  - [  -0.0047966288402677, -0.0060643935576081, -0.0020649263169616 ]
  - [   0.0040236907079816,  0.0043283314444125,  0.0018030947539955 ]
  - [   0.0032704914920032,  0.0041422098875046,  0.0019849627278745 ]
  - [   0.0032695047557354,  0.0045145088806748,  0.0016187379369512 ]
  - [   0.0036370924208313,  0.0041854688897729,  0.0016333046369255 ]
  - [   0.0036339622456580,  0.0044736424461007,  0.0019756415858865 ]
  - [   0.0036638358142227,  0.0043312329798937,  0.0018021768191829 ]
  - [   0.0036352195311338,  0.0041566863656044,  0.0016570792067796 ]
  - [   0.0036622986663133,  0.0043263239786029,  0.0018074087565765 ]
  - [   0.0036324074026197,  0.0045018140226603,  0.0019500654889271 ]
  - [   0.0036147772334516,  0.0043277340009809,  0.0018027159385383 ]
  - [   0.0036595254205167,  0.0043108630925417,  0.0018240110948682 ]
  - [   0.0036600341554731,  0.0043477341532707,  0.0017869987059385 ]
  - [   0.0046353512443602,  0.0040234318003058,  0.0042589083313942 ]
  - [   0.0046410956420004,  0.0003374388907105,  0.0042508551850915 ]
  - [   0.0060366196557879,  0.0021717604249716,  0.0042558964341879 ]
  - [   0.0058580301702023,  0.0020306226797402,  0.0042552980594337 ]
  - [   0.0062677259556949,  0.0021674069575965,  0.0042552510276437 ]
  - [   0.0058552687987685,  0.0023105354048312,  0.0042558512650430 ]
  - [   0.0059711993671954,  0.0021662376821041,  0.0042689731344581 ]