3
Lattice="3.9494385719299316 0.0 2.2731692790985107 1.3089610065980102 3.725582025358367 2.27448058128357 0.0 0.0 4.558347702026367" Properties=species:S:1:pos:R:3:forces:R:3 structure_index=0 total_energy=-9.494287490844727 stress="-0.01131223700940609 -0.017837191000580788 -0.01777542009949684 -0.01783731020987034 -0.004865881986916065 -0.010749266482889652 -0.01777562126517296 -0.010748821310698986 -0.036525290459394455" pbc="T T T"
Li       2.33321036       2.32030423       2.91418031       0.00195291       0.00092310       0.00289019
Ga       3.65228728       0.45663846       5.19092696      -0.00120859      -0.00053566       0.00169358
Sn       1.01789596       1.38835146       5.19586981      -0.00074433      -0.00038740      -0.00458377
8
Lattice="6.080702549436181 0.058230261085078595 -1.155751294107899 -3.280520725849361 4.740388826351554 -2.2549678831703335 0.10887628996141797 -0.10510852864870866 6.176247262977884" Properties=species:S:1:pos:R:3:forces:R:3 structure_index=1 total_energy=-26.969261169433594 stress="0.02971607632935047 0.002309424802660942 -0.004590413998812437 0.002309361007064581 0.01291283406317234 -0.039514414966106415 -0.004590353928506374 -0.0395144484937191 -0.01143585704267025" pbc="T T T"
Li      -1.68219218       3.88380163       3.18348125       0.01822695      -0.03147318      -0.02242195
Li       1.04683473       4.33654140      -0.17208681      -0.01739550       0.03061847       0.02379298
Ga       3.00715569       1.51743096       3.72324683      -0.00032315       0.01910344       0.00443289
Ga      -0.36129240       1.96364537       1.54561775       0.00209840      -0.02127148      -0.00663089
Sn       1.43723448       4.09436598       2.92761051       0.00763515       0.00299701       0.00550071
Sn       0.03908653       1.69501923       4.63247362      -0.00335730       0.00057760       0.00171296
Sn      -2.07309557       4.12586394       0.08375275      -0.00619477      -0.00254962      -0.00380851
Sn       2.60990214       1.78261162       0.63640285      -0.00068979       0.00199777      -0.00257820
8
Lattice="4.060595929674045 -0.000833272587065282 -0.000249346511249555 0.0007685176804754974 4.221834320411912 0.0012065261210367731 0.00045164826982541014 -0.002108603400601769 8.09458870229072" Properties=species:S:1:pos:R:3:forces:R:3 structure_index=2 total_energy=-22.97096824645996 stress="-0.009285674430429935 -7.218070823000744e-05 2.8829277653130703e-05 -7.228407048387453e-05 -0.026994947344064713 0.00027655623853206635 2.8777389161405154e-05 0.000276657025096938 0.043093785643577576" pbc="T T T"
Li       0.45000902       1.39128011       2.35936775      -0.00011128      -0.00024149      -0.01049218
Li       2.48040611       1.38946122       4.46668709      -0.00028095       0.00006934      -0.00011931
Li       0.45010553       1.39016702       6.56933484      -0.00002611      -0.00052652       0.01182177
Li       2.48024446       1.39168258       0.41546135      -0.00011171      -0.00021126       0.00136587
Ga       0.45009693       3.50306883       0.42053609       0.00016687      -0.00029862      -0.00214256
Ga       2.48078820       3.49982913       6.63611565      -0.00005057       0.00075513       0.02183564
Ga       2.48056933       3.50171477       2.29478097      -0.00004514       0.00003827      -0.02111442
Sn       0.44998265       3.50084263       4.46637469       0.00045886       0.00041518      -0.00115480
4
Lattice="4.282750930784751 0.00015021061141629543 -0.0007315553761887532 -0.0013885960083630474 4.28399323827226 -0.0015399292118158639 0.0001399043848486213 0.000293998549673531 4.358422681844692" Properties=species:S:1:pos:R:3:forces:R:3 structure_index=3 total_energy=-12.532876968383789 stress="-0.013072561472654343 -0.0018406345043331385 -0.0014258858282119036 -0.001840649638324976 -0.009827636182308197 -0.0029932870529592037 -0.001425941358320415 -0.0029933624900877476 0.04114817827939987" pbc="T T T"
Li       2.04889753       0.44009034       0.61391238      -0.00018742      -0.00001017      -0.00027754
Ga       4.19012469       0.44047572       2.79206500       0.00118049      -0.00029364       0.00020768
Ga       2.04988206       2.58249891       2.79193043      -0.00267215      -0.00016535      -0.00020600
Sn       4.18965328       2.58199605       0.61208464       0.00167907       0.00046915       0.00027586
9
Lattice="4.357512847621347 -0.004899886926539259 1.4221060406141857 2.1338089580139346 5.236171294591243 0.8528621092304278 -0.10667029876601108 0.2938925571046104 7.7420773646924825" Properties=species:S:1:pos:R:3:forces:R:3 structure_index=4 total_energy=-27.644947052001953 stress="-0.020713012665510178 0.0003964836650993675 -0.006994939409196377 0.00039650502731092274 -0.0023050608579069376 0.000532730424311012 -0.0069950721226632595 0.0005326321697793901 0.0004780814051628113" pbc="T T T"
Li       1.84357208       0.40184056       5.39388566      -0.00012537      -0.00002132       0.00032437
Li       1.07690760       2.28235321       7.75400483      -0.00218571      -0.00712930       0.00723528
Li       4.74217813       3.76038480       3.88910321       0.00270260       0.00736373      -0.00804705
Ga       3.13335965       4.09544129       8.83615744      -0.00485845       0.01895555       0.01653552
Ga       1.96279855       3.43047928       5.03226601      -0.00156606      -0.01611273       0.00308363
Ga       2.68700788       1.94687720       2.80427882       0.00552281      -0.01982545      -0.01850773
Ga       3.85916803       2.60992731       6.60712722       0.00066414       0.01693437      -0.00125804
Sn       3.38351225       0.25374055       8.06860706       0.00129897       0.01961458      -0.00456546
Sn       0.30237778       0.55315095       2.72118646      -0.00145295      -0.01977944       0.00519947
20
Lattice="4.548947876377767 -0.0022081788883631984 0.0006701865555854222 -2.2711943858659978 6.747935525491235 -0.46132106431822717 -0.001968387890283747 -0.17874222179668464 11.340906154824772" Properties=species:S:1:pos:R:3:forces:R:3 structure_index=5 total_energy=-54.833526611328125 stress="0.008167075924575329 4.931097646476701e-05 -5.901695476495661e-05 4.940839789924212e-05 0.012914578430354595 0.00290558859705925 -5.8935762353939936e-05 0.002905739936977625 0.009536352939903736" pbc="T T T"
Li       2.70348664       4.74316888       4.57362559      -0.00018026       0.01733815       0.01282410
Li       2.70210130       2.00233116       2.38951490       0.00014218      -0.00661064      -0.00600065
Li       2.70231456       4.74928736       7.49345774       0.00024514       0.00291531       0.00584775
Li       0.42785449       3.34282776       6.30152254       0.00019841      -0.01705685       0.01033679
Li       0.42708792       0.80465038       1.40942867      -0.00014670       0.00439614      -0.01469065
Li       0.43076249       6.05939385       2.79127285      -0.00073738       0.00697664      -0.00581344
Li       2.70132820       4.76166546      10.36257397       0.00041402      -0.00869107       0.03268914
Li       2.70134609       2.13320836       8.20993917       0.00000608       0.01045853       0.01481680
Li       0.42873210       3.60947537       0.62554561      -0.00000996      -0.00165038       0.00985513
Li       2.70403309       4.76684545       1.82355649       0.00013496       0.01268262       0.00519469
Li       0.42840349       6.22648467       8.41507886       0.00025507       0.03480759       0.00163347
Li       2.70297070       1.89918526       5.18825779      -0.00067355      -0.00926364      -0.00640391
Li       0.42566796       0.80893178      10.06784051      -0.00015534       0.01175596      -0.04189239
Ga       0.42935875       5.95977168       5.57032934       0.00034885      -0.02722687       0.00592927
Ga       2.70035422       2.01142364      10.98851418       0.00040114       0.00067680       0.01004060
Ga       0.42939231       6.38554700      -0.08038920       0.00073458      -0.04771373      -0.01075025
Ga       0.42799257       0.59999605       4.12871327      -0.00016156      -0.00573596      -0.01619030
Sn       0.42829311       3.32284796       3.43136963       0.00025471       0.02000996       0.01761274
Sn       0.42694611       0.61988857       7.10279439      -0.00103056       0.01093323      -0.01800575
Sn       0.42686830       3.58911446       9.21900099      -0.00003980      -0.00900181      -0.00703310
20
Lattice="4.768813180127688 -5.4082230054969136e-05 0.0012929972561967944 -0.0005090862933332566 6.121230155935946 0.6891536991551167 -0.005524381295250663 -0.039699664851216974 13.004758511481002" Properties=species:S:1:pos:R:3:forces:R:3 structure_index=6 total_energy=-59.7360725402832 stress="0.0033092652447521687 -2.783271156658884e-05 -0.0002231964754173532 -2.7817881345981732e-05 0.009323776699602604 0.0012318190420046449 -0.0002230369282187894 0.0012318395311012864 -0.0019892610143870115" pbc="T T T"
Li       1.07485732       2.32424763       2.29695298       0.00032232      -0.00190427       0.01202610
Li       1.07452794       2.93149343      10.03034968      -0.00020137       0.00229481       0.02743522
Li       1.07407931       6.02962243      10.33453215      -0.00024052      -0.00786443       0.01138656
Li       3.45721957       5.80210095      12.02212918       0.00002365       0.00513576      -0.01656739
Li       3.45934170       0.85026973       1.33051165       0.00029075       0.00502561      -0.01160698
Li       3.45917234       0.27491728       6.23228679      -0.00024281       0.00632652      -0.03252967
Li       1.07399471       0.51036016       4.56853148       0.00035996       0.01667819       0.00981785
Li       3.46063331       3.97535422       1.67468877      -0.00010586      -0.00700069      -0.01082939
Li       1.07370099       3.55959640       4.92241449       0.00037583      -0.01714666       0.01172009
Li       3.45906847       3.38133661       6.61904167      -0.00030459      -0.00443803      -0.02970942
Ga       3.45938781       1.52048010       9.02658674      -0.00064795       0.00990013       0.01138723
Ga       3.45729279       2.69873627      11.73986902      -0.00002768       0.00133109       0.00097517
Ga       1.07461824       4.78763151       7.60068911      -0.00015038      -0.00108875       0.00059981
Ga       3.45768754       5.19826087       4.20561305       0.00021568      -0.00031976      -0.00804459
Ga       1.07391107       5.37828111       2.68956851       0.00030373      -0.00257687       0.01948394
Sn       1.07183131       1.03393991      12.54375948       0.00005154       0.02325122       0.00549545
Sn       1.07486006       1.72239431       7.35521176      -0.00003610       0.01414264      -0.03408922
Sn       3.45877099       4.61233887       9.32471996      -0.00000588      -0.01193897       0.01195935
Sn       3.45869013       2.14060392       3.88108006       0.00001671      -0.00340432       0.02602084
Sn       1.07228072       4.16287133      12.92246063       0.00000299      -0.02640324      -0.00493094
12
Lattice="4.621820085715277 0.01731707536766021 -0.00032871741494067125 -0.01327325368383183 4.621712547440849 0.0005129612207696885 0.0026272484690941494 -0.0013247056830780234 9.969504685379043" Properties=species:S:1:pos:R:3:forces:R:3 structure_index=7 total_energy=-33.95732879638672 stress="-0.019458714872598648 0.004955871496349573 -7.428551725752186e-06 0.004955893382430077 -0.01941862143576145 -3.589906100387452e-06 -7.393517989839893e-06 -3.570637545635691e-06 -0.029652971774339676" pbc="T T T"
Li       4.32812665       3.51599744       2.95219007       0.00070762       0.00002133      -0.01373326
Li       2.02814580       1.19762907       2.95248209      -0.00041752       0.00041325      -0.01438889
Li       2.01741163       3.50946742       4.55262168       0.00045286      -0.00140223      -0.02686601
Li       4.34176741       1.20457100       1.38001636       0.00001410       0.00036782       0.01385542
Li       4.34149954       1.20378154       7.98597091      -0.00058789       0.00057812       0.01515550
Li       2.02846195       1.19738152       6.13911358      -0.00093682       0.00011587      -0.00271126
Li       4.32930066       3.51526143       6.13989624       0.00023496       0.00076237      -0.00375610
Ga       4.32822420       3.51410172       9.76193410       0.00114483      -0.00023214       0.00537314
Ga       2.03553465       1.19690056       9.76217600      -0.00143495       0.00000775       0.00495723
Ga       2.01598469       3.50874732       1.42122458       0.00015162      -0.00011280      -0.02921773
Sn       4.33842520       1.20510183       4.51386494       0.00004003      -0.00008850       0.01422524
Sn       2.01837372       3.50789181       7.84091051       0.00063118      -0.00043083       0.03710673
11
Lattice="4.3943196850459 0.0026577439153194376 -0.00237556448745891 -0.0035826719574528314 4.4545943340702845 -0.8096856335915967 0.012851952797766623 0.005904364100882599 12.729319964826946" Properties=species:S:1:pos:R:3:forces:R:3 structure_index=8 total_energy=-35.439971923828125 stress="0.023055564612150192 -0.0005321728531271219 1.4537223250954412e-05 -0.0005322283250279725 0.02002762258052826 -0.005607057362794876 1.4456986718869302e-05 -0.0056070866994559765 -0.009809175506234169" pbc="T T T"
Li       0.90420251       0.71305183       5.83399608       0.00015593      -0.00336111      -0.01837395
Li       3.09863111       4.34715745       0.50082762      -0.00011016       0.01014487       0.03326227
Li       3.10565964       1.11436631       8.01024322      -0.00169866      -0.00064080       0.00314668
Ga       0.90497101       0.19328247       2.94827060      -0.00093053      -0.00125882      -0.00729503
Ga       0.91240263       1.48070196      10.06005763      -0.00035587      -0.00842684      -0.04634705
Ga       3.11224457       1.82205012      11.94588696       0.00140277       0.00445469       0.04528618
Ga       3.10201904       0.40426201       4.15822398       0.00064535       0.00491979       0.02129107
Sn       3.09857686       2.93454204       5.41442873       0.00246922      -0.00375854      -0.02669268
Sn       3.10653444       3.75020613       9.89847621      -0.00073574       0.00252950      -0.00615512
Sn       0.90360970       3.31293638       7.46454148       0.00025577      -0.00427678      -0.02091401
Sn       0.90336267       2.12464150       0.91404742      -0.00109808      -0.00032594       0.02279166
10
Lattice="4.370573106330456 0.00014897527821242643 -1.1461646899600746 0.000937450156018258 5.9578432184585015 0.004214608326587866 -0.005152943517893425 0.00012660026274435778 8.891818592241375" Properties=species:S:1:pos:R:3:forces:R:3 structure_index=9 total_energy=-33.691619873046875 stress="-0.006531404796987772 2.7127936846227385e-05 0.009101915173232555 2.715746632020455e-05 -0.021627698093652725 5.622458047582768e-05 0.00910191424190998 5.624625555356033e-05 0.019192688167095184" pbc="T T T"
Li       0.35317022       2.70171338       8.65512682      -0.00330545      -0.00815358      -0.01545592
Li       0.35212528       5.54916409       8.65256853      -0.00264996       0.00741571      -0.01383130
Ga       2.21694169       4.12439881       6.84258172       0.00528012       0.00229973       0.03316393
Ga       2.88846773       4.12543020       0.51037672      -0.01032556      -0.00114317      -0.04078078
Ga       3.93715054       1.14490192       4.50668429       0.00317922      -0.00037252       0.01124231
Sn       1.27260479       1.14468848       3.25787740       0.01279380       0.00043947       0.04306334
Sn       2.94005280       1.14502934       0.70606452      -0.00065931       0.00058688       0.00104543
Sn       3.96509956       4.12394442       4.60544530      -0.00488878      -0.00007185      -0.02481322
Sn       1.14428364       4.12379484       2.76632350      -0.00636089       0.00035809      -0.02443876
Sn       2.17684559       1.14794987       6.69840688       0.00693679      -0.00135876       0.03080499
11
Lattice="4.546656464987315 0.0015437544498325911 0.0013901872451922768 -2.273414939741203 3.937700207425973 -0.0008494622772112151 -0.005466456612989615 0.0015214111546703586 11.513538514391875" Properties=species:S:1:pos:R:3:forces:R:3 structure_index=10 total_energy=-32.41106033325195 stress="-0.018330542370676994 0.0001176615187432617 -6.117906013969332e-05 0.00011782572255469859 -0.018209785223007202 1.0874170584429521e-05 -6.130933616077527e-05 1.0879236469918396e-05 -0.0005272290436550975" pbc="T T T"
Li       0.85738817       3.29067917       3.44287514      -0.00042893       0.00067087       0.00456235
Li       3.13014969       1.98131721      10.96655153      -0.00230478      -0.00005954      -0.00578469
Li       0.85324288       3.29546734       6.67144778       0.00088161      -0.00106475       0.04147045
Li       3.13050989       1.97861712       2.36924439       0.00080616       0.00029430      -0.02556558
Li       3.12739980       1.98239976       7.97870888       0.00069505      -0.00054078      -0.02246214
Ga       0.85848263       3.29109442       0.79383516       0.00084957       0.00004157      -0.01511482
Ga       0.85467866       3.29382388       9.69119868      -0.00001087      -0.00010732       0.02752193
Ga       3.12946741       1.97992461       5.29945811      -0.00042853       0.00017016       0.00999119
Ga       0.85812002       0.66516426       1.45607740       0.00015498       0.00046164      -0.00492632
Sn       0.85683630       0.66569262       4.42742452      -0.00041920       0.00046811      -0.01449871
Sn       0.85446875       0.66852802       8.79049434       0.00020492      -0.00033429       0.00480636
4
Lattice="4.226553565714758 9.94626727535459e-06 -0.0002147027801585957 -0.00021244135420080398 4.211226370350604 -0.00040491584901751135 1.0384886018682517e-05 3.6504105591751456e-05 4.213592570137897" Properties=species:S:1:pos:R:3:forces:R:3 structure_index=11 total_energy=-11.990667343139648 stress="-0.06096561625599861 -0.00015940626326482743 -0.00016181240789592266 -0.0001594666828168556 -0.0686609148979187 -0.0004824820498470217 -0.0001617866801097989 -0.00048250332474708557 -0.06040763854980469" pbc="T T T"
Li       0.29714904       2.72644043       3.03284563      -0.00059464      -0.00005268       0.00007292
Li       0.29749440       0.62074505       0.92639242      -0.00083503      -0.00000075      -0.00005774
Ga       2.41047605       0.62079709       3.03333190      -0.00003494      -0.00004980      -0.00044115
Sn       2.40959740       2.72632419       0.92586801       0.00146460       0.00010324       0.00042598
3
Lattice="3.841482400656352 0.0014530931850613802 2.2176921606117985 1.279804496500105 3.621181188512247 2.2169925174487686 0.0011418508469424405 0.0008407313797032258 4.434689368127183" Properties=species:S:1:pos:R:3:forces:R:3 structure_index=12 total_energy=-9.20054817199707 stress="0.06860310584306717 -0.01199039164930582 -0.011166151612997055 -0.011990300379693508 0.055633097887039185 -0.008602630347013474 -0.011166050098836422 -0.008602513931691647 0.03428685665130615" pbc="T T T"
Li       3.44704353       0.65575332       3.04892215      -0.00518747      -0.00057337      -0.00378194
Ga       3.44667182       3.37222530       7.48323890      -0.00041473      -0.00046240      -0.00073734
Sn       0.88352294       1.55945395       3.04600096       0.00560218       0.00103577       0.00451928
10
Lattice="4.301452696960214 0.0047868659670620714 -0.0006533476339785878 -2.155070585408227 4.67016333828492 -0.7660733673394673 -0.0038047745541325635 0.26870305256828503 8.580121868306966" Properties=species:S:1:pos:R:3:forces:R:3 structure_index=13 total_energy=-28.400508880615234 stress="-0.005199477542191744 -0.0005783469532616436 -0.003068344434723258 -0.0005783906672149897 0.025756197050213814 -0.007959018461406231 -0.003068514633923769 -0.007958730682730675 -0.015532725490629673" pbc="T T T"
Li      -1.58987573       3.82759380       1.37738221       0.00012864      -0.00498484       0.00598707
Li       0.55934280       4.68546712       2.85956895       0.00076328      -0.02484110       0.00489804
Li       2.71213000       2.85942787       4.07080525      -0.00030781      -0.01782069       0.00537787
Li       0.55957615       0.42810165       8.09291715       0.00075900       0.01682829       0.00357863
Li       2.70972536       2.17592277       6.96314101       0.00107346       0.01044588       0.00574016
Ga       0.55864937       3.94226881       5.74703004      -0.00001899      -0.03142165      -0.01213777
Ga       2.71326227       1.07774154       1.08678277       0.00002457       0.02923234      -0.01423536
Ga       0.56182818       1.93548564       2.32229609      -0.00000215       0.01791172       0.01320344
Ga       0.56198031       3.16832643      -0.19457403      -0.00085294       0.01651933      -0.01870029
Sn       0.56306960       1.04043546       5.16031652      -0.00156710      -0.01186929       0.00628821
20
Lattice="4.738663037086743 4.26995160912016e-05 -0.0011681715538113702 -0.0004690657398172113 7.618955613515087 -2.839687043389381 0.002829495456534389 0.15547755788407525 10.92010620124861" Properties=species:S:1:pos:R:3:forces:R:3 structure_index=14 total_energy=-62.02716827392578 stress="-0.0076782056130468845 1.0195830327575095e-05 -3.555703005986288e-05 1.0200913493463304e-05 -0.003305609105154872 -0.005830259528011084 -3.555110015440732e-05 -0.005830440204590559 -0.0016702209832146764" pbc="T T T"
Li       3.58435131       2.86936292       6.99634758      -0.00017861       0.00461754      -0.00701562
Li       1.21353256       6.73064624       1.61077690       0.00018056       0.00763420       0.00442800
Li       1.21385789       7.14021524       4.86481028       0.00031674       0.01911943       0.03710091
Li       1.21424173       3.23735838       0.59284518      -0.00040282      -0.01389951       0.00931171
Li       3.58294481       6.37654858       8.03316929       0.00041254       0.01897557      -0.01479676
Li       3.58396590       2.47059851       3.81783211      -0.00026506      -0.01641976      -0.04512367
Ga       1.21437595       4.70740039       7.01214107       0.00017563       0.01893196      -0.02105981
Ga       1.21535405       2.28685744       8.51418954      -0.00031302       0.02067291       0.00467313
Ga       3.58229422       1.54288485       0.88381389       0.00033553       0.00661390      -0.00803236
Ga       1.21479771       0.51079656      10.60842487       0.00002359       0.00546255       0.00626587
Ga       3.58359643       4.84522024       1.59787327      -0.00020657      -0.03483049       0.02912899
Ga       3.58207347       7.31916408       0.04652015       0.00033014      -0.02321273       0.00226261
Ga       1.21436839       1.92468953       5.56866381       0.00037326      -0.00878059       0.00658959
Ga       1.21378094       1.33911376       2.59300151      -0.00029783      -0.01925045       0.00071884
Ga       3.58383101       0.68086263       8.90581601       0.00040749       0.01619410       0.00283169
Sn       1.21217039       5.83983996      -1.10212064      -0.00000724      -0.00213411       0.00193995
Sn       3.58389266       0.19067697       5.87150947      -0.00054596      -0.00866763      -0.01492003
Sn       3.58247136       3.60912623      -1.23562160      -0.00013992       0.00811223       0.00405751
Sn       3.58380101       5.27781367       5.24438469      -0.00034966       0.01188915      -0.02296439
Sn       1.21433669       4.27866930       3.42388299       0.00015121      -0.01102827       0.02460384
10
Lattice="3.3973279925932935 -0.00015425808947452485 -6.42714485159779e-05 0.00012665961682091408 3.397303099164175 -0.0002039916403416783 0.0004278912593487038 0.0012277742229923273 17.050549909474604" Properties=species:S:1:pos:R:3:forces:R:3 structure_index=15 total_energy=-31.547386169433594 stress="-0.006742512807250023 -8.241039176937193e-05 5.0272850785404444e-05 -8.241076284321025e-05 -0.00681386049836874 0.00014083628775551915 5.021143806516193e-05 0.00014087589806877077 0.026382096111774445" pbc="T T T"
Li       1.57047689       2.63897206      12.72262243      -0.00001934       0.00026899       0.03202756
Li       1.56991423       2.63826349       6.31538066       0.00075171      -0.00000648       0.00464514
Li       1.57106642       2.63895189       9.83297561      -0.00015225       0.00017475      -0.02873444
Li       1.56909306       2.63787756       2.76893954       0.00131819      -0.00005612      -0.00650291
Li       1.56932552       2.63836542      16.25414067       0.00099177       0.00045637      -0.00633769
Ga       3.26926500       0.94073843      11.28106132       0.00012700      -0.00063996      -0.00221099
Sn       3.26885391       0.94018838      14.44236590      -0.00026313      -0.00016564       0.00143973
Sn       3.26881435       0.93898210       1.00411131      -0.00125540      -0.00020099      -0.02346892
Sn       3.26960142       0.93992828       8.11528950      -0.00048853       0.00000603       0.00618782
Sn       3.26904371       0.93918925       4.52269449      -0.00101002       0.00016305       0.02295467
8
Lattice="5.349982491422732 0.1942787642939495 -0.013502470135375042 -2.161339804694386 4.897911449113149 -0.013980355284546683 0.019433156805274937 0.03182680115272947 6.0048816853854525" Properties=species:S:1:pos:R:3:forces:R:3 structure_index=16 total_energy=-25.041616439819336 stress="-0.028763392940163612 0.005476002115756273 0.0043089380487799644 0.005476011428982019 -0.023290393874049187 0.007140759378671646 0.004308964591473341 0.0071407281793653965 -0.0209007877856493" pbc="T T T"
Li       0.90768367       0.06089082       4.85173056      -0.00477311       0.00258733       0.00004691
Li       2.45950417       2.61153660       1.83528443       0.00428843      -0.00272376       0.00002753
Ga       3.56060661       0.15435384       0.34145111       0.00707255       0.00889253      -0.00069700
Ga      -0.21378918       2.48519850       0.34000921      -0.00047833      -0.01210175       0.00066715
Ga       3.56871366       0.17270557       3.34381676       0.00894467       0.00667659       0.00009417
Ga      -0.20139965       2.50075368       3.34250102      -0.00287452      -0.01153610       0.00123306
Sn      -1.24468652       4.93193089       1.83550392      -0.04429744       0.02775481      -0.00096665
Sn       2.45610077       2.63447407       4.83784083       0.03211775      -0.01954966      -0.00040517
15
Lattice="6.365651060343288 0.11042358442814226 3.3769550380615216 2.415760917387364 6.051010546836732 3.7627614859441056 -0.06031743159614462 0.19845120241342723 6.96941639651336" Properties=species:S:1:pos:R:3:forces:R:3 structure_index=17 total_energy=-42.730308532714844 stress="0.004630910698324442 -0.0009917124407365918 -0.00023931462783366442 -0.0009916627313941717 0.005697844084352255 -0.00046187813859432936 -0.00023917030193842947 -0.0004618939128704369 0.0031277646776288748" pbc="T T T"
Li       4.42266317       5.04666466       4.74331823      -0.00053490       0.00690121       0.01546487
Li       6.04946314       5.86583331       9.49012343      -0.01140044      -0.01065475       0.00473090
Li       2.00324717       4.13118612       6.17139307      -0.01472850      -0.00226334       0.00011169
Li       5.48651876       2.96362358      10.10653135      -0.01914866       0.00325883      -0.01998134
Li       4.94877333       0.90178983       7.94691140       0.00970886      -0.03375924       0.01099250
Li       6.81978461       1.33529751       5.98466102       0.01125910      -0.02252701       0.00715063
Ga       2.26886153       1.97143380       7.66244830      -0.00144712      -0.00630876      -0.00094509
Ga       6.23488667       3.54197740       7.59494063       0.01665339      -0.00363789       0.01811817
Ga       1.31602542       1.27464195       5.25529557      -0.01216201      -0.00250240      -0.00277080
Ga       3.02525459       0.51526168       3.04339180       0.02797626       0.01816268      -0.01254629
Ga       4.30837778       2.58706511       5.81288262       0.00117162      -0.01705689      -0.00695688
Ga       3.75997206       4.60177042       8.19627210       0.00157785       0.01539462      -0.02655999
Ga       2.75295603       3.12129594       3.51176358      -0.00363176       0.04978550      -0.00172207
Ga       7.01197139       4.21933099      12.00906875      -0.00982714      -0.00305849       0.00017310
Sn       8.12938599       6.01531362       7.39821086       0.00453346       0.00826593       0.01474061
4
Lattice="4.295651571698384 0.00014443845792235256 -0.0006521633490955682 -0.001302084769851556 4.295203885104374 -0.0017860822632132364 0.00012317976401077257 0.00033764260262085743 4.337156088451113" Properties=species:S:1:pos:R:3:forces:R:3 structure_index=18 total_energy=-12.532916069030762 stress="0.015190351754426956 -0.0017602713778614998 -0.0012711656745523214 -0.0017602427396923304 0.014024253934621811 -0.0034829420037567616 -0.001271141110919416 -0.00348299159668386 -0.0069238003343343735" pbc="T T T"
Li       0.52149811       3.68254242       0.16120871      -0.00001496       0.00001926       0.00047737
Ga       0.52186901       1.53528367       2.33161644       0.00050135       0.00025550       0.00027559
Ga       2.66926376       3.68350983       2.33039027      -0.00007417      -0.00106185       0.00029387
Sn       2.66998505       1.53504413       0.16319153      -0.00041222       0.00078709      -0.00104683
12