phonopy:
  version: "2.37.1"
  frequency_unit_conversion_factor: 15.633302
  symmetry_tolerance: 1.00000e-05

space_group:
  type: "P-3m1"
  number: 164
  Hall_symbol: "-P 3 2\""

primitive_matrix:
- [  1.000000000000000,  0.000000000000000,  0.000000000000000 ]
- [  0.000000000000000,  1.000000000000000,  0.000000000000000 ]
- [  0.000000000000000,  0.000000000000000,  1.000000000000000 ]

supercell_matrix:
- [   3,   0,   0 ]
- [   0,   3,   0 ]
- [   0,   0,   2 ]

primitive_cell:
  lattice:
  - [     3.370142102238410,     0.000000000000000,     0.000000000000000 ] # a
  - [    -1.685070729383187,     2.918629141007134,     0.000000000000000 ] # b
  - [     0.000000159524446,     0.000000741987303,     7.402681257549984 ] # c
  points:
  - symbol: Li # 1
    coordinates: [  0.000000000611536,  0.000000003425817,  0.999999990916596 ]
    mass: 6.940000
  - symbol: Sn # 2
    coordinates: [  0.333333350319955,  0.666666716649826,  0.684437725041703 ]
    mass: 118.710000
  - symbol: Sn # 3
    coordinates: [  0.666666649378391,  0.333333280096583,  0.315562284026538 ]
    mass: 118.710000
  reciprocal_lattice: # without 2pi
  - [     0.296723393157758,     0.171313270846347,    -0.000000023565368 ] # a*
  - [     0.000000000000000,     0.342626607111491,    -0.000000034342231 ] # b*
  - [     0.000000000000000,     0.000000000000000,     0.135086189072385 ] # c*

unit_cell:
  lattice:
  - [     3.370142102238410,     0.000000000000000,     0.000000000000000 ] # a
  - [    -1.685070729383188,     2.918629141007134,     0.000000000000000 ] # b
  - [     0.000000159524446,     0.000000741987303,     7.402681257549984 ] # c
  points:
  - symbol: Li # 1
    coordinates: [  0.000000000611536,  0.000000003425817,  0.999999990916596 ]
    mass: 6.940000
    reduced_to: 1
  - symbol: Sn # 2
    coordinates: [  0.333333350319956,  0.666666716649826,  0.684437725041703 ]
    mass: 118.710000
    reduced_to: 2
  - symbol: Sn # 3
    coordinates: [  0.666666649378391,  0.333333280096583,  0.315562284026538 ]
    mass: 118.710000
    reduced_to: 3

supercell:
  lattice:
  - [    10.110426306715230,     0.000000000000000,     0.000000000000000 ] # a
  - [    -5.055212188149564,     8.755887423021402,     0.000000000000000 ] # b
  - [     0.000000319048893,     0.000001483974605,    14.805362515099969 ] # c
  points:
  - symbol: Li # 1
    coordinates: [  0.000000000203845,  0.000000001141939,  0.499999995458298 ]
    mass: 6.940000
    reduced_to: 1
  - symbol: Li # 2
    coordinates: [  0.333333333537179,  0.000000001141939,  0.499999995458298 ]
    mass: 6.940000
    reduced_to: 1
  - symbol: Li # 3
    coordinates: [  0.666666666870512,  0.000000001141939,  0.499999995458298 ]
    mass: 6.940000
    reduced_to: 1
  - symbol: Li # 4
    coordinates: [  0.000000000203845,  0.333333334475272,  0.499999995458298 ]
    mass: 6.940000
    reduced_to: 1
  - symbol: Li # 5
    coordinates: [  0.333333333537179,  0.333333334475272,  0.499999995458298 ]
    mass: 6.940000
    reduced_to: 1
  - symbol: Li # 6
    coordinates: [  0.666666666870512,  0.333333334475272,  0.499999995458298 ]
    mass: 6.940000
    reduced_to: 1
  - symbol: Li # 7
    coordinates: [  0.000000000203845,  0.666666667808606,  0.499999995458298 ]
    mass: 6.940000
    reduced_to: 1
  - symbol: Li # 8
    coordinates: [  0.333333333537179,  0.666666667808606,  0.499999995458298 ]
    mass: 6.940000
    reduced_to: 1
  - symbol: Li # 9
    coordinates: [  0.666666666870512,  0.666666667808606,  0.499999995458298 ]
    mass: 6.940000
    reduced_to: 1
  - symbol: Li # 10
    coordinates: [  0.000000000203845,  0.000000001141939,  0.999999995458298 ]
    mass: 6.940000
    reduced_to: 1
  - symbol: Li # 11
    coordinates: [  0.333333333537179,  0.000000001141939,  0.999999995458298 ]
    mass: 6.940000
    reduced_to: 1
  - symbol: Li # 12
    coordinates: [  0.666666666870512,  0.000000001141939,  0.999999995458298 ]
    mass: 6.940000
    reduced_to: 1
  - symbol: Li # 13
    coordinates: [  0.000000000203845,  0.333333334475272,  0.999999995458298 ]
    mass: 6.940000
    reduced_to: 1
  - symbol: Li # 14
    coordinates: [  0.333333333537179,  0.333333334475272,  0.999999995458298 ]
    mass: 6.940000
    reduced_to: 1
  - symbol: Li # 15
    coordinates: [  0.666666666870512,  0.333333334475272,  0.999999995458298 ]
    mass: 6.940000
    reduced_to: 1
  - symbol: Li # 16
    coordinates: [  0.000000000203845,  0.666666667808606,  0.999999995458298 ]
    mass: 6.940000
    reduced_to: 1
  - symbol: Li # 17
    coordinates: [  0.333333333537179,  0.666666667808606,  0.999999995458298 ]
    mass: 6.940000
    reduced_to: 1
  - symbol: Li # 18
    coordinates: [  0.666666666870512,  0.666666667808606,  0.999999995458298 ]
    mass: 6.940000
    reduced_to: 1
  - symbol: Sn # 19
    coordinates: [  0.111111116773319,  0.222222238883275,  0.342218862520852 ]
    mass: 118.710000
    reduced_to: 19
  - symbol: Sn # 20
    coordinates: [  0.444444450106652,  0.222222238883275,  0.342218862520852 ]
    mass: 118.710000
    reduced_to: 19
  - symbol: Sn # 21
    coordinates: [  0.777777783439985,  0.222222238883275,  0.342218862520852 ]
    mass: 118.710000
    reduced_to: 19
  - symbol: Sn # 22
    coordinates: [  0.111111116773319,  0.555555572216608,  0.342218862520852 ]
    mass: 118.710000
    reduced_to: 19
  - symbol: Sn # 23
    coordinates: [  0.444444450106652,  0.555555572216608,  0.342218862520852 ]
    mass: 118.710000
    reduced_to: 19
  - symbol: Sn # 24
    coordinates: [  0.777777783439985,  0.555555572216608,  0.342218862520852 ]
    mass: 118.710000
    reduced_to: 19
  - symbol: Sn # 25
    coordinates: [  0.111111116773319,  0.888888905549942,  0.342218862520852 ]
    mass: 118.710000
    reduced_to: 19
  - symbol: Sn # 26
    coordinates: [  0.444444450106652,  0.888888905549942,  0.342218862520852 ]
    mass: 118.710000
    reduced_to: 19
  - symbol: Sn # 27
    coordinates: [  0.777777783439985,  0.888888905549942,  0.342218862520852 ]
    mass: 118.710000
    reduced_to: 19
  - symbol: Sn # 28
    coordinates: [  0.111111116773319,  0.222222238883275,  0.842218862520852 ]
    mass: 118.710000
    reduced_to: 19
  - symbol: Sn # 29
    coordinates: [  0.444444450106652,  0.222222238883275,  0.842218862520852 ]
    mass: 118.710000
    reduced_to: 19
  - symbol: Sn # 30
    coordinates: [  0.777777783439985,  0.222222238883275,  0.842218862520852 ]
    mass: 118.710000
    reduced_to: 19
  - symbol: Sn # 31
    coordinates: [  0.111111116773319,  0.555555572216608,  0.842218862520852 ]
    mass: 118.710000
    reduced_to: 19
  - symbol: Sn # 32
    coordinates: [  0.444444450106652,  0.555555572216608,  0.842218862520852 ]
    mass: 118.710000
    reduced_to: 19
  - symbol: Sn # 33
    coordinates: [  0.777777783439985,  0.555555572216608,  0.842218862520852 ]
    mass: 118.710000
    reduced_to: 19
  - symbol: Sn # 34
    coordinates: [  0.111111116773319,  0.888888905549942,  0.842218862520852 ]
    mass: 118.710000
    reduced_to: 19
  - symbol: Sn # 35
    coordinates: [  0.444444450106652,  0.888888905549942,  0.842218862520852 ]
    mass: 118.710000
    reduced_to: 19
  - symbol: Sn # 36
    coordinates: [  0.777777783439985,  0.888888905549942,  0.842218862520852 ]
    mass: 118.710000
    reduced_to: 19
  - symbol: Sn # 37
    coordinates: [  0.222222216459464,  0.111111093365528,  0.157781142013269 ]
    mass: 118.710000
    reduced_to: 37
  - symbol: Sn # 38
    coordinates: [  0.555555549792797,  0.111111093365528,  0.157781142013269 ]
    mass: 118.710000
    reduced_to: 37
  - symbol: Sn # 39
    coordinates: [  0.888888883126130,  0.111111093365528,  0.157781142013269 ]
    mass: 118.710000
    reduced_to: 37
  - symbol: Sn # 40
    coordinates: [  0.222222216459464,  0.444444426698861,  0.157781142013269 ]
    mass: 118.710000
    reduced_to: 37
  - symbol: Sn # 41
    coordinates: [  0.555555549792797,  0.444444426698861,  0.157781142013269 ]
    mass: 118.710000
    reduced_to: 37
  - symbol: Sn # 42
    coordinates: [  0.888888883126130,  0.444444426698861,  0.157781142013269 ]
    mass: 118.710000
    reduced_to: 37
  - symbol: Sn # 43
    coordinates: [  0.222222216459464,  0.777777760032194,  0.157781142013269 ]
    mass: 118.710000
    reduced_to: 37
  - symbol: Sn # 44
    coordinates: [  0.555555549792797,  0.777777760032194,  0.157781142013269 ]
    mass: 118.710000
    reduced_to: 37
  - symbol: Sn # 45
    coordinates: [  0.888888883126130,  0.777777760032194,  0.157781142013269 ]
    mass: 118.710000
    reduced_to: 37
  - symbol: Sn # 46
    coordinates: [  0.222222216459464,  0.111111093365528,  0.657781142013269 ]
    mass: 118.710000
    reduced_to: 37
  - symbol: Sn # 47
    coordinates: [  0.555555549792797,  0.111111093365528,  0.657781142013269 ]
    mass: 118.710000
    reduced_to: 37
  - symbol: Sn # 48
    coordinates: [  0.888888883126130,  0.111111093365528,  0.657781142013269 ]
    mass: 118.710000
    reduced_to: 37
  - symbol: Sn # 49
    coordinates: [  0.222222216459464,  0.444444426698861,  0.657781142013269 ]
    mass: 118.710000
    reduced_to: 37
  - symbol: Sn # 50
    coordinates: [  0.555555549792797,  0.444444426698861,  0.657781142013269 ]
    mass: 118.710000
    reduced_to: 37
  - symbol: Sn # 51
    coordinates: [  0.888888883126130,  0.444444426698861,  0.657781142013269 ]
    mass: 118.710000
    reduced_to: 37
  - symbol: Sn # 52
    coordinates: [  0.222222216459464,  0.777777760032194,  0.657781142013269 ]
    mass: 118.710000
    reduced_to: 37
  - symbol: Sn # 53
    coordinates: [  0.555555549792797,  0.777777760032194,  0.657781142013269 ]
    mass: 118.710000
    reduced_to: 37
  - symbol: Sn # 54
    coordinates: [  0.888888883126130,  0.777777760032194,  0.657781142013269 ]
    mass: 118.710000
    reduced_to: 37

displacements:
- atom:    1
  displacement:
    [   0.0056394062431055,  0.0000000008277332,  0.0082581533786448 ]
  forces:
  - [  -0.0076221600174904, -0.0000002011526021, -0.0224092043936253 ]
  - [   0.0008477594237775, -0.0001124471091316,  0.0001065454198397 ]
  - [   0.0008418370271102, -0.0001135698985308,  0.0001061477232724 ]
  - [   0.0003259258810431, -0.0003029620565940,  0.0001720734871924 ]
  - [   0.0001253376540262,  0.0004120958037674,  0.0000381957725040 ]
  - [   0.0001006641177810,  0.0000009359791875,  0.0000175953900907 ]
  - [   0.0003217197954655, -0.0002992015506607,  0.0001729790965328 ]
  - [   0.0001017069444060, -0.0000005646761565,  0.0000163597142091 ]
  - [   0.0001290747895837,  0.0004167581209913,  0.0000384592567571 ]
  - [   0.0000264163409156,  0.0000000250074663, -0.0001822462363634 ]
  - [  -0.0000139299081638, -0.0000147382188516, -0.0000512655497005 ]
  - [  -0.0000120529002743, -0.0000150221167132, -0.0000496114371344 ]
  - [   0.0000126811437440,  0.0000138520226756, -0.0000412516274082 ]
  - [  -0.0000140310503411, -0.0000001031439751, -0.0000592058422626 ]
  - [   0.0000019672079361,  0.0000002854503691,  0.0000152124375745 ]
  - [   0.0000113714486361,  0.0000147463542817, -0.0000416627117374 ]
  - [   0.0000025946646929, -0.0000002215856512,  0.0000162421347341 ]
  - [  -0.0000137081369758,  0.0000012516939023, -0.0000583921355428 ]
  - [  -0.0001932486629812, -0.0030990373343229, -0.0014886856079102 ]
  - [   0.0001005125232041,  0.0000818320550025, -0.0055069476366043 ]
  - [  -0.0000372938302462,  0.0000006174668670, -0.0056167617440224 ]
  - [   0.0000660475343466, -0.0000768522731960, -0.0056074410676956 ]
  - [  -0.0000062894541770,  0.0001192365307361, -0.0056424438953400 ]
  - [  -0.0000394027447328, -0.0000802965369076, -0.0055624917149544 ]
  - [  -0.0016000289469957,  0.0008100031409413, -0.0031612440943718 ]
  - [   0.0001994093181565, -0.0000422818120569, -0.0056269764900208 ]
  - [   0.0037576416507363,  0.0022787514608353,  0.0001587495207787 ]
  - [   0.0000451430278190, -0.0000778047833592, -0.0057572796940804 ]
  - [  -0.0001682377624093, -0.0001233119983226, -0.0056277588009834 ]
  - [   0.0001523637620267, -0.0000623799860477, -0.0055699720978737 ]
  - [   0.0000365350861102,  0.0000262550311163, -0.0055821835994720 ]
  - [  -0.0000668568536639,  0.0000356419477612, -0.0056163594126701 ]
  - [   0.0000447381171398,  0.0001854825532064, -0.0055977404117584 ]
  - [  -0.0000375097952201,  0.0000497468281537, -0.0057114288210869 ]
  - [  -0.0000065126223490, -0.0000577475875616, -0.0055984184145927 ]
  - [   0.0000959130702540,  0.0000300070969388, -0.0058022513985634 ]
  - [   0.0000967289670371,  0.0000270223245025,  0.0052924975752831 ]
  - [  -0.0000075125135481, -0.0000589255942032,  0.0055001005530357 ]
  - [  -0.0000428888015449,  0.0000528235686943,  0.0053696036338806 ]
  - [   0.0000428855419159,  0.0001739896833897,  0.0055063888430595 ]
  - [  -0.0000641786027700,  0.0000329378526658,  0.0054841637611389 ]
  - [   0.0000358847901225,  0.0000243282411247,  0.0055171772837639 ]
  - [   0.0001472011208534, -0.0000600855564699,  0.0055332109332085 ]
  - [  -0.0001549436565256, -0.0001149366144091,  0.0054843574762344 ]
  - [   0.0000485274940729, -0.0000806072494015,  0.0053319036960602 ]
  - [   0.0039140270091593,  0.0023854568134993,  0.0114535838365555 ]
  - [   0.0002069547772408, -0.0000439055729657,  0.0054741874337196 ]
  - [  -0.0016135168261826,  0.0008088288595900,  0.0079238712787628 ]
  - [  -0.0000418651616201, -0.0000735282665119,  0.0055390819907188 ]
  - [  -0.0000042363535613,  0.0001230876659974,  0.0054551288485527 ]
  - [   0.0000678377691656, -0.0000783929135650,  0.0054915919899940 ]
  - [  -0.0000298786908388, -0.0000100837787613,  0.0054824873805046 ]
  - [   0.0000992098939605,  0.0000793535728008,  0.0055950358510017 ]
  - [  -0.0002163448370993, -0.0031861260067672,  0.0096763074398041 ]
- atom:   19
  displacement:
    [   0.0056394062431055,  0.0000000008277332,  0.0082581533786448 ]
  forces:
  - [  -0.0002161018201150, -0.0029379108455032,  0.0041299443691969 ]
  - [  -0.0000483229523525,  0.0000049652735470, -0.0000554314319743 ]
  - [   0.0001144340494648,  0.0000899968435988,  0.0000360105186701 ]
  - [  -0.0014038344379514,  0.0006891016382724,  0.0022296716924757 ]
  - [   0.0036986845079809,  0.0022636472713202,  0.0060586575418711 ]
  - [   0.0002026541769737, -0.0000285669229925, -0.0000743130876799 ]
  - [   0.0000560227781534, -0.0000848780618981, -0.0000489196972921 ]
  - [  -0.0000404836609960, -0.0000950598914642, -0.0000108419044409 ]
  - [   0.0000058868899941,  0.0001133869009209, -0.0000979585456662 ]
  - [   0.0000441495394625,  0.0000705333004589, -0.0002130734210368 ]
  - [   0.0000335865188390,  0.0000051113993322,  0.0000575527155888 ]
  - [  -0.0000397926487494, -0.0000479061855003, -0.0001486518885940 ]
  - [   0.0000873089520610, -0.0000248388896580, -0.0002581717562862 ]
  - [  -0.0000344484360539, -0.0000457174610347, -0.0001670758647379 ]
  - [  -0.0000047848807299, -0.0000272279139608, -0.0000484532101837 ]
  - [   0.0000101979821920,  0.0000080923018686, -0.0000137875977089 ]
  - [   0.0000427560880780,  0.0000434533249063, -0.0000464216500404 ]
  - [  -0.0000383071601391,  0.0000194576859940, -0.0000844266032800 ]
  - [  -0.0094253979623318, -0.0000110827386379, -0.0253793373703957 ]
  - [   0.0017946645384654,  0.0000741311814636, -0.0052494481205940 ]
  - [   0.0042499406263232, -0.0002986656036228, -0.0069513469934464 ]
  - [   0.0010114046745002, -0.0024357112124562, -0.0064596906304359 ]
  - [  -0.0004529303405434,  0.0003680589143187, -0.0057426393032074 ]
  - [   0.0001509157009423, -0.0000016100239009, -0.0056257769465446 ]
  - [  -0.0002580479194876, -0.0006215879693627, -0.0056112706661224 ]
  - [   0.0001511498121545,  0.0000018146820366, -0.0056274011731148 ]
  - [   0.0008097838144749,  0.0029144380241632, -0.0065950378775597 ]
  - [   0.0000215232903429, -0.0000003331806511, -0.0056877806782722 ]
  - [  -0.0000279468185909, -0.0000098195159808, -0.0055645033717155 ]
  - [   0.0000062949893618, -0.0000142399221659, -0.0055877044796944 ]
  - [   0.0000151009298861, -0.0000013139797375, -0.0055749863386154 ]
  - [  -0.0000234951730818, -0.0000142898643389, -0.0055774822831154 ]
  - [   0.0000080538156908,  0.0000000693835318, -0.0055191442370415 ]
  - [  -0.0000009509634538,  0.0000239841174334, -0.0055626779794693 ]
  - [   0.0000076681608334,  0.0000015986151993, -0.0055189654231071 ]
  - [  -0.0000050988746807,  0.0000209267018363, -0.0055875331163406 ]
  - [  -0.0026820013299584,  0.0012998571619391,  0.0079364702105522 ]
  - [   0.0000650901347399, -0.0001210314221680,  0.0054234415292740 ]
  - [   0.0022188406437635,  0.0015271620359272,  0.0112446993589401 ]
  - [  -0.0004275864921510, -0.0028334697708488,  0.0095987915992737 ]
  - [  -0.0002383217215538, -0.0000062710605562,  0.0053194537758827 ]
  - [   0.0008681025356054, -0.0006338739767671,  0.0060673952102661 ]
  - [   0.0001506377011538,  0.0000493193510920,  0.0054946020245552 ]
  - [  -0.0000590095114603,  0.0000719900708646,  0.0053508654236794 ]
  - [  -0.0002282429486513,  0.0006417233962566,  0.0056968554854393 ]
  - [   0.0000432789092883,  0.0000224909745157,  0.0058244168758392 ]
  - [   0.0000575813464820, -0.0000132482964545,  0.0056721717119217 ]
  - [  -0.0000685447594151, -0.0000876800622791,  0.0057494118809700 ]
  - [   0.0000836398685351,  0.0000639307545498,  0.0057859271764755 ]
  - [  -0.0003374636871740, -0.0001709962962195,  0.0050845146179199 ]
  - [   0.0000647685956210, -0.0000605676323175,  0.0053626447916031 ]
  - [   0.0000243484973907, -0.0000205627875403,  0.0056784823536873 ]
  - [   0.0000048492224778,  0.0000288803130388,  0.0056647807359695 ]
  - [  -0.0000421833246946,  0.0002303513465449,  0.0052235573530197 ]
- atom:   19
  displacement:
    [  -0.0056394062431055, -0.0000000008277332, -0.0082581533786448 ]
  forces:
  - [   0.0001938108471222,  0.0028529227711260, -0.0040573193691671 ]
  - [   0.0000460111768916, -0.0000028950307751,  0.0000579652114538 ]
  - [  -0.0001151631586254, -0.0000892179086804, -0.0000327600864694 ]
  - [   0.0013835236895829, -0.0006836033426225, -0.0022415567655116 ]
  - [  -0.0035446526017040, -0.0021550650708377, -0.0058458084240556 ]
  - [  -0.0002047239977401,  0.0000309217721224,  0.0000770173573983 ]
  - [  -0.0000574234873056,  0.0000848638592288,  0.0000523032431374 ]
  - [   0.0000402778387070,  0.0000918692676350,  0.0000113774585770 ]
  - [  -0.0000044964253902, -0.0001160194733529,  0.0001033851440297 ]
  - [  -0.0000494567211717, -0.0000710059684934,  0.0002145695470972 ]
  - [  -0.0000330028124154, -0.0000066534325924, -0.0000644185347483 ]
  - [   0.0000501153408550,  0.0000542263733223,  0.0001552485628054 ]
  - [  -0.0000902812244021,  0.0000234366852965,  0.0002627298817970 ]
  - [   0.0000333276329911,  0.0000473670661449,  0.0001673684309935 ]
  - [   0.0000076566575444,  0.0000289005693048,  0.0000508095981786 ]
  - [  -0.0000096140429378, -0.0000105190847535,  0.0000160024283105 ]
  - [  -0.0000441484153271, -0.0000467880017823,  0.0000444298711955 ]
  - [   0.0000393651425838, -0.0000181263967534,  0.0000842639201437 ]
  - [   0.0094209033995867, -0.0000085674691945,  0.0143177285790443 ]
  - [  -0.0017432610038668, -0.0000671402085572, -0.0058671385049820 ]
  - [  -0.0043205465190113,  0.0003009438514709, -0.0041324347257614 ]
  - [  -0.0010005701333284,  0.0024323519319296, -0.0046357661485672 ]
  - [   0.0004472984001040, -0.0003715326311067, -0.0053657069802284 ]
  - [  -0.0001526261912659, -0.0000016704434529, -0.0054779350757599 ]
  - [   0.0002452672051731,  0.0006292967591435, -0.0055050700902939 ]
  - [  -0.0001523537794128,  0.0000018402934074, -0.0054792165756226 ]
  - [  -0.0008062068372965, -0.0029240516014397, -0.0044998452067375 ]
  - [  -0.0000220884485316, -0.0000004377216101, -0.0054101943969727 ]
  - [   0.0000289041399810,  0.0000094211427495, -0.0055361837148666 ]
  - [  -0.0000070376459007,  0.0000148715917021, -0.0055117458105087 ]
  - [  -0.0000152154825628,  0.0000041266903281, -0.0055253580212593 ]
  - [   0.0000227731652558,  0.0000172371510416, -0.0055230408906937 ]
  - [  -0.0000077426084317, -0.0000001149019226, -0.0055797025561333 ]
  - [   0.0000038143812162, -0.0000213359016925, -0.0055366307497025 ]
  - [  -0.0000081848120317,  0.0000015264376998, -0.0055797323584557 ]
  - [   0.0000061333994381, -0.0000184670789167, -0.0055093392729759 ]
  - [   0.0027271262370050, -0.0013188659213483,  0.0031551495194435 ]
  - [  -0.0000595198944211,  0.0001247948966920,  0.0056824609637260 ]
  - [  -0.0023475964553654, -0.0016134616453201, -0.0003505423665047 ]
  - [   0.0004458893090487,  0.0029263170436025,  0.0014114752411842 ]
  - [   0.0002343662781641,  0.0000010419171304,  0.0057866722345352 ]
  - [  -0.0008839196525514,  0.0006426118779927,  0.0050165802240372 ]
  - [  -0.0001527369022369, -0.0000535482540727,  0.0056085884571075 ]
  - [   0.0000629667410976, -0.0000703325495124,  0.0057551562786102 ]
  - [   0.0002310727722943, -0.0006437866250053,  0.0054039284586906 ]
  - [  -0.0000435645342804, -0.0000208928249776,  0.0052708834409714 ]
  - [  -0.0000574351288378,  0.0000101004261523,  0.0054303556680679 ]
  - [   0.0000685629202053,  0.0000848512863740,  0.0053490549325943 ]
  - [  -0.0000780911650509, -0.0000653166789562,  0.0053090006113052 ]
  - [   0.0003305952996016,  0.0001665152376518,  0.0060052275657654 ]
  - [  -0.0000676903873682,  0.0000639804638922,  0.0057366564869881 ]
  - [  -0.0000265892595053,  0.0000161952339113,  0.0054229646921158 ]
  - [  -0.0000055056880228, -0.0000314516946673,  0.0054368898272514 ]
  - [   0.0000416832044721, -0.0002316504251212,  0.0058711916208267 ]

force_constants:
  format: "full"
  shape: [ 54, 54 ]
  elements:
  - # (1, 1)
    - [     1.351594447277686,    -0.000000000523250,     0.000000014183153 ]
    - [    -0.000000000523250,     1.351594443370585,     0.000000068025015 ]
    - [     0.000000014183153,     0.000000068025015,     2.713575656982869 ]
  - # (1, 2)
    - [    -0.149818879908989,     0.000000006794655,     0.000000001049160 ]
    - [     0.000000006448121,    -0.003357551321171,     0.013730509373012 ]
    - [     0.000000002118358,     0.013730506943669,    -0.012813261266082 ]
  - # (1, 3)
    - [    -0.149818892610949,     0.000000010458424,    -0.000000002034098 ]
    - [     0.000000032321204,    -0.003357549143645,     0.013730511001973 ]
    - [    -0.000000000586075,     0.013730510369079,    -0.012813263347167 ]
  - # (1, 4)
    - [    -0.039972873394330,     0.063419611409773,    -0.011890975453971 ]
    - [     0.063419611063239,    -0.113203560157866,    -0.006865251082417 ]
    - [    -0.011890974384774,    -0.006865253511760,    -0.012813258944046 ]
  - # (1, 5)
    - [    -0.039972887230801,    -0.063419621579648,     0.011890973607665 ]
    - [    -0.063419621579648,    -0.113203544620669,    -0.006865250484486 ]
    - [     0.011890973607665,    -0.006865250484486,    -0.012813260378350 ]
  - # (1, 6)
    - [    -0.017937200564159,     0.000000004077146,    -0.000000001719454 ]
    - [     0.000000004077146,    -0.017937198803543,     0.000000001729631 ]
    - [     0.000000000944824,     0.000000002248472,    -0.002065590825416 ]
  - # (1, 7)
    - [    -0.039972883002590,     0.063419624479416,    -0.011890975709287 ]
    - [     0.063419602616636,    -0.113203537649343,    -0.006865246727476 ]
    - [    -0.011890975533375,    -0.006865248297951,    -0.012813258705958 ]
  - # (1, 8)
    - [    -0.017937203131290,    -0.000000000677245,    -0.000000000010029 ]
    - [    -0.000000000677245,    -0.017937196236412,     0.000000002357633 ]
    - [     0.000000001771440,     0.000000000309722,    -0.002065590825416 ]
  - # (1, 9)
    - [    -0.039972885081809,    -0.063419623002185,     0.011890972916182 ]
    - [    -0.063419622309117,    -0.113203544393820,    -0.006865251027367 ]
    - [     0.011890973985379,    -0.006865253456710,    -0.012813262221346 ]
  - # (1, 10)
    - [    -0.004678853677170,    -0.000000000523250,    -0.000000000203795 ]
    - [    -0.000000000523250,    -0.004678857584270,     0.000000001107797 ]
    - [    -0.000000000203795,     0.000000001107797,     0.022058905218520 ]
  - # (1, 11)
    - [     0.002298217500801,    -0.000000001562947,    -0.000000001043155 ]
    - [    -0.000000001909481,    -0.000533749898058,     0.001790723134297 ]
    - [     0.000000000026043,     0.001790720704954,     0.006072924631927 ]
  - # (1, 12)
    - [     0.002298215757624,     0.000000001346204,    -0.000000001802768 ]
    - [     0.000000000867869,    -0.000533746912976,     0.001790724025724 ]
    - [     0.000000001465233,     0.001790723891737,     0.006072923557809 ]
  - # (1, 13)
    - [     0.000174246021810,    -0.001226276842532,    -0.001550813215953 ]
    - [    -0.001226277189066,     0.001590221280867,    -0.000895362241599 ]
    - [    -0.001550812146756,    -0.000895364670942,     0.006072924931991 ]
  - # (1, 14)
    - [     0.000174245991324,     0.001226275030258,     0.001550811568265 ]
    - [     0.001226275030258,     0.001590222565541,    -0.000895361894637 ]
    - [     0.001550811568265,    -0.000895361894637,     0.006072923944226 ]
  - # (1, 15)
    - [    -0.000399076740861,     0.000000001414357,    -0.000000001902668 ]
    - [     0.000000001414357,    -0.000399077507198,     0.000000000845482 ]
    - [     0.000000001235219,    -0.000000000104949,    -0.001914193056654 ]
  - # (1, 16)
    - [     0.000174243395695,    -0.001226276510423,    -0.001550812948169 ]
    - [    -0.001226276032089,     0.001590225040915,    -0.000895360267760 ]
    - [    -0.001550811430204,    -0.000895363164924,     0.006072924163112 ]
  - # (1, 17)
    - [    -0.000399077633687,    -0.000000000914437,    -0.000000000206385 ]
    - [    -0.000000000914437,    -0.000399076614372,     0.000000001476310 ]
    - [     0.000000000539461,    -0.000000001716394,    -0.001914193056654 ]
  - # (1, 18)
    - [     0.000174248140316,     0.001226273607721,     0.001550810876782 ]
    - [     0.001226274300789,     0.001590222792389,    -0.000895362437518 ]
    - [     0.001550811945979,    -0.000895364866861,     0.006072922101230 ]
  - # (1, 19)
    - [     0.036312088058875,    -0.000000016950840,     0.000000013155944 ]
    - [    -0.000000013142083,    -0.275536501509979,     0.350629934867699 ]
    - [     0.000000016394953,     0.380501618318351,    -0.495730079701842 ]
  - # (1, 20)
    - [    -0.005936690177290,    -0.007577519295245,    -0.009831395567612 ]
    - [    -0.007577517330752,     0.002813078158069,    -0.005676153569045 ]
    - [    -0.008064989387345,    -0.004656323030476,     0.001374451150027 ]
  - # (1, 21)
    - [    -0.005936688278768,     0.007577524279468,     0.009831393792995 ]
    - [     0.007577526732458,     0.002813076626553,    -0.005676159719835 ]
    - [     0.008064985247346,    -0.004656322240865,     0.001374451444758 ]
  - # (1, 22)
    - [    -0.005478959631524,     0.017661782816101,    -0.003144671447514 ]
    - [     0.017661780517137,    -0.025873026783992,    -0.001815572474115 ]
    - [    -0.004445860262009,    -0.002566816148923,     0.009178949207717 ]
  - # (1, 23)
    - [    -0.005478961495859,    -0.017661787124757,     0.003144671032288 ]
    - [    -0.017661784643622,    -0.025873019697961,    -0.001815572028076 ]
    - [     0.004445866305447,    -0.002566813791723,     0.009178950992672 ]
  - # (1, 24)
    - [     0.007187967608608,     0.000000004396872,    -0.000000004336911 ]
    - [    -0.000000000020611,    -0.010311571263091,     0.011352317488748 ]
    - [     0.000000000153698,     0.009312650005055,     0.001374449954916 ]
  - # (1, 25)
    - [    -0.197574356684126,     0.135034434646411,     0.303654419102867 ]
    - [     0.135034433822815,    -0.041650108264868,    -0.175315014747481 ]
    - [     0.329524059282131,    -0.190250860063472,    -0.495730030964353 ]
  - # (1, 26)
    - [    -0.036070076790373,     0.000000000851120,     0.000000000779090 ]
    - [     0.000000000668950,     0.004718076195672,     0.003631150109663 ]
    - [     0.000000005911977,     0.005133638446307,     0.009178948862078 ]
  - # (1, 27)
    - [    -0.197574396118787,    -0.135034423291354,    -0.303654447339483 ]
    - [    -0.135034426276515,    -0.041650074276036,    -0.175314979294178 ]
    - [    -0.329524087556377,    -0.190250822668484,    -0.495730016682305 ]
  - # (1, 28)
    - [    -0.008330306244913,    -0.000000003507262,    -0.000000000541009 ]
    - [     0.000000000426869,    -0.003764425740357,    -0.008583833397289 ]
    - [     0.000000002050451,     0.009562207115977,     0.025830105556742 ]
  - # (1, 29)
    - [     0.001048442852302,     0.005079286647346,     0.004731634580400 ]
    - [     0.005079282408786,    -0.004816610516156,     0.002731812471081 ]
    - [     0.018870374257871,     0.010894816766630,     0.005490114104884 ]
  - # (1, 30)
    - [     0.001048443435997,    -0.005079279791167,    -0.004731637814380 ]
    - [    -0.005079276573471,    -0.004816605417939,     0.002731812616034 ]
    - [    -0.018870376363488,     0.010894820111853,     0.005490114502592 ]
  - # (1, 31)
    - [     0.002584906091350,     0.000816301153936,    -0.002963133004081 ]
    - [     0.000816304731729,     0.001642320994120,    -0.001710762927856 ]
    - [    -0.006158903507279,    -0.003555844949379,     0.005984257342450 ]
  - # (1, 32)
    - [     0.002584907313432,    -0.000816303965277,     0.002963132731221 ]
    - [    -0.000816306929526,     0.001642323910535,    -0.001710762819265 ]
    - [     0.006158908239200,    -0.003555845151588,     0.005984259115112 ]
  - # (1, 33)
    - [    -0.007749128082438,     0.000000002647203,    -0.000000002394883 ]
    - [     0.000000003668066,     0.003980968624985,    -0.005463621275669 ]
    - [    -0.000000001758741,    -0.021789631407473,     0.005490118695420 ]
  - # (1, 34)