4
Lattice="3.92454423701331 7.862078184920364e-06 0.0002888218075755374 4.577047350990947e-06 3.928552468477344 0.000490365718671378 0.0003343467136189401 0.0006150013796566837 6.597579159762185" Properties=species:S:1:pos:R:3:forces:R:3 structure_index=0 total_energy=-14.287525177001953 stress="-0.02508869394659996 8.7325288404827e-06 -7.479199121007696e-05 8.678665835759602e-06 -0.03221321105957031 -0.00014587710029445589 -7.472011202480644e-05 -0.0001458219048799947 -0.0644976943731308" pbc="T T T"
Li       2.22935868       3.77647379       5.32039040       0.00151888       0.00004280       0.00189196
Sn       2.23085616       3.77630624       2.02298147      -0.00088189      -0.00016611      -0.00078290
Sn       0.26714364       1.81033966       3.72727675       0.00086983       0.00217352       0.04767600
Sn       0.26894286       1.81350677       0.31806099      -0.00150682      -0.00205020      -0.04878507
11
Lattice="4.778281177963893 -7.493042136153524e-05 0.000389764560755259 -2.3891880797862424 4.13809603737193 -0.0021104646393750527 -0.00020626300781768315 0.0004032767485459859 11.123762264134456" Properties=species:S:1:pos:R:3:forces:R:3 structure_index=1 total_energy=-30.894485473632812 stress="-0.007742780726402998 -6.563655006175395e-06 9.410730854142457e-05 -6.486422080342891e-06 -0.00776097783818841 -0.00023457359930034727 9.439631685381755e-05 -0.00023456748749595135 -0.002004210837185383" pbc="T T T"
Li       2.03988340       0.51527453       6.23250086      -0.00046972      -0.00030113      -0.04557267
Li      -0.34957298       1.89395410       3.84188812       0.00057481       0.00010712      -0.00346249
Li       2.03944126       3.27432233       2.01221505       0.00008446      -0.00024405      -0.00043994
Li      -0.34991049       1.89478887       7.55428483       0.00057063       0.00028648       0.00791764
Li       2.03990461       3.27375359      10.34273763      -0.00068967       0.00184972       0.01589897
Li      -0.34959616       1.89569692       0.25004963      -0.00010334      -0.00052590       0.00899007
Li       2.03988882       0.51603978       8.91007992      -0.00064851      -0.00058563       0.04621815
Li       2.04001713       3.27390835       4.80994475      -0.00060021      -0.00028508      -0.02571659
Sn       2.03969545       0.51442748       3.43031862      -0.00006267       0.00051396      -0.00213661
Sn       2.03932715       3.27414653       7.57173813       0.00053928       0.00020055      -0.00528617
Sn       2.03939840       0.51643042       0.58867503       0.00080495      -0.00101605       0.00358957
15
Lattice="5.29243246915856 -0.0005019400178863099 0.0004394164387049799 0.00510916389428709 5.130104413596138 -1.3335800031696252 -0.0001794432439282326 0.023217731375505004 10.612423740639334" Properties=species:S:1:pos:R:3:forces:R:3 structure_index=2 total_energy=-39.24799728393555 stress="0.015408393926918507 0.00017833996389526874 -0.00013517220213543624 0.00017832494631875306 0.015224788337945938 -0.0049349404871463776 -0.0001349650410702452 -0.0049349283799529076 -0.002652175724506378" pbc="T T T"
Li       0.73386930       1.31095830       4.98254615       0.00141035      -0.00024194      -0.01301165
Li       0.73875102       5.06834961       8.89222815       0.00147504       0.00069558      -0.01064825
Li       0.73226644       2.01957358       7.67780978       0.00156424       0.00050683       0.01019242
Li       0.74222942       0.62160498       2.30956605      -0.00347099       0.00019537       0.01260307
Li       4.68908619       4.16698433       5.43088669       0.00323311      -0.00162919      -0.00827894
Li       4.69675605       2.88834520       0.52541970       0.00266807       0.00616232       0.00725509
Li       3.38767164       2.22985560       3.31679529      -0.00253897      -0.00046338       0.00124727
Li       3.38707429       4.83108089       2.64097752      -0.00002249       0.00203707       0.00063343
Li       3.37413876       3.53687733       8.29119711       0.00376288      -0.00050160       0.00151428
Li       3.38134547       0.96983251       8.94966803      -0.00014179      -0.00135077       0.00020993
Li       2.08547295       2.90112470       0.53081624      -0.00430543      -0.00444817       0.00748530
Li       2.07772284       4.16898192       5.43139320      -0.00337612      -0.00119561      -0.00891610
Sn       0.74020968       3.53126264       2.97945155      -0.00093026       0.00004501      -0.00037175
Sn       3.37968202       1.65634517       6.29947315       0.00120465      -0.00535563      -0.02329192
Sn       3.38533645       0.27703291       0.99188776      -0.00053231       0.00554410       0.02337773
6
Lattice="4.762868434079899 8.208882710281094e-05 -0.002992265773671993 -2.3805968187139346 4.123583644942465 -0.004457746075500549 0.0003236488050290325 0.0007064959022922109 5.794832621395446" Properties=species:S:1:pos:R:3:forces:R:3 structure_index=3 total_energy=-17.584688186645508 stress="-0.06627608835697174 -0.0007695993990637362 -0.0018993315752595663 -0.0007698481786064804 -0.06780485063791275 -0.004112915601581335 -0.0018992257537320256 -0.004113480448722839 -0.005850365851074457" pbc="T T T"
Li      -0.60008294       2.09509781       2.13641066       0.00044467      -0.00068286       0.00120807
Li       1.78585340       3.46905116       0.67995978      -0.00127670      -0.00059299      -0.00767454
Li       1.77759157       0.71977946       3.59182102       0.00035189       0.00295078       0.00905970
Li      -0.59925594       2.09442768       5.03368597      -0.00074949       0.00112231       0.00165382
Sn       1.77880037       3.47006879       3.57635730      -0.00014255      -0.00345882      -0.00552169
Sn       1.78431735       0.71957509       0.69638045       0.00137217       0.00066153       0.00127465
11
Lattice="4.180564963613129 -0.00022413256464056116 1.1589623434199352 1.5510774997042565 6.278341017490302 2.525579001957331 -0.2572075774689606 -0.22737468657996374 9.049458001944135" Properties=species:S:1:pos:R:3:forces:R:3 structure_index=4 total_energy=-34.46566390991211 stress="-0.008242721669375896 0.0007988395518623292 0.003124263370409608 0.0007988815777935088 -0.021393798291683197 -0.003010980784893036 0.003124409355223179 -0.003011115826666355 -0.01838424801826477" pbc="T T T"
Li       2.22477965       3.61510506       2.44112385      -0.00571966      -0.02631774       0.01973319
Li       1.82682148       0.85455165       3.87635956      -0.00388134       0.00086939       0.01318851
Li       3.37453606       0.30463140       6.41316019      -0.00752319       0.03462895       0.02720970
Li       1.10704239       2.43212802       6.47270715       0.00645019      -0.00759351      -0.02298807
Li       4.14106835       5.55224221       3.64799931      -0.00621429       0.03338922       0.02362355
Li       4.47437879       1.43381990       2.44553476       0.00680129      -0.01031620      -0.02418065
Sn       3.79281393       2.88140220       4.90341540      -0.00462289      -0.04028144       0.01891518
Sn       0.73579645      -0.20191184       7.81381192       0.00326186       0.01072761      -0.01303742
Sn       2.98885975       4.47278477       7.80387857       0.00069338       0.02820569      -0.00082390
Sn       2.62757921       1.78703318       9.10986327       0.00662279      -0.01830981      -0.02544614
Sn       1.49686815       5.07754370       5.06686939       0.00413187      -0.00500219      -0.01619397
20
Lattice="6.504215316722187 0.0015849469218660172 -0.9653566942474313 -0.001563963318423875 6.437927843139221 0.0005065715989827836 -0.007654788749042086 0.0007767159181738467 11.292062384218697" Properties=species:S:1:pos:R:3:forces:R:3 structure_index=5 total_energy=-69.16358184814453 stress="0.013800472021102905 0.00019128706480842084 -0.0021083408500999212 0.00019136944320052862 -0.008111861534416676 -8.205654921766836e-06 -0.0021083028987050056 -8.193030225811526e-06 -0.001084883464500308" pbc="T T T"
Li       2.55930782       0.60354203      -0.32576654      -0.00314756      -0.00005929      -0.01939625
Li       2.56331922       3.82690911      -0.29885977      -0.00237889      -0.00389035      -0.02449447
Li       6.38706812       3.81917126       3.24670283       0.00729633       0.00170327       0.03583697
Li       5.77855287       3.82677388      -0.82094294      -0.00969374      -0.00409104      -0.01574769
Li       3.14565372       0.60263212       3.73252672       0.00263472      -0.00097152       0.02854131
Li       5.75069327       0.60896602      10.37683897      -0.00759991      -0.00346011      -0.01096164
Li       6.38571199       0.60277687       3.25504198       0.00481136      -0.00070786       0.00545323
Sn       4.50457034       2.17874592       1.38419129       0.01588807      -0.01639868      -0.01263166
Sn       3.83400304       2.22341054       8.63133615       0.00454331       0.00820329       0.02383514
Sn       5.16506072       2.16352036       5.72188789      -0.01242929       0.00338230       0.02355536
Sn       3.84005058       5.42144030       8.63480824      -0.00381943      -0.00486249       0.01664960
Sn       5.16849033       5.47219290       5.72054777      -0.01945647      -0.00046157       0.02544621
Sn       0.62732092       2.22309750       9.19917893       0.00315463       0.01005608      -0.01157258
Sn       1.15693839       5.46864594       1.88404881      -0.01755412       0.01450314      -0.02924515
Sn       1.16329423       2.18165036       1.87771081      -0.02516147      -0.01982336      -0.02051236
Sn       1.77087085       2.16301841       6.20675606       0.01760861       0.00125130       0.02024681
Sn       0.62319523       5.42417561       9.20223610       0.00795989      -0.00879646      -0.01224080
Sn       1.77199616       5.47139191       6.21424770       0.01943052       0.00211276       0.01240730
Sn       3.15416475       3.82059892       3.79744677      -0.00390530       0.00056125      -0.01614985
Sn       4.49966194       5.46572490       1.38899366       0.02181876       0.02174933      -0.01901949
12
Lattice="5.12624117194876 0.032086361783652394 -1.5911431386772217 -1.8859005634907862 3.939540094035312 -0.0028437774785730983 -0.08483844317979913 -0.032417591900215925 13.025953575313098" Properties=species:S:1:pos:R:3:forces:R:3 structure_index=6 total_energy=-38.7864875793457 stress="0.01615722104907036 0.010750179179012775 -0.0005750838317908347 0.010750215500593185 -0.0007937390473671257 -0.00019651389447972178 -0.000575081561692059 -0.00019648326269816607 -0.00399812264367938" pbc="T T T"
Li       1.00643512       0.13236890      -0.06921410       0.02420591       0.01112975      -0.01051530
Li       3.65621436       1.40327930       6.33601794      -0.03955242      -0.01842047       0.00194267
Li       0.92196622       0.09437968       6.42222248      -0.01431853      -0.00626696      -0.00074509
Li       3.65313330       1.40409489       9.74598951      -0.02424883      -0.01113313       0.01059503
Li       3.73657925       1.44182219       3.25517597       0.01413366       0.00609199       0.00080914
Li       1.00233630       0.13281639       3.34139053       0.04013129       0.01881141      -0.00204901
Sn       1.48891598       2.78613405       1.72584177       0.01311064       0.00605809       0.01601041
Sn       1.34454500       2.72185431      11.34992941      -0.00035348      -0.00014415       0.00031260
Sn       3.84240334       1.49026973       0.01690030       0.02098954       0.00960998      -0.02897001
Sn       0.81688443       0.04610457       9.66017667      -0.02093608      -0.00960346       0.02880682
Sn       1.38619800       2.73783765       4.83747088       0.00025644      -0.00002676      -0.00116633
Sn       1.28428367       2.68972077       7.94830046      -0.01341814      -0.00610630      -0.01503096
20
Lattice="7.650110661024824 -0.013250884517552559 0.06503760602047698 -0.0578031692948495 7.288230893240151 -0.5616804410573757 0.006493343432515055 -0.01743299057589718 7.349167250524782" Properties=species:S:1:pos:R:3:forces:R:3 structure_index=7 total_energy=-60.933284759521484 stress="-0.004853142891079187 0.0002954806259367615 0.00028634583577513695 0.0002954048686660826 -0.003840341931208968 -0.0001407719391863793 0.00028614478651434183 -0.00014073333295527846 -0.004080539103597403" pbc="T T T"
Li       2.63414002       3.14365709       1.84905261      -0.00540190       0.02361119      -0.00121182
Li       1.56954319       5.92430481       1.05938391      -0.00365970      -0.01665127      -0.02144540
Li       0.65986839       3.95491802       3.68753107       0.00443311      -0.00621896      -0.00625896
Li       3.59249054       6.56936777       6.25777508      -0.00604682       0.00961083       0.00796707
Li       6.70516515       5.91776704       2.63620430       0.02083661       0.02374163      -0.00656395
Li       2.69804921       1.57991127       4.63109132       0.00721498       0.00846204       0.02490825
Li       5.46539956       2.85455199       3.08217940       0.00236504      -0.02744550      -0.00095477
Li       1.64677956       1.24677118       0.11927697      -0.00056315       0.00928004      -0.02348869
Li       6.47466141       7.17182258      -0.03034272       0.00719938       0.01553567       0.01012941
Li       4.78964009       2.21151415       7.13577070      -0.00904189      -0.00157696       0.00709930
Li       7.44658891       2.13406668       5.64396388      -0.00609845      -0.01263087      -0.00833734
Li       3.40114573       5.50941166       3.63820029      -0.02144847      -0.00311198      -0.01077155
Sn       2.30906610       3.91229251       6.23628401      -0.02716238       0.01379935       0.00441231
Sn       5.34999658       0.43034302       4.88334284      -0.01030814      -0.00373968       0.00119425
Sn       4.59185670       4.91344628       0.96596254       0.03094954       0.00362876       0.01018293
Sn       0.53093566       1.15923364       2.80636153       0.03909883      -0.00145376      -0.00741940
Sn       3.82880786       0.55045746       2.12434891      -0.01564035       0.00963316       0.01486174
Sn       5.82282465       4.76713126       5.34772412       0.00288536      -0.01095250       0.00839265
Sn       0.83898662       6.53863894       4.98262981      -0.00799134      -0.00885412       0.00050234
Sn       7.46607831       3.49054976       0.90363266      -0.00162032      -0.02466707      -0.00319834
15
Lattice="5.786694139228922 -0.004147928867695808 -6.275518708384743e-05 0.0250765075932576 6.193345650480994 -1.3867696282098152e-05 1.7290502277103945e-06 3.3833391499590496e-06 8.599687594702369" Properties=species:S:1:pos:R:3:forces:R:3 structure_index=8 total_energy=-40.86631774902344 stress="0.002361331833526492 0.0075945500284433365 -5.723198228224646e-06 0.007594530936330557 0.018642699345946312 8.520861172200966e-08 -5.748796866100747e-06 1.7610584990279676e-08 -0.021663814783096313" pbc="T T T"
Li       2.18902798       1.45119501       6.19929010       0.00018726      -0.00001175       0.00025193
Li       3.74107669       6.07485257       8.32397240      -0.03260536       0.02126902       0.01334315
Li       3.72860740       3.01910002       8.32331008      -0.03504719      -0.01792936       0.01327082
Li       0.66135633       3.02098491       4.07594188       0.03315430      -0.02265222      -0.01397702
Li       2.18857772       1.45126099       1.90104288      -0.00025116       0.00033080      -0.00053741
Li       3.74157800       6.07426100       4.07575272      -0.03292808       0.02254343      -0.01343865
Li       0.66132065       3.02028419       8.32407569       0.03357495      -0.02127120       0.01358856
Li       2.20157012       4.54842269       1.89985530      -0.00005559      -0.00085768      -0.00010649
Li       3.72863263       3.01994539       4.07651029      -0.03482392      -0.01931260      -0.01341084
Li       0.67465880       6.07514643       4.07651422       0.03367486       0.01932557      -0.01309378
Li       0.67426220       6.07609814       8.32335284       0.03430556       0.01777810       0.01315906
Sn       5.09490941       4.54550077       1.89995018       0.00022325       0.00005305      -0.00060375
Sn       5.09444463       4.54536482       6.19987749       0.00026836      -0.00053476       0.00137667
Sn       5.08247232       1.44845560       6.19987161      -0.00051040       0.00143133      -0.00086699
Sn       5.08172248       1.44883827       1.90004146       0.00083314      -0.00016175       0.00104472
3
Lattice="3.312627706946854 0.0003940389655428231 -1.2169709391092702 -0.447957265841413 3.283199487042087 -1.2176386905555745 0.023107629097286003 0.026266404773723766 5.181005701043755" Properties=species:S:1:pos:R:3:forces:R:3 structure_index=9 total_energy=-8.82810115814209 stress="0.10338503867387772 -0.023516986519098282 -0.05394813418388367 -0.023516986519098282 0.09340518712997437 -0.06024681031703949 -0.05394832789897919 -0.06024686247110367 -0.02507527731359005" pbc="T T T"
Li       1.35483681       0.64262331       4.34864713      -0.00315242      -0.00374966      -0.01257908
Li       2.32477726       1.75455302       1.86807267       0.00292960       0.00304734       0.01258508
Sn      -0.05211335       2.82659707       0.51756390       0.00022282       0.00070231      -0.00000598
18
Lattice="4.744566194574441 1.8337793806041354e-05 3.751635821383665e-06 8.318464360918337e-06 4.68537064836011 -0.7938020357032819 -1.3327254362628687e-05 -0.008289690660797731 14.647166099809523" Properties=species:S:1:pos:R:3:forces:R:3 structure_index=10 total_energy=-49.183624267578125 stress="0.010242694057524204 3.6340363749332028e-06 -9.074298645828094e-07 3.5784748888545437e-06 -0.01736524887382984 0.0018316474743187428 -1.305263367612497e-06 0.0018316602800041437 0.001988418400287628" pbc="T T T"
Li       0.14446594       4.19435618       8.88383168      -0.00000387      -0.02092777      -0.02127645
Li       0.14451314       3.14482973       2.63197971      -0.00002007      -0.00924581       0.00145759
Li       0.14450248       2.61294140      14.10187417      -0.00002099      -0.01193373       0.00166707
Li       2.51675274       3.73894115       7.24530061       0.00001592       0.01611632      -0.00672867
Li       0.14447983       1.09777172       4.58612814      -0.00000970      -0.01715321      -0.00123158
Li       2.51673567       4.31074697      10.65030305       0.00002382       0.02088449       0.02126956
Li       2.51679951       2.73010639       1.09467346      -0.00000020       0.01720372       0.00124970
Li       2.51676226       0.68303782       3.04883579       0.00000477       0.00930223      -0.00148076
Li       2.51675211       1.72702756       9.42727137       0.00001534       0.01387743      -0.00749224
Li       2.51675346       1.20670362       6.22610368       0.00001623       0.01193105      -0.00171924
Li       0.14445492       0.08074090      13.08263341      -0.00000676      -0.01612299       0.00676614
Li       0.14448418       2.09272426      10.90065911      -0.00000732      -0.01393942       0.00748280
Li       0.14448814       3.68302091       5.78698987      -0.00000471      -0.01895396       0.01525472
Li       2.51674490       0.13663614      14.54097770       0.00000910       0.01893968      -0.01529557
Sn       0.14447339       1.61701425       7.88131166      -0.00000334      -0.01487643       0.01624288
Sn       2.51678372       3.29502255       4.22465410      -0.00001091       0.01347928       0.01015691
Sn       0.14447938       0.53287665       1.45615377       0.00000213      -0.01344626      -0.01016304
Sn       2.51677233       2.20268860      12.44661193       0.00000051       0.01486539      -0.01615980
14
Lattice="5.276031599467437 0.0003240287788826125 -1.165260270954685 -0.00024825139043801884 5.050852985186616 6.070820710918063e-05 -0.07921075820253874 6.616797892148979e-05 11.024444672287947" Properties=species:S:1:pos:R:3:forces:R:3 structure_index=11 total_energy=-43.548377990722656 stress="-0.012615453451871872 0.00010842470510397106 -0.002883994486182928 0.00010836568981176242 -0.01061355322599411 3.649851350928657e-05 -0.002883909037336707 3.662721428554505e-05 -0.015440085902810097" pbc="T T T"
Li       2.35395792       0.79206204       1.71188167       0.00152874       0.00069984       0.01775718
Li       1.12575857       3.31773285       0.36811293      -0.00395721       0.00028040       0.00190549
Li       3.06048710       0.79256885       4.72550033      -0.01169740       0.00007020       0.00095181
Li       3.08048758       3.31833916       9.34303950      -0.02739287      -0.00015502      -0.00822887
Li       4.53735110       0.79355883      -0.35652188       0.00950396      -0.00085681      -0.00467727
Li       4.81517480       3.31869449       4.30259547       0.01054630      -0.00055188       0.02752018
Li       0.25586477       3.31786912       8.44749772      -0.01896092       0.00021876       0.01973268
Li       0.84030631       0.79282717       6.81197788       0.00393035      -0.00025650       0.01280490
Sn       4.09057303       3.31853117       1.13470100       0.02060748      -0.00027149      -0.02961829
Sn       1.91451056       3.31763674       3.32406313       0.02807761       0.00041596      -0.02715700
Sn       2.52397164       3.31810927       6.36171872      -0.04345348       0.00009600      -0.02000013
Sn       3.79942135       0.79273400       7.71705120       0.01940583       0.00012902      -0.00641401
Sn       0.02760231       0.79255153       3.79449196       0.00763968       0.00005897       0.00613889
Sn       1.44605658       0.79253768       9.84637187       0.00422191       0.00012256       0.00928442
7
Lattice="3.2270804377737967 4.704784242974966e-05 -0.46067563593620153 -0.11450328046129718 4.185380010505659 -0.8017568597665704 0.02078794162434417 0.07143324677440095 11.682808239173182" Properties=species:S:1:pos:R:3:forces:R:3 structure_index=12 total_energy=-23.486679077148438 stress="-0.014477803371846676 0.00037621965748257935 0.0007108618738129735 0.00037620458169840276 -0.021863769739866257 0.0026392126455903053 0.000710827938746661 0.0026391560677438974 -0.009354821406304836" pbc="T T T"
Li       1.02764259       3.65997272       5.75981941       0.00662530       0.00928958       0.04687753
Li       1.98673671       0.59487293       0.94219893      -0.00590689      -0.00908699      -0.04593892
Li       1.57454158       0.07042679       9.59435651       0.00027702      -0.00039507      -0.00183497
Sn       0.11975570       2.46096004      10.93604264       0.00204458       0.00160470       0.01343682
Sn       0.54450335       2.99883967       2.36219355      -0.00028174      -0.00164052       0.01069541
Sn       2.91561119       1.86475201       7.44782061      -0.00224500      -0.00045663      -0.00922920
Sn       2.47068925       1.25679982       4.34150985      -0.00051329       0.00068492      -0.01400665
18
Lattice="6.218197784989492 -0.0031729318020945374 -1.199646381112055 -0.6999067889470497 7.217825938548373 -3.6187765644652345 -0.04758803994726912 0.07976717696674637 8.056617516967682" Properties=species:S:1:pos:R:3:forces:R:3 structure_index=13 total_energy=-55.095584869384766 stress="-0.006190069485455751 0.0031519883777946234 -0.000654608360491693 0.0031519571784883738 -0.004167989827692509 0.007107935380190611 -0.0006545006763190031 0.007107969839125872 -0.012794741429388523" pbc="T T T"
Li       2.35851909       5.84607602      -0.69361290       0.00442796       0.00430860      -0.00601247
Li       0.65467702       1.04955781       6.85429893       0.01787423      -0.00006087      -0.01372620
Li       3.38294202       5.84206054      -3.66322138      -0.00950965      -0.00389157       0.01180449
Li       5.50919965       5.91037700      -1.26173109      -0.00204820       0.02050683       0.00400376
Li       0.32397178       5.83189286      -3.06793509       0.01049484      -0.01281760       0.00356920
Li       3.01424296       3.46053766       2.89715477      -0.00870185      -0.00670370       0.00025376
Li       0.01350141       3.45981336       3.47708332       0.00255645      -0.01928720      -0.01013698
Li       3.70233882       1.05035837       6.33960809      -0.01767007       0.00352671       0.00885680
Li       4.08839286       3.36740073      -0.08570365      -0.00312971       0.00565174      -0.00356286
Li       1.68344758       1.07089322       4.03400781       0.00096555      -0.00882664      -0.02730468
Li       1.00468395       3.38478069       0.51328479       0.00185288       0.01526263      -0.00000012
Sn       2.69469770       1.01778241       1.16050589       0.00956267       0.00247451      -0.00187124
Sn       2.00946085       3.51974209       5.73398454      -0.00046947      -0.01221170      -0.00602717
Sn       5.85918045       1.01762833       0.52796438      -0.01717657      -0.00674716      -0.01396887
Sn       4.42105768       5.76130685       1.54832962       0.00474903      -0.02164532       0.02009767
Sn       5.12385554       3.59416625       5.17291532       0.00238590       0.03187143       0.01430259
Sn       1.30671837       5.82183008       2.09354191       0.00111399       0.00669419       0.00172479
Sn       4.77566537       1.07659803       3.44280847       0.00272204       0.00189513       0.01799751
18
Lattice="6.3317711072008285 -0.0327406342660168 -3.3637631882143046 -2.6177759226867594 6.165704906413464 -1.3245324301145396 0.06051816598296491 -0.007050970399475361 8.512895509882208" Properties=species:S:1:pos:R:3:forces:R:3 structure_index=14 total_energy=-51.433860778808594 stress="0.02066897042095661 -0.005724682006984949 -0.006809665821492672 -0.005724886432290077 0.022645846009254456 0.0026060515083372593 -0.006809418089687824 0.002606131136417389 0.02108834683895111" pbc="T T T"
Li       3.24549874       4.03537498      -2.24087372      -0.00377471       0.00406235       0.00061885
Li       4.36746244       0.98923836      -1.55801900      -0.00164080       0.02344607      -0.01450610
Li       4.85677210       3.31795913       0.06973150       0.02028614      -0.00104476      -0.00775030
Li       1.15254995       2.39101285       2.34447445      -0.00253094       0.02401940       0.00626707
Li       2.33912778       4.39038288       0.83809470       0.02495455      -0.00100875       0.00500434
Li       0.59533347       5.09445184      -1.40019317       0.00003067       0.00076592      -0.00045896
Li       0.30807524       2.71472942       5.57029589       0.01392881      -0.00255898      -0.00163377
Li       0.56343524      -0.00838296       0.76279580       0.00330296      -0.00516764      -0.00061185
Li       3.56188002       1.30476914       1.46462949      -0.01455367       0.00173285       0.00144673
Li       2.71733284       1.62761727       4.69130912       0.00277863      -0.02345417      -0.00647650
Li       5.34424605       0.66934273       3.60169385      -0.01996060       0.00007696       0.00744522
Li      -0.55942501       3.03537886       0.08200768       0.00199914      -0.02261207       0.01403010
Li      -1.08748615       5.79446550       4.87296437      -0.02461076       0.00149824      -0.00371715
Sn       6.10585825       0.37515448       0.58073134       0.02007570      -0.02019169       0.01150793
Sn      -0.28208010       5.37001665       1.66268120      -0.00565885       0.01528565       0.01450377
Sn       1.90434061       2.01354590      -0.73883979       0.00020176      -0.00037490       0.00018128
Sn       1.53329571       4.81501745       4.04735403       0.00815631      -0.01526339      -0.01472992
Sn       4.09610215       3.61111300       3.09122239      -0.02298434       0.02078902      -0.01112073
18
Lattice="4.655157546494658 4.955508152623968e-05 0.0007061616231422114 -3.939122562068339e-05 4.640148195528175 -0.00027153905300820693 -0.00078284979149704 0.00048372792953357564 21.48072426218131" Properties=species:S:1:pos:R:3:forces:R:3 structure_index=15 total_energy=-63.78016662597656 stress="0.005079545080661774 1.2341676665528212e-05 8.70915664563654e-06 1.2287710887903813e-05 0.01386033184826374 1.4561514944944065e-05 8.628760042483918e-06 1.468227037548786e-05 0.011694692075252533" pbc="T T T"
Li       2.08041537       1.87038562      14.33459556      -0.00160807      -0.00000758      -0.01526695
Li       2.08264608       1.87092423      18.46709027       0.00024360      -0.00051973       0.00323354
Li       2.07771192       1.87069184       6.28765270      -0.00006882       0.00001549      -0.01356851
Li       2.08217462       1.87059883       1.65658746      -0.00001167       0.00021769      -0.00596517
Li       2.07783927       1.86969307      10.90330530       0.00062013       0.00016627       0.03196703
Sn       2.08339285       4.19153003      20.81011194      -0.00096412      -0.00051755      -0.00393381
Sn       2.08328057       4.19035245      16.22743076      -0.00050109      -0.00019464      -0.00514474
Sn       4.40979159       4.19061692       1.63919819      -0.00036152       0.00010956      -0.00542292
Sn       4.40465794       4.19051681      11.02200512       0.00049059      -0.00036606      -0.01585038
Sn       2.07939725       4.19107646       3.97891276       0.00043554      -0.00021527      -0.01277454
Sn       4.41070570       4.18992359      18.40547464       0.00006325       0.00038714      -0.00001042
Sn       4.40579568       4.19077448       6.28886149      -0.00006941      -0.00008871       0.00152420
Sn       4.41119605       1.87104822      20.79622524      -0.00088775      -0.00018172      -0.00054522
Sn       4.40670467       1.87098152       3.97076224       0.00061753      -0.00035043      -0.00158230
Sn       4.40401586       1.87040983       8.53794432       0.00056796      -0.00008084       0.00656249
Sn       4.40848271       1.86878568      16.03795269      -0.00006091       0.00098196       0.00090424