phonopy:
  version: "2.37.1"
  frequency_unit_conversion_factor: 15.633302
  symmetry_tolerance: 1.00000e-05

space_group:
  type: "C2/m"
  number: 12
  Hall_symbol: "-C 2y"

primitive_matrix:
- [ -1.000000000000000,  0.000000000000000,  0.000000000000000 ]
- [  0.000000000000000, -1.000000000000000,  0.000000000000000 ]
- [  0.000000000000000,  0.000000000000000,  1.000000000000000 ]

supercell_matrix:
- [   2,   0,   0 ]
- [   0,   2,   0 ]
- [   0,   0,   2 ]

primitive_cell:
  lattice:
  - [    -5.748342816517746,     0.000000000000000,     0.000000000000000 ] # a
  - [    -4.844069489542174,    -3.094904770951784,     0.000000000000000 ] # b
  - [     2.029305158991383,     0.592925344710232,     6.928491999998728 ] # c
  points:
  - symbol: Li # 1
    coordinates: [  0.009653651219498,  0.009653658527671,  0.019708971430087 ]
    mass: 6.940000
  - symbol: Li # 2
    coordinates: [  0.331186587953748,  0.331186587338983,  0.654577808632139 ]
    mass: 6.940000
  - symbol: Li # 3
    coordinates: [  0.613257863168844,  0.613257848122218,  0.734311078635877 ]
    mass: 6.940000
  - symbol: Li # 4
    coordinates: [  0.934790780230231,  0.934790796053476,  0.369179916423537 ]
    mass: 6.940000
  - symbol: Sn # 5
    coordinates: [  0.662745726261251,  0.662745730689467,  0.351860105104819 ]
    mass: 118.710000
  - symbol: Sn # 6
    coordinates: [  0.281698724824885,  0.281698712509622,  0.037028786485576 ]
    mass: 118.710000
  reciprocal_lattice: # without 2pi
  - [    -0.173963180679921,     0.272282928943291,     0.027651172942963 ] # a*
  - [    -0.000000000000000,    -0.323111718779143,     0.027651201334587 ] # b*
  - [    -0.000000000000000,    -0.000000000000000,     0.144331551512246 ] # c*

unit_cell:
  lattice:
  - [     5.748342816517746,     0.000000000000000,     0.000000000000000 ] # a
  - [     4.844069489542174,     3.094904770951784,     0.000000000000000 ] # b
  - [     2.029305158991382,     0.592925344710232,     6.928491999998729 ] # c
  points:
  - symbol: Li # 1
    coordinates: [  0.990346348780502,  0.990346341472329,  0.019708971430087 ]
    mass: 6.940000
    reduced_to: 1
  - symbol: Li # 2
    coordinates: [  0.668813412046252,  0.668813412661017,  0.654577808632139 ]
    mass: 6.940000
    reduced_to: 2
  - symbol: Li # 3
    coordinates: [  0.386742136831156,  0.386742151877782,  0.734311078635877 ]
    mass: 6.940000
    reduced_to: 3
  - symbol: Li # 4
    coordinates: [  0.065209219769769,  0.065209203946523,  0.369179916423536 ]
    mass: 6.940000
    reduced_to: 4
  - symbol: Sn # 5
    coordinates: [  0.337254273738749,  0.337254269310533,  0.351860105104819 ]
    mass: 118.710000
    reduced_to: 5
  - symbol: Sn # 6
    coordinates: [  0.718301275175115,  0.718301287490378,  0.037028786485576 ]
    mass: 118.710000
    reduced_to: 6

supercell:
  lattice:
  - [    11.496685633035492,     0.000000000000000,     0.000000000000000 ] # a
  - [     9.688138979084348,     6.189809541903568,     0.000000000000000 ] # b
  - [     4.058610317982764,     1.185850689420464,    13.856983999997459 ] # c
  points:
  - symbol: Li # 1
    coordinates: [  0.495173174390251,  0.495173170736164,  0.009854485715043 ]
    mass: 6.940000
    reduced_to: 1
  - symbol: Li # 2
    coordinates: [  0.995173174390251,  0.495173170736164,  0.009854485715043 ]
    mass: 6.940000
    reduced_to: 1
  - symbol: Li # 3
    coordinates: [  0.495173174390251,  0.995173170736164,  0.009854485715043 ]
    mass: 6.940000
    reduced_to: 1
  - symbol: Li # 4
    coordinates: [  0.995173174390251,  0.995173170736164,  0.009854485715043 ]
    mass: 6.940000
    reduced_to: 1
  - symbol: Li # 5
    coordinates: [  0.495173174390251,  0.495173170736164,  0.509854485715043 ]
    mass: 6.940000
    reduced_to: 1
  - symbol: Li # 6
    coordinates: [  0.995173174390251,  0.495173170736164,  0.509854485715043 ]
    mass: 6.940000
    reduced_to: 1
  - symbol: Li # 7
    coordinates: [  0.495173174390251,  0.995173170736164,  0.509854485715043 ]
    mass: 6.940000
    reduced_to: 1
  - symbol: Li # 8
    coordinates: [  0.995173174390251,  0.995173170736164,  0.509854485715043 ]
    mass: 6.940000
    reduced_to: 1
  - symbol: Li # 9
    coordinates: [  0.334406706023126,  0.334406706330508,  0.327288904316070 ]
    mass: 6.940000
    reduced_to: 9
  - symbol: Li # 10
    coordinates: [  0.834406706023126,  0.334406706330508,  0.327288904316070 ]
    mass: 6.940000
    reduced_to: 9
  - symbol: Li # 11
    coordinates: [  0.334406706023126,  0.834406706330508,  0.327288904316070 ]
    mass: 6.940000
    reduced_to: 9
  - symbol: Li # 12
    coordinates: [  0.834406706023126,  0.834406706330508,  0.327288904316070 ]
    mass: 6.940000
    reduced_to: 9
  - symbol: Li # 13
    coordinates: [  0.334406706023126,  0.334406706330508,  0.827288904316070 ]
    mass: 6.940000
    reduced_to: 9
  - symbol: Li # 14
    coordinates: [  0.834406706023126,  0.334406706330508,  0.827288904316070 ]
    mass: 6.940000
    reduced_to: 9
  - symbol: Li # 15
    coordinates: [  0.334406706023126,  0.834406706330508,  0.827288904316070 ]
    mass: 6.940000
    reduced_to: 9
  - symbol: Li # 16
    coordinates: [  0.834406706023126,  0.834406706330508,  0.827288904316070 ]
    mass: 6.940000
    reduced_to: 9
  - symbol: Li # 17
    coordinates: [  0.193371068415578,  0.193371075938891,  0.367155539317938 ]
    mass: 6.940000
    reduced_to: 17
  - symbol: Li # 18
    coordinates: [  0.693371068415578,  0.193371075938891,  0.367155539317938 ]
    mass: 6.940000
    reduced_to: 17
  - symbol: Li # 19
    coordinates: [  0.193371068415578,  0.693371075938891,  0.367155539317938 ]
    mass: 6.940000
    reduced_to: 17
  - symbol: Li # 20
    coordinates: [  0.693371068415578,  0.693371075938891,  0.367155539317938 ]
    mass: 6.940000
    reduced_to: 17
  - symbol: Li # 21
    coordinates: [  0.193371068415578,  0.193371075938891,  0.867155539317938 ]
    mass: 6.940000
    reduced_to: 17
  - symbol: Li # 22
    coordinates: [  0.693371068415578,  0.193371075938891,  0.867155539317938 ]
    mass: 6.940000
    reduced_to: 17
  - symbol: Li # 23
    coordinates: [  0.193371068415578,  0.693371075938891,  0.867155539317938 ]
    mass: 6.940000
    reduced_to: 17
  - symbol: Li # 24
    coordinates: [  0.693371068415578,  0.693371075938891,  0.867155539317938 ]
    mass: 6.940000
    reduced_to: 17
  - symbol: Li # 25
    coordinates: [  0.032604609884885,  0.032604601973262,  0.184589958211768 ]
    mass: 6.940000
    reduced_to: 25
  - symbol: Li # 26
    coordinates: [  0.532604609884885,  0.032604601973262,  0.184589958211768 ]
    mass: 6.940000
    reduced_to: 25
  - symbol: Li # 27
    coordinates: [  0.032604609884885,  0.532604601973262,  0.184589958211768 ]
    mass: 6.940000
    reduced_to: 25
  - symbol: Li # 28
    coordinates: [  0.532604609884885,  0.532604601973262,  0.184589958211768 ]
    mass: 6.940000
    reduced_to: 25
  - symbol: Li # 29
    coordinates: [  0.032604609884885,  0.032604601973262,  0.684589958211768 ]
    mass: 6.940000
    reduced_to: 25
  - symbol: Li # 30
    coordinates: [  0.532604609884885,  0.032604601973262,  0.684589958211768 ]
    mass: 6.940000
    reduced_to: 25
  - symbol: Li # 31
    coordinates: [  0.032604609884885,  0.532604601973262,  0.684589958211768 ]
    mass: 6.940000
    reduced_to: 25
  - symbol: Li # 32
    coordinates: [  0.532604609884885,  0.532604601973262,  0.684589958211768 ]
    mass: 6.940000
    reduced_to: 25
  - symbol: Sn # 33
    coordinates: [  0.168627136869375,  0.168627134655267,  0.175930052552409 ]
    mass: 118.710000
    reduced_to: 33
  - symbol: Sn # 34
    coordinates: [  0.668627136869375,  0.168627134655267,  0.175930052552409 ]
    mass: 118.710000
    reduced_to: 33
  - symbol: Sn # 35
    coordinates: [  0.168627136869375,  0.668627134655267,  0.175930052552409 ]
    mass: 118.710000
    reduced_to: 33
  - symbol: Sn # 36
    coordinates: [  0.668627136869375,  0.668627134655267,  0.175930052552409 ]
    mass: 118.710000
    reduced_to: 33
  - symbol: Sn # 37
    coordinates: [  0.168627136869375,  0.168627134655267,  0.675930052552409 ]
    mass: 118.710000
    reduced_to: 33
  - symbol: Sn # 38
    coordinates: [  0.668627136869375,  0.168627134655267,  0.675930052552409 ]
    mass: 118.710000
    reduced_to: 33
  - symbol: Sn # 39
    coordinates: [  0.168627136869375,  0.668627134655267,  0.675930052552409 ]
    mass: 118.710000
    reduced_to: 33
  - symbol: Sn # 40
    coordinates: [  0.668627136869375,  0.668627134655267,  0.675930052552409 ]
    mass: 118.710000
    reduced_to: 33
  - symbol: Sn # 41
    coordinates: [  0.359150637587558,  0.359150643745189,  0.018514393242788 ]
    mass: 118.710000
    reduced_to: 41
  - symbol: Sn # 42
    coordinates: [  0.859150637587558,  0.359150643745189,  0.018514393242788 ]
    mass: 118.710000
    reduced_to: 41
  - symbol: Sn # 43
    coordinates: [  0.359150637587558,  0.859150643745189,  0.018514393242788 ]
    mass: 118.710000
    reduced_to: 41
  - symbol: Sn # 44
    coordinates: [  0.859150637587558,  0.859150643745189,  0.018514393242788 ]
    mass: 118.710000
    reduced_to: 41
  - symbol: Sn # 45
    coordinates: [  0.359150637587558,  0.359150643745189,  0.518514393242788 ]
    mass: 118.710000
    reduced_to: 41
  - symbol: Sn # 46
    coordinates: [  0.859150637587558,  0.359150643745189,  0.518514393242788 ]
    mass: 118.710000
    reduced_to: 41
  - symbol: Sn # 47
    coordinates: [  0.359150637587558,  0.859150643745189,  0.518514393242788 ]
    mass: 118.710000
    reduced_to: 41
  - symbol: Sn # 48
    coordinates: [  0.859150637587558,  0.859150643745189,  0.518514393242788 ]
    mass: 118.710000
    reduced_to: 41

displacements:
- atom:    1
  displacement:
    [   0.0100000000000000,  0.0000000000000000,  0.0000000000000000 ]
  forces:
  - [   0.0163128878921270,  0.0094545986503363, -0.0190358739346266 ]
  - [   0.0405190289020538,  0.0123242493718863, -0.0213194601237774 ]
  - [   0.0410784818232059,  0.0114501994103193, -0.0212575383484364 ]
  - [   0.0425965264439583,  0.0110072810202837, -0.0215566530823708 ]
  - [   0.0422372184693813,  0.0123446388170123, -0.0212546326220036 ]
  - [   0.0422373861074448,  0.0123413484543562, -0.0212862025946379 ]
  - [   0.0422384850680828,  0.0123411389067769, -0.0212892591953278 ]
  - [   0.0422420501708984,  0.0123388106003404, -0.0212457831948996 ]
  - [  -0.0200118049979210, -0.0059319902211428,  0.0058040618896484 ]
  - [  -0.0196502245962620, -0.0056210197508335,  0.0054183714091778 ]
  - [  -0.0196338444948196, -0.0058812983334064,  0.0053809061646461 ]
  - [  -0.0197886005043983, -0.0057024601846933,  0.0055190250277519 ]
  - [  -0.0188960060477257, -0.0055224001407623,  0.0062772743403912 ]
  - [  -0.0187786705791950, -0.0061409352347255,  0.0049038231372833 ]
  - [  -0.0192762613296509, -0.0053835688158870,  0.0052526108920574 ]
  - [  -0.0196566358208656, -0.0057198675349355,  0.0055552907288074 ]
  - [   0.0197269804775715,  0.0057710949331522, -0.0053052417933941 ]
  - [   0.0197317153215408,  0.0057641724124551, -0.0052565187215805 ]
  - [   0.0198140367865562,  0.0057729911059141, -0.0052208937704563 ]
  - [   0.0196616649627686,  0.0057377181947231, -0.0053978934884071 ]
  - [   0.0197576396167278,  0.0057905372232199, -0.0048946961760521 ]
  - [   0.0201712511479855,  0.0067420648410916, -0.0048236735165119 ]
  - [   0.0213567540049553,  0.0048793014138937, -0.0043031387031078 ]
  - [   0.0189157016575336,  0.0054525956511497, -0.0045207366347313 ]
  - [  -0.0428011566400528, -0.0127038750797510,  0.0218799300491810 ]
  - [  -0.0423359759151936, -0.0125366291031241,  0.0218321569263935 ]
  - [  -0.0424911379814148, -0.0122989881783724,  0.0217438675463200 ]
  - [  -0.0403480939567089, -0.0114908963441849,  0.0235041566193104 ]
  - [  -0.0422260612249374, -0.0123696774244308,  0.0212504006922245 ]
  - [  -0.0421915054321289, -0.0123304724693298,  0.0212414711713791 ]
  - [  -0.0421959832310677, -0.0123245343565941,  0.0212536081671715 ]
  - [  -0.0422856770455837, -0.0123413223773241,  0.0212178193032742 ]
  - [  -0.0320222787559032, -0.0093385837972164, -0.0117311999201775 ]
  - [  -0.0314192883670330, -0.0078105479478836, -0.0136976018548012 ]
  - [  -0.0293465480208397, -0.0112396180629730, -0.0159042701125145 ]
  - [  -0.0315337330102921, -0.0091967405751348, -0.0116673484444618 ]
  - [  -0.0318338274955750, -0.0092488266527653, -0.0114317759871483 ]
  - [  -0.0317184552550316, -0.0092203170061111, -0.0115881785750389 ]
  - [  -0.0316939055919647, -0.0093098860234022, -0.0116198882460594 ]
  - [  -0.0316664651036263, -0.0092622293159366, -0.0115838944911957 ]
  - [   0.0404067374765873,  0.0118549913167953,  0.0106958523392677 ]
  - [   0.0397367589175701,  0.0085593704134226,  0.0100911930203438 ]
  - [   0.0363813787698746,  0.0127557776868343,  0.0106274038553238 ]
  - [   0.0319231897592545,  0.0092114172875881,  0.0115863233804703 ]
  - [   0.0317218601703644,  0.0092763081192970,  0.0115454569458961 ]
  - [   0.0316645950078964,  0.0092631876468658,  0.0115567222237587 ]
  - [   0.0316738486289978,  0.0092414487153292,  0.0115630477666855 ]
  - [   0.0316960178315639,  0.0092514455318451,  0.0114915594458580 ]
- atom:    1
  displacement:
    [  -0.0100000000000000,  0.0000000000000000,  0.0000000000000000 ]
  forces:
  - [   0.0680635124444962,  0.0152597185224295, -0.0235475711524487 ]
  - [   0.0439522899687290,  0.0123530784621835, -0.0212149322032928 ]
  - [   0.0433905012905598,  0.0132339987903833, -0.0212757065892220 ]
  - [   0.0418723300099373,  0.0136683443561196, -0.0209773406386375 ]
  - [   0.0422243997454643,  0.0123313898220658, -0.0212778709828854 ]
  - [   0.0422248058021069,  0.0123352427035570, -0.0212453231215477 ]
  - [   0.0422234609723091,  0.0123390806838870, -0.0212410092353821 ]
  - [   0.0422126576304436,  0.0123396897688508, -0.0212849210947752 ]
  - [  -0.0192921422421932, -0.0055503072217107,  0.0050463862717152 ]
  - [  -0.0196537151932716, -0.0058635417371988,  0.0054386109113693 ]
  - [  -0.0196729749441147, -0.0056036990135908,  0.0054762586951256 ]
  - [  -0.0195202603936195, -0.0057806624099612,  0.0053438171744347 ]
  - [  -0.0204092450439930, -0.0059621986001730,  0.0045933797955513 ]
  - [  -0.0205296389758587, -0.0053455578163266,  0.0059702470898628 ]
  - [  -0.0200371593236923, -0.0061103375628591,  0.0056287795305252 ]
  - [  -0.0196545757353306, -0.0057678325101733,  0.0053004063665867 ]
  - [   0.0195794142782688,  0.0057140188291669, -0.0055519677698612 ]
  - [   0.0195778347551823,  0.0057225124910474, -0.0055997222661972 ]
  - [   0.0194914713501930,  0.0057114996016026, -0.0056394487619400 ]
  - [   0.0196430459618568,  0.0057463077828288, -0.0054571442306042 ]
  - [   0.0195527039468288,  0.0056932326406240, -0.0059703625738621 ]
  - [   0.0191458612680435,  0.0047402679920197, -0.0060372799634933 ]
  - [   0.0179366506636143,  0.0066192653030157, -0.0065796524286270 ]
  - [   0.0203781686723232,  0.0060249790549278, -0.0063193477690220 ]
  - [  -0.0416634641587734, -0.0119751198217273,  0.0206571258604527 ]
  - [  -0.0421189740300179, -0.0121256764978170,  0.0206801146268845 ]
  - [  -0.0419553443789482, -0.0123879732564092,  0.0207692719995975 ]
  - [  -0.0441160053014755, -0.0131813390180469,  0.0190355200320482 ]
  - [  -0.0422404073178768, -0.0123094394803047,  0.0212833061814308 ]
  - [  -0.0422743968665600, -0.0123474793508649,  0.0212910361588001 ]
  - [  -0.0422710180282593, -0.0123535785824060,  0.0212799552828074 ]
  - [  -0.0421785414218903, -0.0123366480693221,  0.0213138572871685 ]
  - [  -0.0313516445457935, -0.0091763176023960, -0.0114026963710785 ]
  - [  -0.0319176539778709, -0.0106883235275745, -0.0094532817602158 ]
  - [  -0.0339987501502037, -0.0072344765067101, -0.0071688666939735 ]
  - [  -0.0318276397883892, -0.0093111526221037, -0.0114513784646988 ]
  - [  -0.0315298959612846, -0.0092634931206703, -0.0116987153887749 ]
  - [  -0.0316465869545937, -0.0092931576073170, -0.0115447789430618 ]
  - [  -0.0316722244024277, -0.0092023834586143, -0.0115056559443474 ]
  - [  -0.0316965952515602, -0.0092509118840098, -0.0115420594811440 ]
  - [   0.0226016491651535,  0.0065334923565388,  0.0124581009149551 ]
  - [   0.0239148661494255,  0.0098766349256039,  0.0130378976464272 ]
  - [   0.0270618572831154,  0.0058540478348732,  0.0125065669417381 ]
  - [   0.0314560942351818,  0.0093011539429426,  0.0115363076329231 ]
  - [   0.0316472873091698,  0.0092339962720871,  0.0115823298692703 ]
  - [   0.0317026227712631,  0.0092485174536705,  0.0115670263767242 ]
  - [   0.0316968970000744,  0.0092743709683418,  0.0115606486797333 ]
  - [   0.0316784419119358,  0.0092667490243912,  0.0116300433874130 ]
- atom:    1
  displacement:
    [   0.0028014105406397,  0.0008185202226112,  0.0095646287762761 ]
  forces:
  - [   0.0369335301220417,  0.0107918325811625, -0.0409159213304520 ]
  - [   0.0416992083191872,  0.0124510722234845, -0.0212908163666725 ]
  - [   0.0418439880013466,  0.0119587779045105, -0.0212902687489986 ]
  - [   0.0419481694698334,  0.0122553929686546, -0.0215380787849426 ]
  - [   0.0422444753348827,  0.0123420506715775, -0.0212192982435226 ]
  - [   0.0422135815024376,  0.0123268868774176, -0.0212226100265980 ]
  - [   0.0422101952135563,  0.0123403891921043, -0.0212218649685383 ]
  - [   0.0422500818967819,  0.0123458821326494, -0.0211842413991690 ]
  - [  -0.0192807912826538, -0.0056335544213653,  0.0048277191817760 ]
  - [  -0.0196960642933846, -0.0056208828464150,  0.0053452961146832 ]
  - [  -0.0196247920393944, -0.0058682728558779,  0.0053458511829376 ]
  - [  -0.0195994451642036, -0.0057265497744083,  0.0052010677754879 ]
  - [  -0.0194105729460716, -0.0056714247912169,  0.0057175979018211 ]
  - [  -0.0204729959368706, -0.0051096081733704,  0.0069826915860176 ]
  - [  -0.0200023651123047, -0.0067170849069953,  0.0069833509624004 ]
  - [  -0.0197911523282528, -0.0057836510241032,  0.0054938904941082 ]
  - [   0.0196630209684372,  0.0057453922927380, -0.0054170303046703 ]
  - [   0.0194999650120735,  0.0056154616177082, -0.0054441094398499 ]
  - [   0.0194544717669487,  0.0057667996734381, -0.0054445490241051 ]
  - [   0.0196674130856991,  0.0057464279234409, -0.0054202564060688 ]
  - [   0.0195549800992012,  0.0057140560820699, -0.0052291341125965 ]
  - [   0.0208534151315689,  0.0075215492397547, -0.0037092752754688 ]
  - [   0.0216224640607834,  0.0048894602805376, -0.0037087947130203 ]
  - [   0.0198833681643009,  0.0058088358491659, -0.0052450038492680 ]
  - [  -0.0418358668684959, -0.0122237922623754,  0.0216481536626816 ]
  - [  -0.0417239479720592, -0.0123922033235431,  0.0212609581649303 ]
  - [  -0.0418328791856766, -0.0120210088789463,  0.0212608799338341 ]
  - [  -0.0394665673375130, -0.0115305762737989,  0.0253831595182419 ]
  - [  -0.0422490574419498, -0.0123441442847252,  0.0214869510382414 ]
  - [  -0.0422440953552723, -0.0123230945318937,  0.0212804265320301 ]
  - [  -0.0422344058752060, -0.0123585332185030,  0.0212808586657047 ]
  - [  -0.0422929897904396, -0.0123569360002875,  0.0207333788275719 ]
  - [  -0.0317938253283501, -0.0092908143997192, -0.0116213634610176 ]
  - [  -0.0333695560693741, -0.0120605695992708, -0.0063825324177742 ]
  - [  -0.0346123501658440, -0.0078023187816143, -0.0063823238015175 ]
  - [  -0.0316620767116547, -0.0092487381771207, -0.0114402770996094 ]
  - [  -0.0315411500632763, -0.0092155598104000, -0.0118860378861427 ]
  - [  -0.0316525176167488, -0.0092008747160435, -0.0116300806403160 ]
  - [  -0.0316279567778111, -0.0092871123924851, -0.0116265118122101 ]
  - [  -0.0317477546632290, -0.0092755369842052, -0.0114035010337830 ]
  - [   0.0329245291650295,  0.0096196718513966,  0.0112069472670555 ]
  - [   0.0336111970245838,  0.0094643272459507,  0.0112711936235428 ]
  - [   0.0334174707531929,  0.0101187452673912,  0.0112734362483025 ]
  - [   0.0315806232392788,  0.0092270877212286,  0.0116292014718056 ]
  - [   0.0316339507699013,  0.0092399753630161,  0.0114876329898834 ]
  - [   0.0316724963486195,  0.0092413574457169,  0.0115842074155807 ]
  - [   0.0316686183214188,  0.0092641990631819,  0.0115848034620285 ]
  - [   0.0317139700055122,  0.0092672221362591,  0.0116041898727417 ]
- atom:    1
  displacement:
    [  -0.0028014105406397, -0.0008185202226112, -0.0095646287762761 ]
  forces:
  - [   0.0475885309278965,  0.0139051219448447, -0.0017619486898184 ]
  - [   0.0427633933722973,  0.0122276339679956, -0.0212421901524067 ]
  - [   0.0426202863454819,  0.0127199059352279, -0.0212417505681515 ]
  - [   0.0425169207155704,  0.0124218231067061, -0.0210022050887346 ]
  - [   0.0422176383435726,  0.0123341307044029, -0.0213130302727222 ]
  - [   0.0422484762966633,  0.0123495347797871, -0.0213085412979126 ]
  - [   0.0422519072890282,  0.0123401191085577, -0.0213079489767551 ]
  - [   0.0422046333551407,  0.0123325064778328, -0.0213467981666327 ]
  - [  -0.0200154930353165, -0.0058482941240072,  0.0060066655278206 ]
  - [  -0.0196065641939640, -0.0058651333674788,  0.0055121965706348 ]
  - [  -0.0196807533502579, -0.0056142378598452,  0.0055126324295998 ]
  - [  -0.0197089053690434, -0.0057586338371038,  0.0056620910763741 ]
  - [  -0.0198940113186836, -0.0058125592768192,  0.0051459856331348 ]
  - [  -0.0188157893717289, -0.0063912151381373,  0.0038574337959290 ]
  - [  -0.0192961432039738, -0.0047448538243771,  0.0038580745458603 ]
  - [  -0.0195174887776375, -0.0057037649676204,  0.0053640604019165 ]
  - [   0.0196430347859859,  0.0057396618649364, -0.0054420903325081 ]
  - [   0.0198066756129265,  0.0058696707710624, -0.0054150223731995 ]
  - [   0.0198498442769051,  0.0057177543640137, -0.0054152831435204 ]
  - [   0.0196370035409927,  0.0057376055046916, -0.0054356157779694 ]
  - [   0.0197493731975555,  0.0057709012180567, -0.0056255459785461 ]
  - [   0.0184316001832485,  0.0039223171770573, -0.0071688815951347 ]
  - [   0.0176439024507999,  0.0066186543554068, -0.0071684233844280 ]
  - [   0.0194243788719177,  0.0056747710332274, -0.0056134350597858 ]
  - [  -0.0426267758011818, -0.0124549772590399,  0.0208844896405935 ]
  - [  -0.0427312478423119, -0.0122817140072584,  0.0212685726583004 ]
  - [  -0.0426222980022430, -0.0126565210521221,  0.0212686695158482 ]
  - [  -0.0449352040886879, -0.0131283886730671,  0.0172317624092102 ]
  - [  -0.0422167368233204, -0.0123346224427223,  0.0210447832942009 ]
  - [  -0.0422215610742569, -0.0123552419245243,  0.0212518461048603 ]
  - [  -0.0422325469553471, -0.0123192369937897,  0.0212521832436323 ]
  - [  -0.0421709120273590, -0.0123213874176145,  0.0218098089098930 ]
  - [  -0.0315702483057976, -0.0092249233275652, -0.0115031525492668 ]
  - [  -0.0300389304757118, -0.0065470226109028, -0.0166573077440262 ]
  - [  -0.0288361907005310, -0.0106548238545656, -0.0166571363806725 ]
  - [  -0.0317050851881504, -0.0092618111521006, -0.0116829276084900 ]
  - [  -0.0318225771188736, -0.0092977955937386, -0.0112435817718506 ]
  - [  -0.0317151956260204, -0.0093136057257652, -0.0115054845809937 ]
  - [  -0.0317415446043015, -0.0092261442914605, -0.0115022063255310 ]
  - [  -0.0316130146384239, -0.0092363590374589, -0.0117243155837059 ]
  - [   0.0304656550288200,  0.0089008249342442,  0.0119221135973930 ]
  - [   0.0297460965812206,  0.0090544540435076,  0.0118496641516685 ]
  - [   0.0299405008554459,  0.0083830803632736,  0.0118520334362984 ]
  - [   0.0317909345030785,  0.0092890262603760,  0.0114965438842773 ]
  - [   0.0317367538809776,  0.0092700086534023,  0.0116399452090263 ]
  - [   0.0316946282982826,  0.0092702042311430,  0.0115384384989738 ]
  - [   0.0317022725939751,  0.0092516951262951,  0.0115382075309753 ]
  - [   0.0316608101129532,  0.0092518627643585,  0.0115165784955025 ]
- atom:    9
  displacement:
    [   0.0100000000000000,  0.0000000000000000,  0.0000000000000000 ]
  forces:
  - [   0.0418696999549866,  0.0121476985514164, -0.0207563973963261 ]
  - [   0.0422313883900642,  0.0122270975261927, -0.0213065370917320 ]
  - [   0.0422498285770416,  0.0124331507831812, -0.0212521627545357 ]
  - [   0.0421003550291061,  0.0123769771307707, -0.0211758650839329 ]
  - [   0.0429881922900677,  0.0125579442828894, -0.0212545022368431 ]
  - [   0.0431085303425789,  0.0119302412495017, -0.0223487298935652 ]
  - [   0.0426150523126125,  0.0127187501639128, -0.0217814221978188 ]
  - [   0.0422272123396397,  0.0123635847121477, -0.0214093662798405 ]
  - [  -0.0369303338229656, -0.0063272519037127,  0.0076139867305756 ]
  - [  -0.0196751132607460, -0.0057842154055834,  0.0054548718035221 ]
  - [  -0.0197035819292068, -0.0057435818016529,  0.0054353624582291 ]
  - [  -0.0190511792898178, -0.0071263527497649,  0.0056768581271172 ]
  - [  -0.0196597352623940, -0.0057542156428099,  0.0054764486849308 ]
  - [  -0.0196544192731380, -0.0057451855391264,  0.0054364092648029 ]
  - [  -0.0196561366319656, -0.0057411771267653,  0.0054333396255970 ]
  - [  -0.0196892693638802, -0.0057439096271992,  0.0054493919014931 ]
  - [   0.0235831514000893,  0.0069311177358031, -0.0063055083155632 ]
  - [   0.0224478878080845,  0.0046936627477407, -0.0049422048032284 ]
  - [   0.0207340493798256,  0.0073598064482212, -0.0051074288785458 ]
  - [   0.0187267288565636,  0.0057690506801009, -0.0052236430346966 ]
  - [   0.0196498259902000,  0.0057442542165518, -0.0054178647696972 ]
  - [   0.0196239389479160,  0.0057862410321832, -0.0053644180297852 ]
  - [   0.0196804814040661,  0.0056981081143022, -0.0053337104618549 ]
  - [   0.0196559540927410,  0.0057399636134505, -0.0054382197558880 ]
  - [  -0.0421253331005573, -0.0122903175652027,  0.0211307834833860 ]
  - [  -0.0417140983045101, -0.0113369645550847,  0.0222933851182461 ]
  - [  -0.0405271053314209, -0.0132038854062557,  0.0229049846529961 ]
  - [  -0.0429672896862030, -0.0126267690211535,  0.0217483714222908 ]
  - [  -0.0421593897044659, -0.0123108755797148,  0.0212526191025972 ]
  - [  -0.0421555265784264, -0.0121755385771394,  0.0210687424987555 ]
  - [  -0.0420712009072304, -0.0124507416039705,  0.0210209339857101 ]
  - [  -0.0422217473387718, -0.0123432530090213,  0.0212796926498413 ]
  - [  -0.0313882455229759, -0.0091728717088699, -0.0113998875021935 ]
  - [  -0.0272566899657249, -0.0113878641277552, -0.0165526792407036 ]
  - [  -0.0303054079413414, -0.0072127105668187, -0.0139836147427559 ]
  - [  -0.0315886996686459, -0.0092053776606917, -0.0113469138741493 ]
  - [  -0.0316806733608246, -0.0092896725982428, -0.0115502178668976 ]
  - [  -0.0317475721240044, -0.0092682056128979, -0.0117559656500816 ]
  - [  -0.0317171290516853, -0.0092526264488697, -0.0117338076233864 ]
  - [  -0.0318108573555946, -0.0092259244993329, -0.0113682895898819 ]
  - [   0.0318610854446888,  0.0093036331236362,  0.0113400444388390 ]
  - [   0.0316574648022652,  0.0092382747679949,  0.0115094184875488 ]
  - [   0.0316473320126534,  0.0092565454542637,  0.0114995539188385 ]
  - [   0.0317402258515358,  0.0093320980668068,  0.0117595419287682 ]
  - [   0.0319812819361687,  0.0093870945274830,  0.0146361887454987 ]
  - [   0.0316782593727112,  0.0093859750777483,  0.0115511640906334 ]
  - [   0.0317380167543888,  0.0091306865215302,  0.0115933716297150 ]
  - [   0.0316607803106308,  0.0092074796557426,  0.0115438699722290 ]
- atom:    9
  displacement:
    [  -0.0100000000000000,  0.0000000000000000,  0.0000000000000000 ]
  forces:
  - [   0.0425894074141979,  0.0125293973833323, -0.0217683669179678 ]
  - [   0.0422279126942158,  0.0124485958367586, -0.0212309323251247 ]
  - [   0.0422106683254242,  0.0122466208413243, -0.0212832372635603 ]
  - [   0.0423686094582081,  0.0122988112270832, -0.0213622227311134 ]
  - [   0.0414746403694153,  0.0121179958805442, -0.0212784800678492 ]
  - [   0.0413574352860451,  0.0127535685896873, -0.0201735347509384 ]
  - [   0.0418543554842472,  0.0119640678167343, -0.0207558535039425 ]
  - [   0.0422292575240135,  0.0123156253248453, -0.0211198572069407 ]
  - [  -0.0023557245731354, -0.0050812223926187,  0.0032716318964958 ]
  - [  -0.0196289084851742, -0.0056976415216923,  0.0053988806903362 ]
  - [  -0.0196022763848305, -0.0057433992624283,  0.0054194889962673 ]
  - [  -0.0202523134648800, -0.0043551865965128,  0.0051758363842964 ]
  - [  -0.0196492150425911, -0.0057311579585075,  0.0053847767412663 ]
  - [  -0.0196558833122253, -0.0057408586144447,  0.0054223164916039 ]
  - [  -0.0196524821221828, -0.0057449210435152,  0.0054265670478344 ]
  - [  -0.0196169912815094, -0.0057428386062384,  0.0054094046354294 ]
  - [   0.0156403444707394,  0.0045217797160149, -0.0045304000377655 ]
  - [   0.0169139280915260,  0.0067660957574844, -0.0059009678661823 ]
  - [   0.0185759365558624,  0.0041483007371426, -0.0057415626943111 ]
  - [   0.0205824412405491,  0.0057125370949507, -0.0056367665529251 ]
  - [   0.0196573138237000,  0.0057412544265389, -0.0054366439580917 ]
  - [   0.0196837335824966,  0.0056997286155820, -0.0054924152791500 ]
  - [   0.0196282900869846,  0.0057869255542755, -0.0055219829082489 ]
  - [   0.0196524150669575,  0.0057440577074885, -0.0054147168993950 ]
  - [  -0.0423300787806511, -0.0123877935111523,  0.0214024093002081 ]
  - [  -0.0427392721176147, -0.0133453356102109,  0.0202336832880974 ]
  - [  -0.0439472571015358, -0.0114574702456594,  0.0195974707603455 ]
  - [  -0.0415052548050880, -0.0120544452220201,  0.0207911822944880 ]
  - [  -0.0423069261014462, -0.0123680895194411,  0.0212797410786152 ]
  - [  -0.0423092879354954, -0.0125010618939996,  0.0214623305946589 ]
  - [  -0.0423936992883682, -0.0122283855453134,  0.0215096510946751 ]
  - [  -0.0422404408454895, -0.0123346885666251,  0.0212524496018887 ]
  - [  -0.0319759212434292, -0.0093419738113880, -0.0117228254675865 ]
  - [  -0.0360844656825066, -0.0071834120899439, -0.0066565424203873 ]
  - [  -0.0330971814692020, -0.0113091627135873, -0.0091322585940361 ]