# Thermal properties / unit cell (natom)

unit:
  temperature:   K
  free_energy:   kJ/mol
  entropy:       J/K/mol
  heat_capacity: J/K/mol

natom: 6    
cutoff_frequency: 0.00000
num_modes: 258048
num_integrated_modes: 258047

zero_point_energy:      22.5084162

thermal_properties:
- temperature:         0.0000000
  free_energy:        22.5084162
  entropy:             0.0000000
  heat_capacity:       0.0000000
  energy:             22.5084162

- temperature:        10.0000000
  free_energy:        22.5070280
  entropy:             0.5458294
  heat_capacity:       1.7594404
  energy:             22.5124863

- temperature:        20.0000000
  free_energy:        22.4856363
  entropy:             4.4320708
  heat_capacity:      11.7041379
  energy:             22.5742777

- temperature:        30.0000000
  free_energy:        22.4078751
  entropy:            11.4336224
  heat_capacity:      23.2757787
  energy:             22.7508838

- temperature:        40.0000000
  free_energy:        22.2538009
  entropy:            19.4368431
  heat_capacity:      32.4459450
  energy:             23.0312746

- temperature:        50.0000000
  free_energy:        22.0189236
  entropy:            27.5273413
  heat_capacity:      40.2469321
  energy:             23.3952906

- temperature:        60.0000000
  free_energy:        21.7035585
  entropy:            35.5315348
  heat_capacity:      47.7909853
  energy:             23.8354506

- temperature:        70.0000000
  free_energy:        21.3085078
  entropy:            43.4709325
  heat_capacity:      55.4299060
  energy:             24.3514730

- temperature:        80.0000000
  free_energy:        20.8342606
  entropy:            51.3730097
  heat_capacity:      63.0811148
  energy:             24.9441014

- temperature:        90.0000000
  free_energy:        20.2811747
  entropy:            59.2362357
  heat_capacity:      70.5356134
  energy:             25.6124359

- temperature:       100.0000000
  free_energy:        19.6497404
  entropy:            67.0378495
  heat_capacity:      77.6059879
  energy:             26.3535253

- temperature:       110.0000000
  free_energy:        18.9407270
  entropy:            74.7466913
  heat_capacity:      84.1707695
  energy:             27.1628631

- temperature:       120.0000000
  free_energy:        18.1552189
  entropy:            82.3319967
  heat_capacity:      90.1724731
  energy:             28.0350585

- temperature:       130.0000000
  free_energy:        17.2945862
  entropy:            89.7677939
  heat_capacity:      95.6012308
  energy:             28.9643994

- temperature:       140.0000000
  free_energy:        16.3604278
  entropy:            97.0343756
  heat_capacity:     100.4777125
  energy:             29.9452404

- temperature:       150.0000000
  free_energy:        15.3545085
  entropy:           104.1181961
  heat_capacity:     104.8397203
  energy:             30.9722379

- temperature:       160.0000000
  free_energy:        14.2787008
  entropy:           111.0110697
  heat_capacity:     108.7329513
  energy:             32.0404720

- temperature:       170.0000000
  free_energy:        13.1349367
  entropy:           117.7091585
  heat_capacity:     112.2051587
  energy:             33.1454937

- temperature:       180.0000000
  free_energy:        11.9251688
  entropy:           124.2119886
  heat_capacity:     115.3027332
  energy:             34.2833268

- temperature:       190.0000000
  free_energy:        10.6513412
  entropy:           130.5215938
  heat_capacity:     118.0688868
  energy:             35.4504441

- temperature:       200.0000000
  free_energy:         9.3153684
  entropy:           136.6418130
  heat_capacity:     120.5428376
  energy:             36.6437310

- temperature:       210.0000000
  free_energy:         7.9191194
  entropy:           142.5777360
  heat_capacity:     122.7595927
  energy:             37.8604440

- temperature:       220.0000000
  free_energy:         6.4644083
  entropy:           148.3352757
  heat_capacity:     124.7500675
  energy:             39.0981690

- temperature:       230.0000000
  free_energy:         4.9529871
  entropy:           153.9208463
  heat_capacity:     126.5413779
  energy:             40.3547818

- temperature:       240.0000000
  free_energy:         3.3865424
  entropy:           159.3411232
  heat_capacity:     128.1572080
  energy:             41.6284119

- temperature:       250.0000000
  free_energy:         1.7666931
  entropy:           164.6028680
  heat_capacity:     129.6181964
  energy:             42.9174101

- temperature:       260.0000000
  free_energy:         0.0949910
  entropy:           169.7128032
  heat_capacity:     130.9423098
  energy:             44.2203199

- temperature:       270.0000000
  free_energy:        -1.6270789
  entropy:           174.6775235
  heat_capacity:     132.1451878
  energy:             45.5358524

- temperature:       280.0000000
  free_energy:        -3.3980968
  entropy:           179.5034353
  heat_capacity:     133.2404531
  energy:             46.8628651

- temperature:       290.0000000
  free_energy:        -5.2167056
  entropy:           184.1967176
  heat_capacity:     134.2399847
  energy:             48.2003425

- temperature:       300.0000000
  free_energy:        -7.0816088
  entropy:           188.7632974
  heat_capacity:     135.1541568
  energy:             49.5473804

- temperature:       310.0000000
  free_energy:        -8.9915681
  entropy:           193.2088374
  heat_capacity:     135.9920449
  energy:             50.9031715

- temperature:       320.0000000
  free_energy:       -10.9454001
  entropy:           197.5387305
  heat_capacity:     136.7616041
  energy:             52.2669937

- temperature:       330.0000000
  free_energy:       -12.9419743
  entropy:           201.7581016
  heat_capacity:     137.4698212
  energy:             53.6381992

- temperature:       340.0000000
  free_energy:       -14.9802100
  entropy:           205.8718122
  heat_capacity:     138.1228459
  energy:             55.0162062

- temperature:       350.0000000
  free_energy:       -17.0590737
  entropy:           209.8844687
  heat_capacity:     138.7261028
  energy:             56.4004903

- temperature:       360.0000000
  free_energy:       -19.1775770
  entropy:           213.8004318
  heat_capacity:     139.2843874
  energy:             57.7905784

- temperature:       370.0000000
  free_energy:       -21.3347738
  entropy:           217.6238276
  heat_capacity:     139.8019484
  energy:             59.1860424

- temperature:       380.0000000
  free_energy:       -23.5297581
  entropy:           221.3585587
  heat_capacity:     140.2825583
  energy:             60.5864942

- temperature:       390.0000000
  free_energy:       -25.7616618
  entropy:           225.0083163
  heat_capacity:     140.7295739
  energy:             61.9915816

- temperature:       400.0000000
  free_energy:       -28.0296528
  entropy:           228.5765914
  heat_capacity:     141.1459883
  energy:             63.4009837

- temperature:       410.0000000
  free_energy:       -30.3329330
  entropy:           232.0666862
  heat_capacity:     141.5344766
  energy:             64.8144083

- temperature:       420.0000000
  free_energy:       -32.6707364
  entropy:           235.4817252
  heat_capacity:     141.8974337
  energy:             66.2315882

- temperature:       430.0000000
  free_energy:       -35.0423272
  entropy:           238.8246658
  heat_capacity:     142.2370085
  energy:             67.6522791

- temperature:       440.0000000
  free_energy:       -37.4469987
  entropy:           242.0983082
  heat_capacity:     142.5551327
  energy:             69.0762569

- temperature:       450.0000000
  free_energy:       -39.8840712
  entropy:           245.3053051
  heat_capacity:     142.8535463
  energy:             70.5033160

- temperature:       460.0000000
  free_energy:       -42.3528911
  entropy:           248.4481705
  heat_capacity:     143.1338194
  energy:             71.9332674

- temperature:       470.0000000
  free_energy:       -44.8528288
  entropy:           251.5292884
  heat_capacity:     143.3973712
  energy:             73.3659367

- temperature:       480.0000000
  free_energy:       -47.3832785
  entropy:           254.5509206
  heat_capacity:     143.6454871
  energy:             74.8011633

- temperature:       490.0000000
  free_energy:       -49.9436561
  entropy:           257.5152143
  heat_capacity:     143.8793330
  energy:             76.2387989

- temperature:       500.0000000
  free_energy:       -52.5333985
  entropy:           260.4242090
  heat_capacity:     144.0999685
  energy:             77.6787060

- temperature:       510.0000000
  free_energy:       -55.1519625
  entropy:           263.2798429
  heat_capacity:     144.3083577
  energy:             79.1207574

- temperature:       520.0000000
  free_energy:       -57.7988237
  entropy:           266.0839595
  heat_capacity:     144.5053797
  energy:             80.5648353

- temperature:       530.0000000
  free_energy:       -60.4734758
  entropy:           268.8383125
  heat_capacity:     144.6918370
  energy:             82.0108298

- temperature:       540.0000000
  free_energy:       -63.1754296
  entropy:           271.5445719
  heat_capacity:     144.8684633
  energy:             83.4586392

- temperature:       550.0000000
  free_energy:       -65.9042122
  entropy:           274.2043287
  heat_capacity:     145.0359304
  energy:             84.9081686

- temperature:       560.0000000
  free_energy:       -68.6593662
  entropy:           276.8190993
  heat_capacity:     145.1948544
  energy:             86.3593294

- temperature:       570.0000000
  free_energy:       -71.4404491
  entropy:           279.3903301
  heat_capacity:     145.3458010
  energy:             87.8120391

- temperature:       580.0000000
  free_energy:       -74.2470323
  entropy:           281.9194015
  heat_capacity:     145.4892902
  energy:             89.2662205

- temperature:       590.0000000
  free_energy:       -77.0787010
  entropy:           284.4076315
  heat_capacity:     145.6258008
  energy:             90.7218016

- temperature:       600.0000000
  free_energy:       -79.9350530
  entropy:           286.8562796
  heat_capacity:     145.7557741
  energy:             92.1787148

- temperature:       610.0000000
  free_energy:       -82.8156986
  entropy:           289.2665497
  heat_capacity:     145.8796173
  energy:             93.6368967

- temperature:       620.0000000
  free_energy:       -85.7202599
  entropy:           291.6395933
  heat_capacity:     145.9977070
  energy:             95.0962879

- temperature:       630.0000000
  free_energy:       -88.6483701
  entropy:           293.9765125
  heat_capacity:     146.1103910
  energy:             96.5568328

- temperature:       640.0000000
  free_energy:       -91.5996733
  entropy:           296.2783626
  heat_capacity:     146.2179920
  energy:             98.0184788

- temperature:       650.0000000
  free_energy:       -94.5738238
  entropy:           298.5461547
  heat_capacity:     146.3208087
  energy:             99.4811767

- temperature:       660.0000000
  free_energy:       -97.5704861
  entropy:           300.7808577
  heat_capacity:     146.4191187
  energy:            100.9448800

- temperature:       670.0000000
  free_energy:      -100.5893338
  entropy:           302.9834010
  heat_capacity:     146.5131796
  energy:            102.4095449

- temperature:       680.0000000
  free_energy:      -103.6300499
  entropy:           305.1546766
  heat_capacity:     146.6032312
  energy:            103.8751302

- temperature:       690.0000000
  free_energy:      -106.6923260
  entropy:           307.2955404
  heat_capacity:     146.6894966
  energy:            105.3415969

- temperature:       700.0000000
  free_energy:      -109.7758621
  entropy:           309.4068147
  heat_capacity:     146.7721838
  energy:            106.8089082

- temperature:       710.0000000
  free_energy:      -112.8803663
  entropy:           311.4892895
  heat_capacity:     146.8514868
  energy:            108.2770293

- temperature:       720.0000000
  free_energy:      -116.0055544
  entropy:           313.5437245
  heat_capacity:     146.9275866
  energy:            109.7459273

- temperature:       730.0000000
  free_energy:      -119.1511497
  entropy:           315.5708502
  heat_capacity:     147.0006524
  energy:            111.2155709

- temperature:       740.0000000
  free_energy:      -122.3168827
  entropy:           317.5713695
  heat_capacity:     147.0708425
  energy:            112.6859307

- temperature:       750.0000000
  free_energy:      -125.5024907
  entropy:           319.5459592
  heat_capacity:     147.1383050
  energy:            114.1569787

- temperature:       760.0000000
  free_energy:      -128.7077176
  entropy:           321.4952708
  heat_capacity:     147.2031786
  energy:            115.6286882

- temperature:       770.0000000
  free_energy:      -131.9323139
  entropy:           323.4199325
  heat_capacity:     147.2655934
  energy:            117.1010341

- temperature:       780.0000000
  free_energy:      -135.1760361
  entropy:           325.3205493
  heat_capacity:     147.3256716
  energy:            118.5739923

- temperature:       790.0000000
  free_energy:      -138.4386467
  entropy:           327.1977048
  heat_capacity:     147.3835276
  energy:            120.0475401

- temperature:       800.0000000
  free_energy:      -141.7199139
  entropy:           329.0519621
  heat_capacity:     147.4392693
  energy:            121.5216558

- temperature:       810.0000000
  free_energy:      -145.0196114
  entropy:           330.8838644
  heat_capacity:     147.4929979
  energy:            122.9963188

- temperature:       820.0000000
  free_energy:      -148.3375184
  entropy:           332.6939363
  heat_capacity:     147.5448087
  energy:            124.4715094

- temperature:       830.0000000
  free_energy:      -151.6734191
  entropy:           334.4826843
  heat_capacity:     147.5947916
  energy:            125.9472088

- temperature:       840.0000000
  free_energy:      -155.0271027
  entropy:           336.2505977
  heat_capacity:     147.6430311
  energy:            127.4233994

- temperature:       850.0000000
  free_energy:      -158.3983632
  entropy:           337.9981495
  heat_capacity:     147.6896070
  energy:            128.9000639

- temperature:       860.0000000
  free_energy:      -161.7869993
  entropy:           339.7257971
  heat_capacity:     147.7345947
  energy:            130.3771862

- temperature:       870.0000000
  free_energy:      -165.1928142
  entropy:           341.4339828
  heat_capacity:     147.7780653
  energy:            131.8547508

- temperature:       880.0000000
  free_energy:      -168.6156155
  entropy:           343.1231343
  heat_capacity:     147.8200858
  energy:            133.3327427

- temperature:       890.0000000
  free_energy:      -172.0552149
  entropy:           344.7936660
  heat_capacity:     147.8607199
  energy:            134.8111479

- temperature:       900.0000000
  free_energy:      -175.5114281
  entropy:           346.4459786
  heat_capacity:     147.9000277
  energy:            136.2899527

- temperature:       910.0000000
  free_energy:      -178.9840750
  entropy:           348.0804606
  heat_capacity:     147.9380660
  energy:            137.7691442

- temperature:       920.0000000
  free_energy:      -182.4729791
  entropy:           349.6974881
  heat_capacity:     147.9748887
  energy:            139.2487099

- temperature:       930.0000000
  free_energy:      -185.9779678
  entropy:           351.2974257
  heat_capacity:     148.0105469
  energy:            140.7286381

- temperature:       940.0000000
  free_energy:      -189.4988719
  entropy:           352.8806266
  heat_capacity:     148.0450890
  energy:            142.2089172

- temperature:       950.0000000
  free_energy:      -193.0355257
  entropy:           354.4474337
  heat_capacity:     148.0785609
  energy:            143.6895363

- temperature:       960.0000000
  free_energy:      -196.5877670
  entropy:           355.9981791
  heat_capacity:     148.1110063
  energy:            145.1704850

- temperature:       970.0000000
  free_energy:      -200.1554368
  entropy:           357.5331855
  heat_capacity:     148.1424665
  energy:            146.6517531

- temperature:       980.0000000
  free_energy:      -203.7383793
  entropy:           359.0527657
  heat_capacity:     148.1729809
  energy:            148.1333311

- temperature:       990.0000000
  free_energy:      -207.3364417
  entropy:           360.5572237
  heat_capacity:     148.2025869
  energy:            149.6152097

- temperature:      1000.0000000
  free_energy:      -210.9494743
  entropy:           362.0468543
  heat_capacity:     148.2313202
  energy:            151.0973800
