14
Lattice="5.651642700816186 4.0448862375195054e-05 -0.004882267790676935 -2.827742313198303 4.897105446966753 0.002720076554726163 0.00024232596692155503 0.0003405782038039743 10.311865879884467" Properties=species:S:1:pos:R:3:forces:R:3 structure_index=0 total_energy=-42.76057434082031 stress="0.00849617924541235 -0.00014592523803003132 0.00020470634626690298 -0.00014607346383854747 0.008642238564789295 -0.0002023295674007386 0.00020447105634957552 -0.00020182764274068177 0.020907457917928696" pbc="T T T"
Li       1.37335576       4.46528254       5.52078369       0.00084034       0.00227005      -0.00335380
Li      -1.45350388       4.46900887       1.85171544       0.00482831      -0.00847918       0.02358950
Li       1.37422534       4.46494368       0.36764916      -0.00417834      -0.00006082      -0.02295436
Li      -1.44715184       4.46913846       7.00889716       0.00062644      -0.00456838       0.01835879
Li      -0.03442507       2.01895108       7.00998794       0.00569102       0.00085843       0.01782786
Li      -0.03784384       2.01728893       1.85678286       0.00054918       0.00305314       0.01059406
Li       2.79519842       2.01710870       7.01079911      -0.00742254       0.00241130       0.01176915
Li       2.78952525       2.01628991       1.85259584       0.00151767       0.00350966       0.01708717
Sn       1.38284548       4.46626466       8.13344129       0.00144457       0.00013579      -0.02904215
Sn      -1.44655589       2.83650107       4.42889766      -0.00553379       0.00269266      -0.00415513
Sn       1.37931088       1.19924523       9.58354190      -0.00332806       0.00381636      -0.00853138
Sn       1.37499873       4.46377708       2.97676271       0.00120493       0.00091629      -0.02658042
Sn       1.37630585       1.20520478       4.42773975       0.00420572      -0.00529952      -0.00777641
Sn      -1.44660965       2.83487461       9.58359335      -0.00044545      -0.00125575       0.00316709
15
Lattice="6.030790436230663 -0.15150574679095222 -9.693764591324708e-05 0.2929579818989027 5.01506237133167 0.00023023219703744254 -0.0006230445542254265 -0.0004044586056961076 9.615743257794568" Properties=species:S:1:pos:R:3:forces:R:3 structure_index=1 total_energy=-41.99877166748047 stress="0.009316232055425644 0.0018452205695211887 4.983836788596818e-06 0.0018450361676514149 0.012226009741425514 8.615152182755992e-06 5.057962880528066e-06 8.844544026942458e-06 0.016956832259893417" pbc="T T T"
Li       0.51880326       1.67602042       2.01885293       0.00213799      -0.02816942       0.01924719
Li       2.03755653       0.99417168       4.37792874       0.00024715       0.03624250       0.00010399
Li       2.16946905       4.06390205       1.83153361       0.00302010      -0.01763829       0.01089183
Li       3.62932137       3.33581853       4.37871332       0.00743751       0.04441059      -0.00011893
Li       5.13205620       3.96707945       6.65335663       0.01377164      -0.01928826       0.01111436
Li       4.12640368       3.02653538       9.18619415      -0.04062169       0.02518533       0.00002788
Li       2.16980913       4.06224336       6.92540330       0.00273791      -0.01734407      -0.01087793
Li       5.06954796       1.00205615       4.37797549      -0.00613055       0.02083857       0.00004689
Li       5.13128693       3.96863016       2.10394004       0.01412418      -0.01949177      -0.01125468
Li       2.14278600       1.01719888       9.18599602      -0.00768683      -0.00678841       0.00003217
Li       0.51900784       1.67387337       6.73683346       0.00203246      -0.02780250      -0.01908716
Sn       3.55665247       1.46835187       6.81356763       0.00510724      -0.01785345       0.00340111
Sn       5.33148163       0.35901936       9.18626601      -0.00036576       0.02189525      -0.00001593
Sn       3.55640088       1.46990365       1.94292226       0.00538498      -0.01818031      -0.00347538
Sn       0.71180416       3.64848355       4.37845458      -0.00119636       0.02398429      -0.00003543
8
Lattice="5.058651665407091 0.0007467907429114178 -7.229507371565408e-05 -2.5289234652075567 4.38357475907871 0.0006269859664664068 0.00022968238687837454 -0.0007723136687141118 9.84149571268656" Properties=species:S:1:pos:R:3:forces:R:3 structure_index=2 total_energy=-28.197368621826172 stress="-0.012628288939595222 9.197676263283938e-05 -4.121436722925864e-05 9.188498370349407e-05 -0.012658820487558842 0.00016624869022052735 -4.136776988161728e-05 0.00016634224448353052 -0.023510750383138657" pbc="T T T"
Li       1.95644157       2.62255253       7.21824883       0.00109704      -0.00057533       0.00110074
Li       1.95629095       2.62267066       2.29747445       0.00051770       0.00024782       0.00102096
Sn      -0.57229859       1.15991505       8.09931263      -0.00021591      -0.00024953      -0.04604517
Sn      -0.57150081       4.08128897       9.68216613      -0.00026466      -0.00015797      -0.00274215
Sn      -0.57245343       4.08384443       6.34490117      -0.00055702       0.00094188       0.04783525
Sn      -0.57311920       1.16288502       4.76446719      -0.00047659      -0.00009861      -0.00253216
Sn      -0.57272781       1.16056686       1.42743999      -0.00003777      -0.00056869       0.04652908
Sn      -0.57297868       4.08425592       3.17542166      -0.00006279       0.00046043      -0.04516655
20
Lattice="5.007288374736396 4.296870373088239e-05 4.4145512699689884e-05 5.3123786740231054e-05 7.69302420647442 -3.374665253858133 -0.00019491875936573583 0.13240720997446512 11.096542348495618" Properties=species:S:1:pos:R:3:forces:R:3 structure_index=3 total_energy=-64.86100006103516 stress="-0.0007052340661175549 2.972831134684384e-05 -3.969452882301994e-05 2.9731088943663053e-05 0.0056921206414699554 0.00452498160302639 -3.9682196074863896e-05 0.004524862393736839 -0.008170337416231632" pbc="T T T"
Li       3.83790735       5.56366767       3.31887792      -0.00022638       0.00548830       0.01323274
Li       3.83794642       2.43209897       2.43051968      -0.00032859      -0.00311155       0.00320210
Li       1.33349955       0.31758415       9.37990466       0.00017981      -0.00289957      -0.00446959
Li       1.33406858       2.73598549       7.12615534      -0.00026891       0.01433566      -0.04012077
Li       3.83807707       0.95816402       7.51962516      -0.00049252       0.00222250       0.00498120
Li       1.33406259       3.35391031      -0.82807726       0.00010415       0.01092613      -0.02281520
Li       1.33332674       4.99376204       5.02972313       0.00028088       0.00315159       0.01090766
Li       1.33394080       6.52484341       0.03330397       0.00006977       0.00441047      -0.01615992
Li       1.33344667       1.95928850       4.24903569       0.00027581       0.01376385      -0.01631559
Li       3.83761818       6.91093610      -1.73413261       0.00000908      -0.02812539       0.01528499
Sn       3.83783266       4.74335138       0.38628425      -0.00019610      -0.01597614       0.02563611
Sn       3.83745509       0.16465236       4.55817006       0.00011614       0.01077265       0.03844838
Sn       1.33362223       5.76428221       8.09361536       0.00019707      -0.01243073      -0.02588194
Sn       3.83701779       3.23874136       5.37206946       0.00048608      -0.00606398       0.00196657
Sn       1.33428035       4.23065718       2.14623214      -0.00015914       0.00633731      -0.02152972
Sn       3.83701390       6.36021124       6.18241414       0.00035038      -0.01952262       0.02436882
Sn       3.83763705       1.47956528      -0.48099322      -0.00004301      -0.00930453       0.03934989
Sn       1.33426794       7.36727545       3.03862873      -0.00021719       0.02321407      -0.02158449
Sn       3.83754390       3.84361469       8.43036245      -0.00005531      -0.00234866       0.00316493
Sn       1.33408465       1.04717928       1.31117744      -0.00008205       0.00516067      -0.01166615
7
Lattice="3.360439968524906 -4.200529656108065e-06 -0.48747288437415015 -0.1209357563517911 4.366006857684651 -0.8336756056012447 -0.0007055399410844913 -0.0019856568303885445 11.842260419481438" Properties=species:S:1:pos:R:3:forces:R:3 structure_index=4 total_energy=-24.814430236816406 stress="0.0035007118713110685 0.001784048625268042 0.003212481737136841 0.0017840173095464706 -0.04014219343662262 0.011467554606497288 0.0032124079298228025 0.01146760769188404 0.018185878172516823" pbc="T T T"
Li       0.97404991       2.02601080       0.51289062      -0.00501611      -0.00778443      -0.02855168
Li       1.89864042       3.27041943       6.92723367       0.00500522       0.00748764       0.02861688
Sn       2.92976957       0.13139401       2.17231379      -0.00227409      -0.00484111      -0.01780203
Sn       1.43647530       2.64698586       3.72002724       0.00007406       0.00079863       0.00051136
Sn       0.06421251       0.79770265       6.10207257       0.00202726       0.00492921       0.01685305
Sn       2.36370544       3.89835986      10.11969432      -0.00009277      -0.00158613       0.00033504
Sn       0.50790602       1.39742949       9.16252085       0.00027643       0.00099621       0.00003738
12
Lattice="4.813824639320155 6.495951059834525e-05 -0.00025370005608168805 -0.00011767728913537739 4.813694480086744 -0.00031179454752714456 -0.00016763124673513716 -7.926993362824433e-05 10.145129905324275" Properties=species:S:1:pos:R:3:forces:R:3 structure_index=5 total_energy=-26.57317352294922 stress="0.01584446430206299 -3.157825267408043e-05 -7.747046038275585e-05 -3.149859549012035e-05 0.01573287509381771 -7.947714038891718e-05 -7.751869998173788e-05 -7.944572280393913e-05 0.015761274844408035" pbc="T T T"
Li       3.87781972       0.39384770       0.23027263       0.00104617       0.00127002      -0.03281024
Li       1.47339707       2.80044295       3.80732984       0.00081791       0.00144951       0.02573051
Li       3.88094956       2.79957437       2.13604923      -0.00113562       0.00125255       0.00216710
Li       1.47141015       0.39411684       5.65769049       0.00074849      -0.00110508       0.00172426
Li       1.47722649       2.79935442       7.21786080      -0.00312054       0.00179522      -0.00696931
Li       3.87836283       0.39310556       4.04059203       0.00004664       0.00104945       0.03698660
Li       1.47197869       0.39380868       8.76819895      -0.00068133       0.00049970      -0.00220786
Li       3.88128001       2.80204434       5.65674774       0.00122093      -0.00012051       0.00329820
Li       3.88158800       2.80279183       8.76872150       0.00096597      -0.00141344      -0.00364325
Li       1.47130071       0.39577670       2.13557514       0.00005322      -0.00226009       0.00298391
Li       1.47349618       2.80247217       0.47423908       0.00076377      -0.00098868      -0.02967328
Sn       3.87883797       0.39593113       7.21140566      -0.00072561      -0.00142865       0.00241334
19
Lattice="7.452751559154338 -0.02442366687194997 5.641439525167904e-05 0.010995399141479678 7.496613550005372 -0.0007680531772035933 0.00029358368452169197 0.000584356590109009 7.044635605517778" Properties=species:S:1:pos:R:3:forces:R:3 structure_index=6 total_energy=-58.90061950683594 stress="0.000842228124383837 -0.00368323246948421 1.0900241250055842e-05 -0.003683217102661729 0.00526778306812048 3.768074748222716e-05 1.0949147508654278e-05 3.767468297155574e-05 0.016423026099801064" pbc="T T T"
Li       6.62291947       0.34740516       5.94383130      -0.00617647       0.01371550       0.00255207
Li       3.77109584       6.40661709       6.01737414      -0.00813397      -0.00286128       0.03163686
Li       3.76502421       6.41616881       2.54763687      -0.00113439      -0.00665135      -0.03399745
Li       2.38888803       1.83289708       5.92131078       0.01517690      -0.00551539      -0.01345432
Li       2.37872294       1.82631763       2.64003326       0.01639622       0.00080381       0.00998714
Li       0.01808471       2.51444454       0.74703431       0.00265691       0.03571324       0.00321676
Li       5.22481694       3.20184121       2.64751803       0.00651425      -0.00402126      -0.02189359
Li       0.80873515       4.90414746       6.18062649      -0.01219548      -0.03293213      -0.03169283
Li       6.63916990       0.35374295       2.61175801      -0.01443948       0.00807733      -0.00128654
Li       5.21748775       3.21197857       5.91495659       0.01097836      -0.00831341       0.02363281
Li       0.80921842       4.90308384       2.38011628      -0.01458260      -0.03235390       0.03304736
Sn       4.54671288       1.11428132       0.75946345      -0.02188618       0.00385431      -0.00030632
Sn       5.94063088       5.50877817       0.76168501       0.01068800      -0.00587529       0.00152813
Sn       2.95359007       4.15650088       4.27697196      -0.00051740       0.04990114      -0.00110924
Sn       3.05403738       4.01532099       0.76238829       0.00412346       0.00263924      -0.00005450
Sn       0.09113402       2.66385933       4.28587949       0.02879607       0.03792949       0.00213852
Sn       6.03331383       5.51654521       4.27567533       0.01532158      -0.00884159      -0.00113160
Sn       1.52984350       7.29072182       0.75341288      -0.02776235      -0.01993408      -0.00329248
Sn       1.48381041       7.07933344       4.28613936      -0.00382341      -0.02533438       0.00047927
20
Lattice="7.92163431400499 -0.001807781023460574 -3.591925908995832 -3.9605970542947317 7.306178415189117 -2.556878599387356 0.012684199082417033 0.0017251288001941542 8.703067281293851" Properties=species:S:1:pos:R:3:forces:R:3 structure_index=7 total_energy=-72.3179931640625 stress="0.005718657746911049 0.0009200695203617215 -0.007714059669524431 0.0009201050270348787 0.014441432431340218 -0.0009933627443388104 -0.007713950239121914 -0.000993296504020691 0.012169093824923038" pbc="T T T"
Li       5.09327266       0.43809940       3.13565295       0.00336439       0.00101757       0.00150244
Li      -0.44952956       1.89648234       3.03820245       0.00022358       0.00221453      -0.00052857
Li      -1.23832886       6.28360852       4.26635534       0.00651341       0.00059892      -0.00014145
Li       4.30229676       4.81718142      -4.33695567      -0.00236711       0.00395297      -0.00286124
Li       1.92551895       3.35320119      -0.64946778       0.00120537       0.00577066      -0.00192525
Sn      -1.24446672       2.63221062      -0.08490070      -0.00190192      -0.00839809       0.00226466
Sn       0.34298668       1.15942867       6.16070424       0.00535730       0.01656438      -0.00492635
Sn       4.30233601       1.17373452       0.01111196      -0.00078527      -0.01016284       0.00334173
Sn       1.13328963       0.43683701       0.57460722       0.00118565      -0.00289291       0.00935436
Sn      -2.03568689       7.01337524       1.14300643       0.00335467      -0.00210535       0.00038518
Sn       0.34683204       4.82229551       1.80811844      -0.00214595       0.00050564       0.00148023
Sn       3.51747617       5.55319816       1.24504319      -0.00395055      -0.01112205      -0.00439441
Sn      -0.44578235       5.54706139      -1.31241155      -0.00905255       0.01027309      -0.00127495
Sn       1.92375339       7.01052842      -5.00198751      -0.00347497       0.00464332       0.00028427
Sn       5.09948882       4.08649383      -1.21662411      -0.00492611       0.00781927       0.00013781
Sn       2.71479256       2.62743369       2.47404333       0.01041765       0.00212515      -0.00518774
Sn       5.89362594       3.35986523       1.90618628      -0.00207369      -0.00247215      -0.00027377
Sn       3.51634325       1.90326177       5.59219903       0.00021323      -0.00851994       0.00245771
Sn       1.14238433       4.09311465       4.93076075      -0.00477848      -0.00647414       0.00075040
Sn       2.71506038       6.28084351      -1.87910291       0.00362137      -0.00333803      -0.00044508
16
Lattice="5.767338791420332 -9.006959082587649e-05 -6.959266078792317e-05 -0.0007414965099171696 6.668874673318709 -4.5684752205822415e-05 0.0001494166164659405 0.00010751551641413554 9.959114588290152" Properties=species:S:1:pos:R:3:forces:R:3 structure_index=8 total_energy=-54.26187515258789 stress="-0.01626989059150219 -3.1924297218210995e-05 1.5821909983060323e-05 -3.1835283152759075e-05 -0.019787903875112534 -2.183420519941137e-06 1.5752180843264796e-05 -2.3202494503493654e-06 -0.01316874474287033" pbc="T T T"
Li       2.93169676       1.00013258       5.35024492      -0.00930070       0.01538115       0.00029182
Li       2.92629054       4.47651339       5.34924454      -0.00677228      -0.01542181       0.00051809
Li       0.98588438       4.33298768       0.36921731       0.01042177       0.01546712       0.00105352
Li       5.69947720       2.73899251       5.35001700      -0.02609190      -0.00051724      -0.00027953
Li       3.98549065       6.07439980       0.37042098       0.02665659      -0.00162688      -0.00018266
Li       0.99482261       1.13722953       0.37113295       0.00555393      -0.01255221      -0.00017335
Sn       1.88094165       2.73891607       7.72720244      -0.00795017      -0.00007512       0.01502380
Sn       0.15986394       6.07562567       5.35013818       0.03257888      -0.00091140      -0.00005450
Sn       4.84394485       1.07262680       7.84188616      -0.00054797      -0.00018987      -0.00097348
Sn       4.84401594       4.40593653       2.86079587      -0.00012876       0.00073404       0.00046164
Sn       4.84458794       1.07192543       2.85874368      -0.00070672      -0.00036302       0.00005225
Sn       1.88227170       2.73721416       2.97283856      -0.00876423       0.00026590      -0.01509898
Sn       2.03818227       6.07089138       2.74840865       0.00794966       0.00083757       0.01461079
Sn       3.75760184       2.74050222       0.37056430      -0.03253539      -0.00059883      -0.00010395
Sn       2.03699197       6.07322091       7.95153751       0.00844645      -0.00052693      -0.01467744
Sn       4.84136417       4.40694116       7.83840486       0.00119087       0.00009746      -0.00046800
14
Lattice="5.71003850190028 -0.004026439132298855 -1.5290654916177673 -2.8344037690763573 6.393102259434096 -3.046325183028356 0.0015296655817343754 -0.0012870080937896473 7.627990400481615" Properties=species:S:1:pos:R:3:forces:R:3 structure_index=9 total_energy=-43.86911392211914 stress="0.0030087793711572886 0.018398692831397057 -0.0032153406646102667 0.018398741260170937 0.010896570980548859 0.0026247117202728987 -0.0032154058571904898 0.0026247568894177675 -0.008182941935956478" pbc="T T T"
Li       1.71856853       0.85973514       1.41669565       0.00150259      -0.00114321      -0.00049985
Li       4.57322020       0.85629912       0.65078373       0.00330100       0.00085726       0.00126486
Li       3.40930309       1.79237509       3.76498689       0.00479199       0.00286679      -0.00225974
Li      -0.27216492       4.43616465      -2.41791557       0.00218045       0.00148786       0.00279910
Li      -1.54282503       5.37154359       0.71960872      -0.00716953       0.01065309       0.00956018
Li       0.88362847       3.67328013       2.20678966      -0.00652102       0.00237200      -0.00690742
Li       2.15336198       2.73672066      -0.93808734       0.00607495      -0.00626701      -0.00152728
Li      -2.80090568       6.31969120       3.65177387      -0.00423378      -0.00840448      -0.00224864
Sn       3.69536352       3.52033705       1.42384387       0.00446483       0.00168739       0.01067550
Sn       0.05663132       6.36390721       3.03797093      -0.00542180       0.01883999      -0.01922966
Sn      -0.63546875       2.63683660      -0.06683821       0.00455724       0.01419942       0.00568185
Sn       0.55099698       1.74368121       4.37592760       0.00500865      -0.02273422       0.01598331
Sn       2.62430830       4.58691371      -3.16720362      -0.00466350       0.00160594      -0.01131423
Sn       1.24641123       5.47443986      -0.14675551      -0.00387208      -0.01602082      -0.00197798
9
Lattice="4.557679752892535 -0.0003013757584041824 -1.035830999605901 -0.21813737212610135 4.46619558996293 -0.9613361632688338 -0.07470257852879102 -0.12989857091272577 10.214238905838199" Properties=species:S:1:pos:R:3:forces:R:3 structure_index=10 total_energy=-27.524295806884766 stress="-0.03569112718105316 0.00041532478644512594 0.0052554551512002945 0.0004154131456743926 -0.023493805900216103 0.001872493652626872 0.005255662836134434 0.0018724474357441068 -0.013604206033051014" pbc="T T T"
Li       0.35325138       0.29850769       1.94473470       0.00359132       0.00401052       0.01176722
Li       3.18205015       3.18896143       3.83490461      -0.00675277      -0.00669935      -0.02373032
Li       1.99717127       4.35042549      -1.36520566       0.00103221       0.00063803      -0.00162787
Li       2.95043341       0.61668328       2.82325848      -0.00218000      -0.00246745      -0.00882408
Li       3.85022989       3.87018520       6.78079103       0.00159164       0.00298660       0.00736191
Sn       1.27136851       3.55588301       5.97611379       0.00400204       0.00257394       0.01964543
Sn       2.51404346       2.52541744       0.91382138       0.00047007       0.00020464       0.00051886
Sn       4.39748767       2.13086422      -1.34283120      -0.00914290      -0.00836803      -0.04355871
Sn       1.00429474       0.94855197       4.80141222       0.00738840       0.00712108       0.03844751
8
Lattice="5.80825510482224 0.00038549866322908376 3.3505118670016034 1.9352009524856701 5.476334814233659 3.3510516382105457 0.000546336691319546 0.000237057366426015 6.7050792957101395" Properties=species:S:1:pos:R:3:forces:R:3 structure_index=11 total_energy=-30.083223342895508 stress="-0.014341980218887329 -0.0014126471942290664 -0.002493966370820999 -0.0014126496389508247 -0.013247603550553322 -0.001084528979845345 -0.002493993379175663 -0.0010845786891877651 -0.018284963443875313" pbc="T T T"
Li       5.06566516       0.64010352       3.66289031      -0.00209886      -0.00019291       0.00275188
Sn       2.15804921       0.64086905       1.99225416       0.00289603      -0.00208121      -0.00072801
Sn       6.03168232       3.37829580       5.34145413      -0.00197306      -0.00009981       0.00172926
Sn       3.12869584       3.37912116       3.66708780      -0.00014509      -0.00181288       0.00115063
Sn       5.06403078       0.63853336       7.01790467      -0.00072171       0.00272937       0.00007749
Sn       3.12745566       3.37796134       7.02246582       0.00265335      -0.00080240      -0.00293618
Sn       2.16046813       0.63961452       5.34382292       0.00205362       0.00059579      -0.00055010
Sn       6.03451071       3.37696416       8.69448202      -0.00266429       0.00166406      -0.00149498
18
Lattice="5.970279265418506 -0.0001554926772843188 -1.9214827790700537 -0.23320836200439932 7.623945322989461 -0.7345431018854233 -0.0562652982158928 0.025180025225100475 10.104085408533745" Properties=species:S:1:pos:R:3:forces:R:3 structure_index=12 total_energy=-65.60950469970703 stress="-0.009136400185525417 -0.0010452077258378267 0.0008405655389651656 -0.0010452817659825087 -0.0032092907931655645 -0.003103630617260933 0.0008405207772739232 -0.0031036643777042627 -0.006332766264677048" pbc="T T T"
Li       3.64858963       5.54656816       5.94070577      -0.00894106       0.01937162      -0.03209616
Li       0.66355500       5.54733926       6.90205225      -0.00886738       0.01853473      -0.03276974
Li       4.72440542       1.60782803      -0.99855946       0.00997166      -0.01962418       0.03265455
Li       1.74063695       1.60923737      -0.03701915       0.00845677      -0.02118752       0.03176274
Sn       3.68158114       4.00904269       0.87647806      -0.00061742      -0.00188388       0.00198162
Sn       2.66539648       3.58949688       8.00241128       0.00056820       0.00062947       0.00015289
Sn       0.69667326       4.00609839       1.83882407      -0.00051841      -0.00059812       0.00110501
Sn       4.02622353       0.95022477       1.94715159      -0.00607336       0.01862402      -0.01696578
Sn       1.71118550       3.14511591       5.02245621      -0.00102112       0.00185813       0.00011723
Sn       2.36757565       0.59334581       7.07946409      -0.00579435       0.00389445      -0.01528863
Sn       0.03624492       6.56102601      -0.21662594       0.00523500      -0.00465005       0.01565973
Sn       4.69676326       3.14774346       4.06246786      -0.00149703       0.00086910      -0.00038196
Sn       5.65075780       3.58936768       7.04279513       0.00084532       0.00118730      -0.00030361
Sn       1.36023007       6.20356448       3.95800881       0.00716764      -0.01837820       0.01512002
Sn       3.02184266       6.56099703      -1.17554527       0.00485088      -0.00449313       0.01441342
Sn       5.35254269       0.59385291       6.11816246      -0.00544229       0.00377835      -0.01490184
Sn       4.34523435       6.20564008       2.99669852       0.00713411      -0.01886634       0.01536649
Sn       1.04040393       0.94574591       2.90630518      -0.00545718       0.02093424      -0.01562596
12
Lattice="4.702900674870213 2.8365978361528115e-05 8.42987664254821e-05 -2.245297095322054e-05 5.506525698659193 1.748882016265892 -9.859913236393133e-05 -0.03562408310182943 8.557580404501678" Properties=species:S:1:pos:R:3:forces:R:3 structure_index=13 total_energy=-33.06376266479492 stress="-0.012460120022296906 1.2488988431869075e-05 -2.5391263989149593e-05 1.2601198250195011e-05 -0.018465368077158928 0.0012678123312070966 -2.507867247913964e-05 0.0012678715866059065 -0.005083691794425249" pbc="T T T"
Li       2.16002405       1.93168983       8.90366344      -0.00002038      -0.01470455       0.01633283
Li       2.15996799       2.36630947       6.15523828       0.00010239       0.01176832       0.02254492
Li       2.16003078       4.76686350       4.00428914      -0.00002479      -0.01761177       0.00985049
Li       4.51158390       0.56287795       4.19673218       0.00001481      -0.01319639      -0.01050957
Li       2.16008974       4.54692249       9.73767684      -0.00002894       0.02165135      -0.03222879
Li       4.51159146       3.24646027       2.01463412       0.00001801      -0.01988799      -0.00526685
Li       2.16015054       5.04682311       6.93642455      -0.00009260       0.02179438       0.00461993
Li       4.51152724       0.70059594       7.14053495      -0.00002651       0.03816380      -0.00410543
Li       4.51142856       3.39462023       4.81118992       0.00008010      -0.02771298       0.00336816
Sn       2.16012022       1.99035253       3.30752297       0.00001824      -0.01800400      -0.00098049
Sn       4.51151468       0.44498113       1.35678967      -0.00000148      -0.00177198      -0.01256147
Sn       4.51154993       3.57921732       7.67301097      -0.00003884       0.01951178       0.00893618
12
Lattice="3.4732250668359375 -3.27978705621735e-05 -6.703838696056479e-05 0.00013493134503641933 3.473183872394208 -0.0004640646471655278 3.180924035603472e-05 0.00032727113297526976 20.84361960800579" Properties=species:S:1:pos:R:3:forces:R:3 structure_index=14 total_energy=-38.79679489135742 stress="0.01595703512430191 0.00047804106725379825 -3.193610973539762e-05 0.00047805605572648346 0.01586765982210636 -0.0009895780822262168 -3.2048123102867976e-05 -0.0009894516551867127 0.0006029918440617621" pbc="T T T"
Li       2.45060161       3.38503700       7.36521375      -0.00018320       0.00007024       0.01057126
Li       0.71311819       1.64435327      16.58885455      -0.00045803      -0.00007238      -0.01765625
Li       2.44854919       3.38007752      18.08314126       0.00049052       0.00006066       0.04211086
Li       2.44843302       3.37986343       0.51796695       0.00015020       0.00113110       0.02174749
Li       2.44936038       3.38366707       3.99307302       0.00011880      -0.00074849      -0.02913924
Li       0.71341007       1.64545367      13.36967677       0.00008085       0.00014785      -0.03411493
Sn       2.45006041       3.38127560      15.04640077      -0.00038620       0.00016443      -0.04323894
Sn       0.71216475       1.64528771       2.26504501       0.00013290      -0.00014339      -0.02008276
Sn       0.71331122       1.64783989       5.68656346      -0.00002761      -0.00013678      -0.00197463
Sn       0.71161958       1.64319173      19.64726115       0.00052752       0.00094627       0.04017592
Sn       0.71434829       1.64910450       9.19999578      -0.00047502      -0.00090842      -0.00202781
Sn       2.45030693       3.38342772      11.49282174       0.00002923      -0.00051110       0.03362901
12
Lattice="4.684091184675591 0.00020456720489598793 0.0008259262086833767 -2.341443008087621 3.960493381642554 -0.8960561597541281 0.003008767237178255 0.0037605656072867916 12.303420263584282" Properties=species:S:1:pos:R:3:forces:R:3 structure_index=15 total_energy=-34.94431686401367 stress="-0.018394771963357925 -0.0021749965380877256 0.00031926456722430885 -0.0021749187726527452 -0.018627597019076347 0.0013170121237635612 0.00031913447310216725 0.0013168873265385628 -0.008856873959302902" pbc="T T T"
Li       0.36183202       0.94687925       2.77612790       0.00055673      -0.00143527      -0.00159848
Li       0.36840055       2.78586265      10.94832846      -0.00024576       0.00379752       0.01509331
Li       2.71194916       1.23464177      10.23139309      -0.00014947      -0.00610963      -0.02724128
Li       0.36194904       3.43130371       1.49431081       0.00038244       0.00542887       0.02405164