18
Lattice="6.311098402734177 -0.061771365299582846 -1.4154898108772866 -1.2836034939252092 5.515588370257489 -2.9124607993888487 -0.0277340512066026 0.26051945108608104 8.527165130449955" Properties=species:S:1:pos:R:3:forces:R:3 structure_index=0 total_energy=-48.564239501953125 stress="-0.01412508450448513 0.0012944031041115522 0.0017718058079481125 0.0012945476919412613 -0.016850624233484268 -0.003104300471022725 0.0017717918381094933 -0.0031042529735714197 -0.013907728716731071" pbc="T T T"
Li       3.28755708       4.82432470      -3.10926827       0.00500844       0.00929046       0.01168675
Li      -0.69832691       4.20680272       2.74569819      -0.00419735      -0.00488013       0.00647908
Li       3.18846066       5.03215995      -0.13879635      -0.01193270      -0.00682012       0.00095200
Li      -0.62589826       4.22292746       5.47165769      -0.01978086      -0.02547846       0.01625662
Li       3.92165952       2.24874825       5.54930990       0.00632806       0.00189753      -0.00224034
Li       2.24666813       0.31942369       1.30524588      -0.00572050      -0.01775436      -0.00483330
Li      -0.06913786       1.39604110       2.74130694       0.01504274       0.02981846      -0.01546466
Li      -0.02465594       1.45432470       5.55378934      -0.01492551      -0.00657854      -0.02929235
Li       3.92762608       2.14410394      -0.16956179      -0.01210081      -0.01028800       0.00757469
Li       1.62926315       3.19171834       1.25588740      -0.01149765       0.00578671       0.00061594
Ga       2.28357798       0.49595117       4.19680015       0.02045317       0.02437368      -0.00824777
Ga      -0.01151306       1.13795513      -0.15232114      -0.00307120       0.02402494      -0.00594350
Ga       1.58939341       3.25746810       4.12962753       0.00610207       0.00836883      -0.00592457
Ga       3.88676080       2.28536416       2.67952304      -0.01270798       0.00101444      -0.00491080
Ga       1.71389866       3.01463288      -1.62361123      -0.02057628      -0.01349529       0.03111803
Ga       3.31892779       5.05120672       2.65529023       0.00637667      -0.00711175      -0.00479344
Ga       2.24436727       0.54994666       7.00581430       0.02066812      -0.01392680      -0.02575268
Sn      -0.77948855       4.08367202      -0.13250853       0.03653156       0.00175835       0.03272031
19
Lattice="6.84305816964905 0.012458132630552728 2.5880057476453855 1.5237781157394161 6.7287668814336 3.064363398353461 -0.02889933800390279 0.13758078850954808 7.724576641297842" Properties=species:S:1:pos:R:3:forces:R:3 structure_index=1 total_energy=-54.5323486328125 stress="0.002139192773029208 -0.0004772107058670372 0.000564771587960422 -0.0004771469975821674 0.002297554397955537 -0.0005943322321400046 0.0005645218188874424 -0.0005942352581769228 0.000650655070785433" pbc="T T T"
Li       6.50074010       2.44314690       9.45925300      -0.00718702       0.01987433      -0.02549551
Li       0.75225845       2.32799607       4.21256473       0.01401581      -0.01073281       0.01606994
Li       4.42379768       1.83583948       7.94838241      -0.03443303      -0.03181730       0.01885394
Li       4.65111760       0.32520334       5.42431968       0.00424730       0.00993492      -0.00068653
Li       5.76662338       4.99783831      10.30486221      -0.00394624       0.01023683      -0.00402247
Li       1.49058715       4.68189943       3.00657477      -0.00125860      -0.01317661       0.01241952
Li       1.63601223       3.03782065       8.50677944      -0.00384293       0.00366944      -0.00460633
Li       2.32791500       0.14425614       3.75814459      -0.00016540      -0.00707386      -0.00139165
Li       3.59579717       4.77692548       8.50784943      -0.00187498      -0.00291074      -0.00587148
Li       4.02678619       5.21340962       4.57942136       0.01936184       0.01304440      -0.00672458
Li       3.30205902       2.81137536       5.71665244       0.01505750       0.01105938       0.00553069
Ga       5.96028710       3.03478759       4.72348767       0.01024526      -0.00373342       0.00814235
Ga       5.65250099       4.47948262       6.92954838       0.00863377      -0.01486951       0.01098862
Ga       6.37990218       6.72779954       5.58890713      -0.00575689      -0.00537744       0.00402544
Sn       0.37512755       0.53384793       1.55329107       0.00181586       0.00111575      -0.02174588
Sn       3.70959238       2.66062779       2.90737216       0.00879662       0.01257215       0.01103608
Sn       1.37659211       4.72555049       6.04950863       0.02098744       0.01134348       0.00780388
Sn       2.11061475       0.49560780       6.87773910      -0.02438878       0.00751962      -0.03126492
Sn       8.00876259       6.59816737      10.96702777      -0.02030751      -0.01067854       0.00693888
4
Lattice="4.27226712541912 0.00014874953351455002 -0.0003837237383988733 -0.00043191509579778203 4.271031815837821 -0.0007553962660630524 0.00022191830573036053 0.0004445833461386256 4.369447192990383" Properties=species:S:1:pos:R:3:forces:R:3 structure_index=2 total_energy=-12.158589363098145 stress="-0.00626631872728467 -0.0008761230274103582 -0.0008067672606557608 -0.0008760617347434163 -0.01501714438199997 -0.0015793276252225041 -0.000806746946182102 -0.0015793960774317384 0.0982804223895073" pbc="T T T"
Li       2.63558997       0.42004095       2.93328818      -0.00012516      -0.00030025       0.00080120
Ga       0.49916234       0.41877063       0.75004916       0.00077458       0.00161889      -0.00056867
Ga       2.63597160       2.55535711       0.74906152      -0.00158880      -0.00074148       0.00047695
Sn       0.49932210       2.55512273       2.93458564       0.00093938      -0.00057718      -0.00070948
4
Lattice="4.033727169036865 0.0 2.3280167579650883 1.3440065750974666 3.804561635149823 2.327600717544555 0.0 0.0 4.658030033111572" Properties=species:S:1:pos:R:3:forces:R:3 structure_index=3 total_energy=-11.746540069580078 stress="0.08567548543214798 -0.0006343383574858308 -0.008184104226529598 -0.0006343816639855504 0.10837836563587189 -0.005983064416795969 -0.008183944039046764 -0.005982957314699888 0.08484797179698944" pbc="T T T"
Li       2.92353903       2.16460148       6.38551416       0.00033334       0.00250177       0.00259273
Li       0.23450439       0.26302166       1.72865964       0.00064798       0.00005711       0.00197925
Ga       4.26837759       3.11623330       4.05593585      -0.00089849       0.00010447       0.00062976
Sn       1.57911409       1.21474322       4.05886320      -0.00008283      -0.00266334      -0.00520175
8
Lattice="4.541922295742502 -0.00012314520871521787 -0.0004960944717914685 0.00016540450316278915 4.545643604569106 0.0004988579663488758 0.0010501031610050983 -0.0009491953041509687 8.705504632150555" Properties=species:S:1:pos:R:3:forces:R:3 structure_index=4 total_energy=-26.147985458374023 stress="-0.026053914800286293 -3.108758028247394e-05 -7.89518016972579e-05 -3.1134903110796586e-05 -0.013343730010092258 0.00010669036419130862 -7.899953197920695e-05 0.00010668506729416549 -0.038166213780641556" pbc="T T T"
Li       0.89895548       2.43215251       8.24942725      -0.00061401       0.00123263       0.00368903
Li       0.89617958       2.43408058       3.90023304       0.00033523       0.00054604       0.00006600
Ga       3.16565169       0.16312744       3.90399789      -0.00036005       0.00112142      -0.01329528
Ga       3.16728189       0.16206944       8.24702493      -0.00147448       0.00167753       0.01488037
Sn       3.17253845       2.43600691       6.08284723      -0.00944743      -0.00281045      -0.02139345
Sn       3.16267934       2.43923674       1.71653827       0.00333057      -0.00589290       0.01812399
Sn       0.89115524       0.16392462       1.71989158       0.00350068       0.00130434       0.01021386
Sn       0.89675639       0.16080598       6.07875599       0.00472948       0.00282139      -0.01228450
10
Lattice="4.763948210333249 0.00832747111871956 -0.005262316779587906 -0.010208700485576127 4.8415222173345995 -1.6991443211583297 0.008677858253081506 -0.06549586717694311 7.841715295457901" Properties=species:S:1:pos:R:3:forces:R:3 structure_index=5 total_energy=-28.082643508911133 stress="-0.004760433454066515 0.0001986935967579484 0.00010211380140390247 0.0001987385330721736 -0.003457682440057397 0.003723845351487398 0.00010195741924690083 0.0037240057718008757 -0.007454085163772106" pbc="T T T"
Li       0.27811452       3.11142960      -1.01538756       0.00021780      -0.02534425      -0.02717347
Li       2.66453202       2.54746457       2.29718051      -0.00022059      -0.02968993      -0.00087148
Li       0.29121072       0.04642646       6.23047226       0.00030125       0.02147708      -0.00290024
Li       2.67082055       0.38908564       4.61295586      -0.00043142       0.00449657      -0.00423483
Li       0.28483039       2.11095100       3.92305799       0.00097232       0.00370432       0.01278472
Li       2.65901343       4.38410509       0.07657201      -0.00008558      -0.00838210      -0.00632286
Ga       2.67217200       1.43158568       7.38928954       0.00009612       0.00568235      -0.00306012
Ga       0.27868472       4.07322365       1.77045446       0.00099337      -0.00191216      -0.00593835
Sn       2.66671181       3.27053925       5.09135596      -0.00133743       0.01404775       0.04283091
Sn       0.28395240       1.18170998       1.22753058      -0.00050585       0.01592040      -0.00511427
6
Lattice="4.843042373657227 0.0 2.7989995479583736 1.6177720989345092 4.567148099766623 2.798681497573852 0.0 0.0 5.592648506164551" Properties=species:S:1:pos:R:3:forces:R:3 structure_index=6 total_energy=-17.404827117919922 stress="0.017059950157999992 -0.0003673748578876257 -0.0005102076102048159 -0.00036740105133503675 0.019580846652388573 -0.0005753146833740175 -0.0005101716960780323 -0.0005754512967541814 0.017317716032266617" pbc="T T T"
Li       3.54215655       1.38351310       2.79465725      -0.00075038      -0.00001589      -0.00066093
Ga       1.92668385       1.94779499       5.58907852       0.00104970      -0.00052795       0.00121540
Ga       2.73759295       4.23871103       4.18585054       0.00164577       0.00001568       0.00010658
Ga       5.15207364       4.23949204       8.38704392      -0.00200184       0.00094742       0.00084839
Ga       2.73729204       4.23944985       6.99124168       0.00121560       0.00031897       0.00006218
Sn       5.15664792       2.52554430       5.59258471      -0.00115885      -0.00073824      -0.00157163
10
Lattice="4.634959398591408 0.0038065377049622934 -0.0012854079169261302 -0.005115560663365529 4.959355038443345 -1.7084931172146889 0.0028091485544936 -0.1434346784234801 7.630254472881819" Properties=species:S:1:pos:R:3:forces:R:3 structure_index=7 total_energy=-28.165361404418945 stress="0.01888401247560978 -0.002903888700529933 0.0012062586611136794 -0.0029037734493613243 0.0004894798039458692 -0.018556123599410057 0.0012063435278832912 -0.018556101247668266 -0.037914447486400604" pbc="T T T"
Li       2.72308364       2.96688743       4.31825613       0.00009549       0.02204264      -0.01717454
Li       0.40352043       3.64492760       1.20150813       0.00090913      -0.01436432      -0.00069848
Li       2.72588407       1.03487924       6.59076676      -0.00060680       0.01538523       0.00921894
Li       2.72275784       2.14937073       1.71511379       0.00019736       0.01200965      -0.00848951
Li       0.40678349       2.57207789       6.06470244      -0.00025064      -0.01069717       0.01324445
Li       0.40336322       4.60511240       3.75466694       0.00156410      -0.02788467       0.00130811
Ga       2.72595217       0.16231692       3.97416268      -0.00126903       0.02218841      -0.01861215
Ga       0.40696748       1.64057162       3.46539528      -0.00066549      -0.02487313       0.00047044
Sn       0.40633561       0.74904831       0.57800633       0.00065107      -0.03536560       0.02355293
Sn       2.72042404       4.04861984      -0.55905855      -0.00062517       0.04155896      -0.00282017
16
Lattice="4.46769225201409 -0.0031691697725353247 -0.0003216809255411961 -2.2303099192398252 4.969212465958808 -0.07218544041600802 0.0008715848275230756 -0.06757491216578054 12.992441618410394" Properties=species:S:1:pos:R:3:forces:R:3 structure_index=8 total_energy=-44.41786575317383 stress="0.020408369600772858 1.6862559277797118e-05 1.2946362630827934e-06 1.676841202424839e-05 0.024289565160870552 0.0023641258012503386 1.4200520581653109e-06 0.0023645306937396526 0.024024460464715958" pbc="T T T"
Li      -1.07877509       2.55116740       5.50676151      -0.00003351      -0.01283457      -0.00832171
Li      -1.07826171       2.88197362      10.81831718       0.00004502       0.02206881       0.00898828
Li      -1.07859475       3.23588000       2.06045553       0.00001603       0.00362338      -0.00801717
Li       1.15313154       0.00544725       4.29810172      -0.00001916      -0.00981448       0.00375176
Li       1.15661622       5.11394937       2.51411466       0.00005057       0.02132640       0.02440196
Li       1.15425447       0.97362759      11.35691374       0.00007065       0.03172314      -0.02701817
Li       1.15439877       1.50816066       6.52956362      -0.00001870      -0.00667578      -0.00052214
Li      -1.07717317       4.55185073       8.49632509      -0.00002558      -0.00882734      -0.00648491
Ga       3.38724650      -0.16198830      10.44804904      -0.00000650      -0.00399043       0.01200076
Ga       1.15381602       1.26111712       1.76064418      -0.00002016      -0.01147981      -0.00878069
Ga       1.15539014       2.70717218       8.90234846       0.00000214       0.00682773      -0.00402183
Ga       1.15509663       2.76494944       3.88336195      -0.00001378      -0.00551502      -0.00890464
Ga       3.38836215       1.51787493       8.36684663      -0.00001616      -0.00412340       0.01199976
Ga       3.38847167       1.28889622      13.09102222      -0.00000848      -0.00864476      -0.00494446
Sn       1.15649733       4.50677946       6.13595458      -0.00002151      -0.00940596       0.00144470
Sn       1.15612581       3.41461065      12.90562426      -0.00000086      -0.00425782       0.01442846
12
Lattice="5.989985785416027 0.11545961253056561 -1.3757807900175298 -0.2209639649561043 5.989299688492057 -1.369568212719091 -0.09594104069137832 -0.10751848675477504 6.510526013974468" Properties=species:S:1:pos:R:3:forces:R:3 structure_index=9 total_energy=-36.246376037597656 stress="-0.0006073694676160812 0.00032781227491796017 -0.00019449794490355998 0.0003277839859947562 -0.0004544492985587567 -0.00021568985539488494 -0.00019446451915428042 -0.0002155638358090073 0.001109947799704969" pbc="T T T"
Li       2.75621062       0.35083707       2.16972739       0.01536502      -0.02720254      -0.03680801
Li       3.80355684       1.34063861      -0.51037838      -0.01453880       0.02528264       0.03528313
Li       5.69873140       3.34286343       0.79747181      -0.02387964       0.01569185      -0.03829682
Li       0.63908891       4.33492262      -0.50891569       0.02444019      -0.01492389       0.03861950
Li       1.65769417       2.23726383       4.09082176      -0.00508917      -0.00585644       0.00275215
Li       4.58543460       5.33579405       2.70756813       0.00456656       0.00405144      -0.00076822
Ga       5.81103864       0.41010418       1.34398828       0.01378862       0.01638075       0.00455824
Ga       0.74936883       1.27711912       0.31480947      -0.01467934      -0.01197604      -0.00419453
Sn       1.53177707       5.28947883       3.39975478      -0.01493196       0.01304423       0.00153277
Sn       4.71203197       2.28304214       3.39952335       0.01341633      -0.01470136      -0.00128351
Sn       2.63779515       3.27646945       1.41211428      -0.01183438      -0.01195726       0.00769535
Sn       3.69959482       4.40312232      -1.12245410       0.01337657       0.01216662      -0.00909005
4
Lattice="4.2809347659514625 0.0002731077023099542 -0.0002282569813831467 -0.0008320415861612266 4.2808432224977455 -0.0010910413633299103 0.00013704823208261186 0.0006560381924419566 4.356540154651994" Properties=species:S:1:pos:R:3:forces:R:3 structure_index=10 total_energy=-12.158655166625977 stress="0.04846080392599106 -0.0016519958153367043 -0.0004626773588825017 -0.0016520645003765821 0.047794222831726074 -0.0022320509888231754 -0.00046278315130621195 -0.0022319930139929056 0.04657106474041939" pbc="T T T"
Li       1.46159530       2.31582440       1.91906192       0.00005299      -0.00058410      -0.00007545
Ga       1.46156819       0.17547115       4.09808579       0.00110630      -0.00019235       0.00000519
Ga       3.60222591       2.31551159       4.09708245      -0.00049339       0.00083955       0.00085341
Sn       3.60240939       0.17511535       1.91981051      -0.00066590      -0.00006309      -0.00078316
20
Lattice="4.726025434159158 0.00021576898917819413 -0.0009183262230934648 -0.0007191630047998004 7.468806835053725 -2.1657837705116734 0.002133750353164189 -0.14410968077751263 10.557501125243748" Properties=species:S:1:pos:R:3:forces:R:3 structure_index=11 total_energy=-58.71112060546875 stress="-0.014811228960752487 9.993182175094262e-07 1.717283703328576e-05 9.48716547100048e-07 -0.013322023674845695 0.002835215302184224 1.721357875794638e-05 0.0028352541849017143 -0.009983936324715614" pbc="T T T"
Li       4.32162901       4.88680645       3.69543780      -0.00000436      -0.01219460       0.00894561
Li       1.95846856       6.44169051       2.98952169       0.00001905      -0.02298868       0.01492348
Li       1.95961354       3.28279806       7.84568970       0.00003041       0.01077503      -0.00897435
Li       4.32174111       1.90913736       3.58353750      -0.00003305      -0.00691297      -0.01438637
Li       1.95788343       4.99761073       0.11340088       0.00008358      -0.01219569       0.02121101
Li       4.32160938       0.35184422       0.71846403      -0.00027270       0.02155177      -0.00396470
Li       4.32228282       6.21722199       6.30608932      -0.00001732       0.01632467       0.00967865
Li       4.32123828       3.46066077       0.97629010      -0.00007613       0.00664636      -0.00097470
Ga       4.32305898       1.72141233       8.62001922      -0.00024546       0.01286767      -0.01488761
Ga       1.95978200       0.26225716       7.70100152       0.00013485      -0.00372212       0.00187106
Ga       4.32246704       0.44620024       6.11215605      -0.00020633      -0.01351262      -0.02267253
Ga       1.95864677       0.50510114       2.54850604       0.00003087      -0.02299468      -0.01437628
Ga       1.95914561       1.87232863       5.31040378       0.00012205      -0.01442496      -0.00567604
Ga       1.95913206       4.86541784       5.48679323      -0.00001459       0.00246770       0.00070533
Ga       1.95959777       6.26030756       8.02518173      -0.00009879       0.01107123       0.01828746
Ga       4.32233972       3.29317565       6.12302331      -0.00011598       0.01369477      -0.00309047
Sn       1.95844411       3.46832942       2.81934300       0.00029690      -0.00373065       0.00028546
Sn       1.95826229       1.88413259      -0.14902034      -0.00000995       0.01026250      -0.00383595
Sn       4.32111204       6.48951300       1.22998165       0.00005131      -0.00249510       0.00702712
Sn       4.32268140       4.72018016       8.84412668       0.00032565       0.00951035       0.00990380
16
Lattice="4.138707200082968 -0.0001440162265323036 0.0004215816030667427 0.0002570963657571615 6.004319824556934 0.06228420434036731 -0.001228962312540755 0.04612547620556434 12.296869258095313" Properties=species:S:1:pos:R:3:forces:R:3 structure_index=12 total_energy=-46.77557373046875 stress="0.017903689295053482 4.473488297662698e-05 7.796765567036346e-05 4.4815067667514086e-05 0.011981496587395668 0.00012080741726094857 7.807233487255871e-05 0.00012079472071491182 0.0168406143784523" pbc="T T T"
Li       1.31349345       4.11986607       0.28622614       0.00011283       0.00165251       0.00160346
Li       3.38285614       5.66973176       4.91427236      -0.00002879      -0.00179386       0.00553843
Li       3.38220366       2.62089336       7.95956985       0.00002352       0.00182775      -0.00468370
Ga       3.38306210       5.56986085       2.01102398      -0.00006977       0.00437393       0.00891995
Ga       1.31255271       1.19512322       9.38999146       0.00011588      -0.00851072      -0.00220308
Ga       3.38177685       2.71965635      10.86361411       0.00011433      -0.00477524      -0.00913092
Ga       3.38194852       5.60897535      10.91860599      -0.00001837       0.00782116      -0.02490545
Ga       1.31263885       4.17814635       9.52475757       0.00009524      -0.00154962      -0.03086038
Ga       3.38292516       2.68089306       1.95481067      -0.00010681      -0.00747965       0.02508476
Ga       1.31308497       1.14204635       6.40726545      -0.00003633       0.00035960      -0.00101546
Ga       3.38238293       5.75338254       8.04693585      -0.00002847       0.00053936      -0.02262447
Ga       1.31350871       4.11454794       3.34787733       0.00002297       0.00003805       0.03123054
Ga       1.31350411       1.09475066       3.42328650      -0.00020451       0.00427250       0.00061929
Ga       3.38269240       2.53687937       4.82705373       0.00000325       0.00023381       0.02327554
Sn       1.31355859       1.11810150       0.25819902       0.00001287       0.00108167      -0.00087427
Sn       1.31318545       4.14406711       6.43633633      -0.00000784       0.00190872       0.00002575
10
Lattice="4.930366567482018 0.0019138050410709205 -0.002294771727753672 -2.4712003832343625 5.039662749270107 -1.2381900543756046 0.0041213721830728285 -0.06789709492953326 8.720750254909357" Properties=species:S:1:pos:R:3:forces:R:3 structure_index=13 total_energy=-30.847774505615234 stress="-0.026500005275011063 -0.00095415860414505 -0.00023019706713967025 -0.0009542133775539696 -0.030376439914107323 -0.0038853485602885485 -0.0002303536602994427 -0.003885171841830015 -0.02947140671312809" pbc="T T T"
Li       0.40209346       4.55653902      -1.01859137       0.00011395      -0.00032354      -0.00002073
Ga       0.40897133       0.12400861       1.57641144      -0.00142639      -0.04856033      -0.00603939
Ga       2.87210934       2.47651960       0.04426793      -0.00376361      -0.00351246      -0.02094414
Ga       2.87086030       3.88148132       6.34600678       0.00151397       0.04583361       0.00487387
Ga       0.40554759       3.15004212       1.65797502       0.00177108      -0.00868463      -0.03563953
Ga       0.40956398       1.52795469       7.87716449       0.00368205       0.00602227       0.02087921
Ga       2.87540679       0.85514878       6.26274590      -0.00165567       0.00854139       0.03628656
Sn      -2.06019864       4.52154737       3.34297421      -0.00008133      -0.00059977       0.00026439
Sn       0.40642354       2.71055001       5.12742997      -0.00026151       0.02267167       0.02504059
Sn       2.87376908       1.29452110       2.79424237       0.00010746      -0.02138820      -0.02470085
12
Lattice="4.386910427905016 0.0007341565683178955 -0.000641399405766326 -0.0009533151219454137 6.01389878096281 -0.01511926189029132 0.001413871408659919 0.005606717696375914 8.90575994162053" Properties=species:S:1:pos:R:3:forces:R:3 structure_index=14 total_energy=-36.105411529541016 stress="-0.014503052458167076 -5.46163164472091e-07 1.3688691069546621e-05 -6.274525503613404e-07 -0.014953144825994968 -0.002134984824806452 1.3698851944354828e-05 -0.002134805778041482 -0.015489127486944199" pbc="T T T"
Li       1.91620023       4.43415160       5.50423091       0.00025853      -0.02238450       0.00915568
Li       1.91623083       1.41140958       2.51062870       0.00032103      -0.01269449      -0.00619345
Li       4.10991392       2.85558279       4.06522969      -0.00022029      -0.04509363      -0.01069512
Li       1.91709618       4.74229031       8.54026252      -0.00031716       0.04720354       0.01438918
Li       4.10929659       5.86169248       3.93580301      -0.00000274      -0.04572967       0.01305543
Li       1.91746432       1.73420209       8.38676610      -0.00022131       0.04689930      -0.01794938
Ga       4.11065625       0.13945293       6.95004442       0.00015820       0.00955935       0.00322961
Ga       4.10946255       3.15261081       1.06921925      -0.00013015       0.00011715      -0.00538518
Sn       1.91678440       1.35295116       5.40085508       0.00001286      -0.02260899       0.01982578
Sn       4.10985879       0.23952713       1.00075907      -0.00006787       0.02860346       0.00109653
Sn       1.91593630       4.34887757       2.61660952       0.00013242      -0.01757149      -0.02224609
Sn       4.11026220       3.24160190       7.01617966       0.00007647       0.03369998       0.00171699
10
Lattice="3.0117135406226763 0.00047370724457344106 -0.00019560080177961832 -0.0012637698100459347 7.909751583132853 0.0004813178707522347 0.00047998192934341796 -0.000619261055745121 7.906854804832939" Properties=species:S:1:pos:R:3:forces:R:3 structure_index=15 total_energy=-28.90935516357422 stress="-0.019413387402892113 2.8584059691638686e-05 2.2545775664184475e-06 2.8707047022180632e-05 -0.0169572401791811 6.459213909693062e-05 2.3060699732013745e-06 6.482029129983857e-05 -0.01738950051367283" pbc="T T T"
Li       2.71810221       4.69484235       4.19739122       0.00053267       0.01826187       0.02079505
Li       2.71904368       1.86826999       1.37131171      -0.00078092      -0.02157664      -0.01959103
Li       2.71919479       0.73846906       5.32264247      -0.00037378       0.01916535      -0.01662182
Li       2.71833394       5.82125576       0.24251637      -0.00080657      -0.02050354       0.02137203
Ga       1.21221339       6.30743156       5.81031239       0.00036427       0.01312126       0.01208231
Ga       1.21307542       0.25276807       7.66645883       0.00121428      -0.01196459      -0.01514000
Ga       1.21261330       4.20819094       1.85715028       0.00005098      -0.01124771       0.01216172
Ga       1.21299038       2.35205596       3.71242986      -0.00005632       0.01493244      -0.01201817
Sn       1.21278053       3.27985841       6.73977709       0.00015584      -0.00115393      -0.00411177
Sn       1.21233705       7.23418884       2.78278151      -0.00030044       0.00096551       0.00107164
4
Lattice="4.030527881942732 0.0004537157661171502 2.3267605792986026 1.341371032096891 3.8009399488040803 2.3271102033151707 0.0007570488536598583 0.000527131766066462 4.655592691969339" Properties=species:S:1:pos:R:3:forces:R:3 structure_index=16 total_energy=-11.746612548828125 stress="0.0352901928126812 -0.001974477432668209 -0.0041534751653671265 -0.001974478829652071 0.03975306451320648 -0.0027652683202177286 -0.004153453279286623 -0.002765193348750472 0.0345580130815506" pbc="T T T"
Li       4.81515993       3.16654675       6.67936240       0.00085030       0.00099812       0.00296738
Li       2.12965442       1.26632003       2.02614332      -0.00109233      -0.00083343      -0.00074661
Ga       0.78637262       0.31569573       4.35308859       0.00097815       0.00069335       0.00150300
Sn       3.47258608       2.21667802       4.35393549      -0.00073614      -0.00085805      -0.00372379
10
Lattice="3.9679441595637215 -0.0009516299542434221 -0.0003670277907927543 -1.982824142866658 4.836439452459725 -0.11841672753894925 0.0016143493998913643 0.10432994424254873 9.745462559763443" Properties=species:S:1:pos:R:3:forces:R:3 structure_index=17 total_energy=-29.247791290283203 stress="0.024270130321383476 -0.00028775521786883473 0.00021677371114492416 -0.0002878587110899389 0.02104448899626732 -0.005621990654617548 0.00021675157768186182 -0.005621869582682848 0.03900301456451416" pbc="T T T"
Li       0.65680239       0.34897450       8.43598040       0.00032402      -0.02870273      -0.01833042
Li       2.64076434       2.26796149       7.19172818      -0.00026848       0.02935802       0.01719964
Li       0.65636252       2.16882621       2.43291246      -0.00007857      -0.01407995       0.00432083
Li       2.63966119       0.34581228       3.44874944      -0.00012433       0.01346347      -0.00519440
Ga       2.64068163       3.17351325       4.18636732      -0.00171244       0.00133046      -0.00840885
Ga       2.64039513       1.09884560       0.67518338      -0.00173622      -0.01404118       0.01227250
Ga      -1.32756784       4.17717740       1.57632200       0.00184594      -0.00148384       0.00892682
Ga       0.65546649       1.41473219       5.20590344       0.00217995       0.01434029      -0.01107987
Sn       0.65657616       4.29732840       6.13960253       0.00085106       0.01142956       0.02224664
Sn       0.65829276       3.15664783       9.36879715      -0.00128096      -0.01161409      -0.02195290
4
Lattice="3.905226650607895 0.0019328340357625694 -1.7365042255691359 -0.7745381384856677 3.8243241523720353 -1.7387161586340336 -0.050429030364144006 -0.059579930122838354 5.139488799277847" Properties=species:S:1:pos:R:3:forces:R:3 structure_index=18 total_energy=-11.71417236328125 stress="0.09764885902404785 0.00029242571326904 -0.00937389861792326 0.00029238348361104727 0.07059279829263687 -0.016663819551467896 -0.009373811073601246 -0.01666398160159588 0.052931107580661774" pbc="T T T"
Li       0.64149497       2.47620180       3.26851867      -0.00020535      -0.00338903      -0.00170634
Li      -0.50399394       3.45936367       0.69746457       0.00169643       0.00139497       0.00006976