phonopy:
  version: "2.37.1"
  frequency_unit_conversion_factor: 15.633302
  symmetry_tolerance: 1.00000e-05

space_group:
  type: "R-3m"
  number: 166
  Hall_symbol: "-R 3 2\""

primitive_matrix:
- [  1.000000000000000,  0.000000000000000, -0.000000000000000 ]
- [  0.000000000000000,  1.000000000000000, -0.000000000000000 ]
- [  0.000000000000000,  0.000000000000000,  1.000000000000000 ]

supercell_matrix:
- [   2,   0,   0 ]
- [   0,   2,   0 ]
- [   0,   0,   2 ]

primitive_cell:
  lattice:
  - [     6.117331432001874,     0.000000000000000,     0.000000000000000 ] # a
  - [    -2.765213121641181,     5.456678365994073,     0.000000000000000 ] # b
  - [    -2.765213360398143,    -4.501296985833237,     3.084422651344059 ] # c
  points:
  - symbol: Li # 1
    coordinates: [  0.999999993217704,  0.999999989220246,  0.999999994493128 ]
    mass: 6.940000
  - symbol: Sn # 2
    coordinates: [  0.999999999127499,  0.500000001898580,  0.500000003225046 ]
    mass: 118.710000
  - symbol: Sn # 3
    coordinates: [  0.500000006409749,  0.500000002106042,  0.999999996976984 ]
    mass: 118.710000
  - symbol: Sn # 4
    coordinates: [  0.500000001280963,  0.000000006777341,  0.500000005301745 ]
    mass: 118.710000
  reciprocal_lattice: # without 2pi
  - [     0.163469972342622,     0.082839647528647,     0.267445580752189 ] # a*
  - [    -0.000000000000000,     0.183261671831710,     0.267445581971516 ] # b*
  - [     0.000000000000000,     0.000000000000000,     0.324209783495217 ] # c*

unit_cell:
  lattice:
  - [     6.117331432001876,     0.000000000000000,     0.000000000000000 ] # a
  - [    -2.765213121641182,     5.456678365994073,     0.000000000000000 ] # b
  - [    -2.765213360398143,    -4.501296985833235,     3.084422651344059 ] # c
  points:
  - symbol: Li # 1
    coordinates: [  0.999999993217704,  0.999999989220246,  0.999999994493128 ]
    mass: 6.940000
    reduced_to: 1
  - symbol: Sn # 2
    coordinates: [  0.999999999127498,  0.500000001898580,  0.500000003225046 ]
    mass: 118.710000
    reduced_to: 2
  - symbol: Sn # 3
    coordinates: [  0.500000006409749,  0.500000002106041,  0.999999996976984 ]
    mass: 118.710000
    reduced_to: 3
  - symbol: Sn # 4
    coordinates: [  0.500000001280963,  0.000000006777341,  0.500000005301745 ]
    mass: 118.710000
    reduced_to: 4

supercell:
  lattice:
  - [    12.234662864003752,     0.000000000000000,     0.000000000000000 ] # a
  - [    -5.530426243282364,    10.913356731988145,     0.000000000000000 ] # b
  - [    -5.530426720796286,    -9.002593971666469,     6.168845302688117 ] # c
  points:
  - symbol: Li # 1
    coordinates: [  0.499999996608852,  0.499999994610123,  0.499999997246564 ]
    mass: 6.940000
    reduced_to: 1
  - symbol: Li # 2
    coordinates: [  0.999999996608852,  0.499999994610123,  0.499999997246564 ]
    mass: 6.940000
    reduced_to: 1
  - symbol: Li # 3
    coordinates: [  0.499999996608852,  0.999999994610123,  0.499999997246564 ]
    mass: 6.940000
    reduced_to: 1
  - symbol: Li # 4
    coordinates: [  0.999999996608852,  0.999999994610123,  0.499999997246564 ]
    mass: 6.940000
    reduced_to: 1
  - symbol: Li # 5
    coordinates: [  0.499999996608852,  0.499999994610123,  0.999999997246564 ]
    mass: 6.940000
    reduced_to: 1
  - symbol: Li # 6
    coordinates: [  0.999999996608852,  0.499999994610123,  0.999999997246564 ]
    mass: 6.940000
    reduced_to: 1
  - symbol: Li # 7
    coordinates: [  0.499999996608852,  0.999999994610123,  0.999999997246564 ]
    mass: 6.940000
    reduced_to: 1
  - symbol: Li # 8
    coordinates: [  0.999999996608852,  0.999999994610123,  0.999999997246564 ]
    mass: 6.940000
    reduced_to: 1
  - symbol: Sn # 9
    coordinates: [  0.499999999563749,  0.250000000949290,  0.250000001612523 ]
    mass: 118.710000
    reduced_to: 9
  - symbol: Sn # 10
    coordinates: [  0.999999999563749,  0.250000000949290,  0.250000001612523 ]
    mass: 118.710000
    reduced_to: 9
  - symbol: Sn # 11
    coordinates: [  0.499999999563749,  0.750000000949290,  0.250000001612523 ]
    mass: 118.710000
    reduced_to: 9
  - symbol: Sn # 12
    coordinates: [  0.999999999563749,  0.750000000949290,  0.250000001612523 ]
    mass: 118.710000
    reduced_to: 9
  - symbol: Sn # 13
    coordinates: [  0.499999999563749,  0.250000000949290,  0.750000001612523 ]
    mass: 118.710000
    reduced_to: 9
  - symbol: Sn # 14
    coordinates: [  0.999999999563749,  0.250000000949290,  0.750000001612523 ]
    mass: 118.710000
    reduced_to: 9
  - symbol: Sn # 15
    coordinates: [  0.499999999563749,  0.750000000949290,  0.750000001612523 ]
    mass: 118.710000
    reduced_to: 9
  - symbol: Sn # 16
    coordinates: [  0.999999999563749,  0.750000000949290,  0.750000001612523 ]
    mass: 118.710000
    reduced_to: 9
  - symbol: Sn # 17
    coordinates: [  0.250000003204875,  0.250000001053021,  0.499999998488492 ]
    mass: 118.710000
    reduced_to: 17
  - symbol: Sn # 18
    coordinates: [  0.750000003204875,  0.250000001053021,  0.499999998488492 ]
    mass: 118.710000
    reduced_to: 17
  - symbol: Sn # 19
    coordinates: [  0.250000003204875,  0.750000001053021,  0.499999998488492 ]
    mass: 118.710000
    reduced_to: 17
  - symbol: Sn # 20
    coordinates: [  0.750000003204875,  0.750000001053021,  0.499999998488492 ]
    mass: 118.710000
    reduced_to: 17
  - symbol: Sn # 21
    coordinates: [  0.250000003204875,  0.250000001053021,  0.999999998488492 ]
    mass: 118.710000
    reduced_to: 17
  - symbol: Sn # 22
    coordinates: [  0.750000003204875,  0.250000001053021,  0.999999998488492 ]
    mass: 118.710000
    reduced_to: 17
  - symbol: Sn # 23
    coordinates: [  0.250000003204875,  0.750000001053021,  0.999999998488492 ]
    mass: 118.710000
    reduced_to: 17
  - symbol: Sn # 24
    coordinates: [  0.750000003204875,  0.750000001053021,  0.999999998488492 ]
    mass: 118.710000
    reduced_to: 17
  - symbol: Sn # 25
    coordinates: [  0.250000000640482,  0.000000003388670,  0.250000002650873 ]
    mass: 118.710000
    reduced_to: 25
  - symbol: Sn # 26
    coordinates: [  0.750000000640481,  0.000000003388670,  0.250000002650873 ]
    mass: 118.710000
    reduced_to: 25
  - symbol: Sn # 27
    coordinates: [  0.250000000640482,  0.500000003388670,  0.250000002650873 ]
    mass: 118.710000
    reduced_to: 25
  - symbol: Sn # 28
    coordinates: [  0.750000000640481,  0.500000003388670,  0.250000002650873 ]
    mass: 118.710000
    reduced_to: 25
  - symbol: Sn # 29
    coordinates: [  0.250000000640482,  0.000000003388670,  0.750000002650873 ]
    mass: 118.710000
    reduced_to: 25
  - symbol: Sn # 30
    coordinates: [  0.750000000640481,  0.000000003388670,  0.750000002650873 ]
    mass: 118.710000
    reduced_to: 25
  - symbol: Sn # 31
    coordinates: [  0.250000000640482,  0.500000003388670,  0.750000002650873 ]
    mass: 118.710000
    reduced_to: 25
  - symbol: Sn # 32
    coordinates: [  0.750000000640481,  0.500000003388670,  0.750000002650873 ]
    mass: 118.710000
    reduced_to: 25

displacements:
- atom:    1
  displacement:
    [   0.0100000000000000,  0.0000000000000000,  0.0000000000000000 ]
  forces:
  - [  -0.0111341755837202, -0.0000297948718071, -0.0000944929197431 ]
  - [  -0.0006227092817426,  0.0000237512867898,  0.0000758459791541 ]
  - [  -0.0000339457765222,  0.0003206823021173, -0.0000564054353163 ]
  - [  -0.0005244445055723, -0.0008910652250051, -0.0000436261761934 ]
  - [  -0.0000345297157764, -0.0002970295026898,  0.0001350080128759 ]
  - [  -0.0005252286791801,  0.0007103271782398, -0.0005397135391831 ]
  - [  -0.0013643093407154,  0.0002839080989361,  0.0009181443601847 ]
  - [  -0.0000250255689025,  0.0003688568249345,  0.0011936742812395 ]
  - [   0.0036165271885693, -0.0005901041440666, -0.0019047064706683 ]
  - [   0.0010809153318405,  0.0001313267275691,  0.0004225652664900 ]
  - [  -0.0000927450601012,  0.0000009424984455,  0.0000171205028892 ]
  - [  -0.0001372543629259,  0.0000590190757066,  0.0001914054155350 ]
  - [  -0.0000933818519115,  0.0000089802779257,  0.0000137409660965 ]
  - [  -0.0001360792666674,  0.0000590542331338,  0.0001916009932756 ]
  - [   0.0034894533455372, -0.0005644112825394, -0.0018241517245770 ]
  - [   0.0011143647134304,  0.0001350268721581,  0.0004356699064374 ]
  - [   0.0010732430964708,  0.0021446219179779, -0.0001534764887765 ]
  - [   0.0002452824264765, -0.0002299770712852, -0.0000074403360486 ]
  - [   0.0002488996833563, -0.0002319458872080, -0.0000059872400016 ]
  - [   0.0010836264118552,  0.0021920651197433, -0.0001543072285131 ]
  - [   0.0000193994492292,  0.0004553839098662, -0.0003063471522182 ]
  - [   0.0000123828649521, -0.0001169885508716, -0.0000015730038285 ]
  - [   0.0000113658607006, -0.0001160510582849, -0.0000039213337004 ]
  - [   0.0000167717225850,  0.0004516681656241, -0.0002993966918439 ]
  - [   0.0000187624245882, -0.0005459106760100,  0.0000055939890444 ]
  - [   0.0000120000913739,  0.0000947513617575, -0.0000676978379488 ]
  - [   0.0010733818635345, -0.0018556052818894,  0.0010860785841942 ]
  - [   0.0002462789416313,  0.0001854808069766, -0.0001358678564429 ]
  - [   0.0000105900689960,  0.0000933930277824, -0.0000694617629051 ]
  - [   0.0000161211937666, -0.0005427650175989,  0.0000081136822701 ]
  - [   0.0002497136592865,  0.0001878885086626, -0.0001366394571960 ]
  - [   0.0010847905650735, -0.0018954565748572,  0.0011106601450592 ]
- atom:    9
  displacement:
    [  -0.0045202932127941,  0.0089200307886446,  0.0000000000000000 ]
  forces:
  - [  -0.0021448405459523,  0.0001289481297135,  0.0011789575219154 ]
  - [  -0.0003773421049118, -0.0001710376236588,  0.0002006702125072 ]
  - [   0.0000478820875287,  0.0003069713711739, -0.0001505832187831 ]
  - [   0.0001144935376942,  0.0000679679214954, -0.0000081772450358 ]
  - [   0.0000449111685157,  0.0002944394946098, -0.0001483209780417 ]
  - [   0.0001155193895102,  0.0000736759975553, -0.0000093235285021 ]
  - [  -0.0020971978083253,  0.0001387419179082,  0.0011461004614830 ]
  - [  -0.0003776391968131, -0.0001726392656565,  0.0001937514171004 ]
  - [   0.0064397677779198, -0.0185587443411350,  0.0037374645471573 ]
  - [   0.0000904174521565,  0.0001722071319818, -0.0000795647501945 ]
  - [  -0.0006443951278925,  0.0009189536795020,  0.0000089593231678 ]
  - [   0.0002338036429137,  0.0004801547620445,  0.0000057267025113 ]
  - [   0.0000666808336973,  0.0002639763988554, -0.0003096114378422 ]
  - [  -0.0006980225443840,  0.0008338741026819, -0.0003157106693834 ]
  - [   0.0003525987267494,  0.0000780746340752, -0.0002456109505147 ]
  - [   0.0011373795568943, -0.0010614134371281,  0.0029871207661927 ]
  - [   0.0000894088298082, -0.0000697771320120, -0.0000042584142648 ]
  - [  -0.0039587030187249,  0.0053566414862871, -0.0037481058388948 ]
  - [   0.0003045611083508, -0.0000284668058157,  0.0000653997994959 ]
  - [   0.0000191545113921, -0.0005896491929889, -0.0002583411987871 ]
  - [  -0.0041097579523921,  0.0055532548576593, -0.0039304769597948 ]
  - [   0.0000831820070744, -0.0000729088205844, -0.0000021262094378 ]
  - [   0.0000404780730605, -0.0006551592377946, -0.0002960045821965 ]
  - [   0.0003065329510719, -0.0000286968424916,  0.0000636265613139 ]
  - [   0.0031320285052061,  0.0033825749997050, -0.0001876940950751 ]
  - [  -0.0001703379675746, -0.0000271112658083, -0.0000181705690920 ]
  - [  -0.0001600077375770, -0.0000308020971715, -0.0000218830537051 ]
  - [   0.0032090279273689,  0.0034294361248612, -0.0001865364611149 ]
  - [   0.0000881366431713, -0.0000032838433981,  0.0001251026988029 ]
  - [  -0.0006388435140252, -0.0000015795230865,  0.0000351779162884 ]
  - [  -0.0006333561614156,  0.0000012957025319,  0.0000363383442163 ]
  - [   0.0000944612547755, -0.0000099064782262,  0.0001361062750220 ]
- atom:    9
  displacement:
    [   0.0100000000000000,  0.0000000000000000,  0.0000000000000000 ]
  forces:
  - [   0.0034890435636044, -0.0006077373400331, -0.0019607972353697 ]
  - [   0.0011210106313229,  0.0000057686120272,  0.0000183945521712 ]
  - [  -0.0000917529687285,  0.0000200476497412,  0.0000438446295448 ]
  - [  -0.0001365281641483,  0.0000182967633009,  0.0000608596019447 ]
  - [  -0.0000920053571463,  0.0000082571059465,  0.0000476014683954 ]
  - [  -0.0001374315470457,  0.0000191610306501,  0.0000609108828939 ]
  - [   0.0036199875175953, -0.0006352579221129, -0.0020498810335994 ]
  - [   0.0010751518420875, -0.0000014603137970, -0.0000042226165533 ]
  - [  -0.0163371581584215, -0.0010606700088829, -0.0034255925565958 ]
  - [  -0.0001673335209489,  0.0000193545129150,  0.0000624628737569 ]
  - [   0.0004533000756055, -0.0004927942063659, -0.0001782039180398 ]
  - [   0.0005833110772073,  0.0005579716525972, -0.0000486345961690 ]
  - [   0.0004527531564236,  0.0003056556452066, -0.0004267557524145 ]
  - [   0.0005843956023455, -0.0004879401531070,  0.0002752512227744 ]
  - [  -0.0005833227187395,  0.0001003444194794,  0.0003228615969419 ]
  - [  -0.0014052540063858,  0.0005627535283566,  0.0018164259381592 ]
  - [   0.0000512963160872,  0.0000377640244551, -0.0000314791104756 ]
  - [   0.0016093989834189, -0.0038482565432787,  0.0023864556569606 ]
  - [   0.0002867178991437,  0.0000495897838846,  0.0000382557045668 ]
  - [  -0.0000463165342808,  0.0003177383914590,  0.0001673897495493 ]
  - [   0.0015986859798431, -0.0037738636601716,  0.0023280146997422 ]
  - [   0.0000455109402537,  0.0000354533549398, -0.0000290793832392 ]
  - [  -0.0000489372760057,  0.0003189428825863,  0.0001653265208006 ]
  - [   0.0002882890403271,  0.0000507431104779,  0.0000373821239918 ]
  - [   0.0015986962243915,  0.0044291848316789, -0.0002126106992364 ]
  - [   0.0000452827662230, -0.0000462355092168, -0.0000040787272155 ]
  - [   0.0000521419569850, -0.0000487915240228, -0.0000046065542847 ]
  - [   0.0016106162220240,  0.0045239720493555, -0.0002064006403089 ]
  - [  -0.0000491868704557, -0.0001693004742265,  0.0003157667815685 ]
  - [   0.0002874992787838, -0.0000218665227294,  0.0000589080154896 ]
  - [   0.0002875216305256, -0.0000194262829609,  0.0000587417744100 ]
  - [  -0.0000453898683190, -0.0001674378290772,  0.0003174785524607 ]

force_constants:
  format: "full"
  shape: [ 32, 32 ]
  elements:
  - # (1, 1)
    - [     1.113414266606390,     0.002934614950412,     0.009474328521335 ]
    - [     0.002934614950412,     1.116388544624860,     0.015422594814661 ]
    - [     0.009474328521335,     0.015422594814661,     1.161402924526271 ]
  - # (1, 2)
    - [     0.062267636257670,    -0.002312520726806,    -0.007465906537724 ]
    - [    -0.002312522783711,    -0.014035431748698,     0.002499597750774 ]
    - [    -0.007465908907623,     0.002499597570105,    -0.006739779274727 ]
  - # (1, 3)
    - [     0.003420482016105,    -0.032133762706907,     0.005604457754182 ]
    - [    -0.032133762821106,     0.044811722643448,    -0.005529721155286 ]
    - [     0.005604457291908,    -0.005529720817355,    -0.006739778962873 ]
  - # (1, 4)
    - [     0.052480369267741,     0.089108224700234,     0.004429897186721 ]
    - [     0.089108224596223,     0.142792905059421,     0.007211119132223 ]
    - [     0.004429897547893,     0.007211119819127,    -0.013834273089478 ]
  - # (1, 5)
    - [     0.003420483626759,     0.029675584912381,    -0.013540615200376 ]
    - [     0.029675584865418,     0.033497139776657,    -0.022041818908638 ]
    - [    -0.013540614856874,    -0.022041818210879,     0.004574802468308 ]
  - # (1, 6)
    - [     0.052480365638396,    -0.071002700159794,     0.054023291493064 ]
    - [    -0.071002702747308,     0.086023266210192,    -0.075636484082417 ]
    - [     0.054023291523717,    -0.075636481227443,     0.042935371024391 ]
  - # (1, 7)
    - [     0.136427641041085,    -0.028461782627702,    -0.091888085514465 ]
    - [    -0.028461781740785,     0.002075986249317,     0.013999035387502 ]
    - [    -0.091888089404270,     0.013999036615999,     0.042935373740202 ]
  - # (1, 8)
    - [     0.002499266656170,    -0.036962521885016,    -0.119332496340481 ]
    - [    -0.036962519065357,    -0.034962800931095,    -0.194252989654549 ]
    - [    -0.119332505558693,    -0.194253019591823,    -0.601934708920595 ]
  - # (1, 9)
    - [    -0.355378797533885,     0.057700405306339,     0.186284182854305 ]
    - [     0.062149820654393,     0.016456854099269,    -0.028684037800478 ]
    - [     0.200648999613351,    -0.028684035752078,    -0.067264055683004 ]
  - # (1, 10)
    - [    -0.109789569919612,    -0.013310554410228,    -0.042972762102675 ]
    - [    -0.000227434398621,     0.019127094916662,    -0.022478280098146 ]
    - [    -0.000734264560947,    -0.022478278252148,    -0.046480900358958 ]
  - # (1, 11)
    - [     0.009243624048535,    -0.000512703278320,    -0.001655240490380 ]
    - [    -0.001410711646592,    -0.034441677091979,     0.014464367679206 ]
    - [    -0.004554435795889,     0.014464370126671,     0.007775902133467 ]
  - # (1, 12)
    - [     0.013678826818676,    -0.005940623823589,    -0.019179135281752 ]
    - [    -0.001899514949597,    -0.008916593125514,    -0.002065199067062 ]
    - [    -0.006132524940218,    -0.002065196673248,    -0.014944338220059 ]
  - # (1, 13)
    - [     0.009243624048535,    -0.000512703278320,    -0.001655240490380 ]
    - [    -0.001410711646592,    -0.034441677091979,     0.014464367679206 ]
    - [    -0.004554435795889,     0.014464370126671,     0.007775902133467 ]
  - # (1, 14)
    - [     0.013678826818676,    -0.005940623823589,    -0.019179135281752 ]
    - [    -0.001899514949597,    -0.008916593125514,    -0.002065199067062 ]
    - [    -0.006132524940218,    -0.002065196673248,    -0.014944338220059 ]
  - # (1, 15)
    - [    -0.355378797533885,     0.057700405306339,     0.186284182854305 ]
    - [     0.062149820654393,     0.016456854099269,    -0.028684037800478 ]
    - [     0.200648999613351,    -0.028684035752078,    -0.067264055683004 ]
  - # (1, 16)
    - [    -0.109789569919612,    -0.013310554410228,    -0.042972762102675 ]
    - [    -0.000227434398621,     0.019127094916662,    -0.022478280098146 ]
    - [    -0.000734264560947,    -0.022478278252148,    -0.046480900358958 ]
  - # (1, 17)
    - [    -0.107845509822704,    -0.216805903717742,     0.015466783419686 ]
    - [    -0.216805908509392,    -0.327581584038812,     0.025177297504765 ]
    - [     0.007595295758455,     0.012363850657467,     0.029241107402034 ]
  - # (1, 18)
    - [    -0.024739893878091,     0.023085937349294,     0.000728562553685 ]
    - [     0.023085938882736,    -0.001341947119161,     0.001185980130649 ]
    - [     0.002317236911643,     0.003772070402539,     0.008659690056322 ]
  - # (1, 19)
    - [    -0.024739893878091,     0.023085937349294,     0.000728562553685 ]
    - [     0.023085938882736,    -0.001341947119161,     0.001185980130649 ]
    - [     0.002317236911643,     0.003772070402539,     0.008659690056322 ]
  - # (1, 20)
    - [    -0.107845509822704,    -0.216805903717742,     0.015466783419686 ]
    - [    -0.216805908509392,    -0.327581584038812,     0.025177297504765 ]
    - [     0.007595295758455,     0.012363850657467,     0.029241107402034 ]
  - # (1, 21)
    - [    -0.001755840313111,    -0.045327653254737,     0.030301300346669 ]
    - [    -0.045327653370719,    -0.047696104703093,     0.049325373277193 ]
    - [     0.007155846888256,     0.011648503462319,    -0.087691433271309 ]
  - # (1, 22)
    - [    -0.001138425643455,     0.011620237541385,     0.000313914398126 ]
    - [     0.011620238996375,     0.010638861846463,     0.000511004693855 ]
    - [    -0.006835244643904,    -0.011126613482199,    -0.019682542054221 ]
  - # (1, 23)
    - [    -0.001138425643455,     0.011620237541385,     0.000313914398126 ]
    - [     0.011620238996375,     0.010638861846463,     0.000511004693855 ]
    - [    -0.006835244643904,    -0.011126613482199,    -0.019682542054221 ]
  - # (1, 24)
    - [    -0.001755840313111,    -0.045327653254737,     0.030301300346669 ]
    - [    -0.045327653370719,    -0.047696104703093,     0.049325373277193 ]
    - [     0.007155846888256,     0.011648503462319,    -0.087691433271309 ]
  - # (1, 25)
    - [    -0.001755840464539,     0.054519480586232,    -0.000625739593200 ]
    - [     0.041436358316782,    -0.088906634955082,    -0.048492676931586 ]
    - [    -0.019718784534139,    -0.010815809756781,    -0.046480902633669 ]
  - # (1, 26)
    - [    -0.001138426404350,    -0.009408267408665,     0.006827372901509 ]
    - [    -0.013449376578014,     0.005900662149395,    -0.018041377395956 ]
    - [     0.000929919575385,    -0.006403760899743,    -0.014944340235959 ]
  - # (1, 27)
    - [    -0.107845506994805,     0.187589191499561,    -0.109792156561169 ]
    - [     0.183139780957463,    -0.231076442778156,     0.153200042265671 ]
    - [    -0.116285475443365,     0.166013496913244,    -0.067264053064216 ]
  - # (1, 28)
    - [    -0.024739895447816,    -0.018632114617930,     0.013650481874069 ]
    - [    -0.017734105981708,    -0.000458155142043,     0.005061839099754 ]
    - [     0.014961003092675,     0.002475748767761,     0.007775900173822 ]
  - # (1, 29)
    - [    -0.001138426404350,    -0.009408267408665,     0.006827372901509 ]
    - [    -0.013449376578014,     0.005900662149395,    -0.018041377395956 ]
    - [     0.000929919575385,    -0.006403760899743,    -0.014944340235959 ]
  - # (1, 30)
    - [    -0.001755840464539,     0.054519480586232,    -0.000625739593200 ]
    - [     0.041436358316782,    -0.088906634955082,    -0.048492676931586 ]
    - [    -0.019718784534139,    -0.010815809756781,    -0.046480902633669 ]
  - # (1, 31)
    - [    -0.024739895447816,    -0.018632114617930,     0.013650481874069 ]
    - [    -0.017734105981708,    -0.000458155142043,     0.005061839099754 ]
    - [     0.014961003092675,     0.002475748767761,     0.007775900173822 ]
  - # (1, 32)
    - [    -0.107845506994805,     0.187589191499561,    -0.109792156561169 ]
    - [     0.183139780957463,    -0.231076442778155,     0.153200042265671 ]
    - [    -0.116285475443365,     0.166013496913244,    -0.067264053064216 ]
  - # (2, 1)
    - [     0.062267636257670,    -0.002312522783711,    -0.007465908907623 ]
    - [    -0.002312520726806,    -0.014035431748698,     0.002499597570105 ]
    - [    -0.007465906537724,     0.002499597750774,    -0.006739779274727 ]
  - # (2, 2)
    - [     1.113414229061686,     0.002934548446157,     0.009474254240657 ]
    - [     0.002934548446157,     1.116388539843271,     0.015422587446691 ]
    - [     0.009474254240657,     0.015422587446691,     1.161402966929144 ]
  - # (2, 3)
    - [     0.052480366124008,     0.089108223968051,     0.004429896378819 ]
    - [     0.089108219357464,     0.142792902279856,     0.007211116130398 ]
    - [     0.004429897920085,     0.007211119786739,    -0.013834273912415 ]
  - # (2, 4)
    - [     0.003420483297079,    -0.032133761530524,     0.005604459131435 ]
    - [    -0.032133762407801,     0.044811723635294,    -0.005529720503766 ]
    - [     0.005604459563242,    -0.005529720663065,    -0.006739780326032 ]
  - # (2, 5)
    - [     0.052480365638396,    -0.071002702700344,     0.054023291180216 ]
    - [    -0.071002700206757,     0.086023266210192,    -0.075636481925202 ]
    - [     0.054023291836566,    -0.075636483384658,     0.042935371024391 ]
  - # (2, 6)
    - [     0.003420483765320,     0.029675586106278,    -0.013540612608343 ]
    - [     0.029675586059315,     0.033497138327403,    -0.022041819730803 ]
    - [    -0.013540612264841,    -0.022041819033044,     0.004574802251135 ]
  - # (2, 7)
    - [     0.002499272348402,    -0.036962520410907,    -0.119332497435391 ]
    - [    -0.036962509997567,    -0.034962798815313,    -0.194252991717690 ]
    - [    -0.119332477250250,    -0.194253013472890,    -0.601934716225382 ]
  - # (2, 8)
    - [     0.136427643208034,    -0.028461785195427,    -0.091888090471136 ]
    - [    -0.028461780743592,     0.002075987157459,     0.013999036433460 ]
    - [    -0.091888087728059,     0.013999039539479,     0.042935376530896 ]
  - # (2, 9)
    - [    -0.109789565826952,    -0.013310549531201,    -0.042972757589836 ]
    - [    -0.000227433284277,     0.019127095078452,    -0.022478280569269 ]
    - [    -0.000734261333742,    -0.022478278039034,    -0.046480902089256 ]
  - # (2, 10)
    - [    -0.355378798708880,     0.057700416349626,     0.186284198949903 ]
    - [     0.062149821029300,     0.016456852501616,    -0.028684040356934 ]
    - [     0.200649000532234,    -0.028684041214737,    -0.067264064109530 ]
  - # (2, 11)
    - [     0.013678827790516,    -0.005940622803648,    -0.019179134467544 ]
    - [    -0.001899513636230,    -0.008916592918799,    -0.002065198996946 ]
    - [    -0.006132523305185,    -0.002065196443699,    -0.014944339228190 ]
  - # (2, 12)
    - [     0.009243624736103,    -0.000512702610331,    -0.001655240013685 ]
    - [    -0.001410710081602,    -0.034441676781331,     0.014464368246782 ]
    - [    -0.004554435212302,     0.014464370584509,     0.007775901876327 ]
  - # (2, 13)
    - [     0.013678827790516,    -0.005940622803648,    -0.019179134467544 ]
    - [    -0.001899513636230,    -0.008916592918799,    -0.002065198996946 ]
    - [    -0.006132523305185,    -0.002065196443699,    -0.014944339228190 ]
  - # (2, 14)
    - [     0.009243624736103,    -0.000512702610331,    -0.001655240013685 ]
    - [    -0.001410710081602,    -0.034441676781331,     0.014464368246782 ]
    - [    -0.004554435212302,     0.014464370584509,     0.007775901876327 ]
  - # (2, 15)
    - [    -0.109789565826952,    -0.013310549531201,    -0.042972757589836 ]
    - [    -0.000227433284277,     0.019127095078452,    -0.022478280569269 ]
    - [    -0.000734261333742,    -0.022478278039034,    -0.046480902089256 ]
  - # (2, 16)
    - [    -0.355378798708880,     0.057700416349626,     0.186284198949903 ]
    - [     0.062149821029300,     0.016456852501616,    -0.028684040356934 ]
    - [     0.200649000532234,    -0.028684041214737,    -0.067264064109530 ]
  - # (2, 17)
    - [    -0.024739893322098,     0.023085939300497,     0.000728564681943 ]
    - [     0.023085939899261,    -0.001341947341621,     0.001185979849189 ]
    - [     0.002317237562494,     0.003772070460698,     0.008659689358258 ]
  - # (2, 18)
    - [    -0.107845501588691,    -0.216805898947945,     0.015466789112190 ]
    - [    -0.216805895157019,    -0.327581576915035,     0.025177305999101 ]
    - [     0.007595295350721,     0.012363850500505,     0.029241106999964 ]
  - # (2, 19)
    - [    -0.107845501588691,    -0.216805898947945,     0.015466789112190 ]
    - [    -0.216805895157019,    -0.327581576915035,     0.025177305999101 ]
    - [     0.007595295350721,     0.012363850500505,     0.029241106999964 ]
  - # (2, 20)
    - [    -0.024739893322098,     0.023085939300497,     0.000728564681943 ]
    - [     0.023085939899261,    -0.001341947341621,     0.001185979849189 ]
    - [     0.002317237562494,     0.003772070460698,     0.008659689358258 ]
  - # (2, 21)
    - [    -0.001138425127170,     0.011620238799062,     0.000313915767272 ]
    - [     0.011620239862496,     0.010638861949266,     0.000511004744659 ]
    - [    -0.006835242434946,    -0.011126613020288,    -0.019682542943719 ]
  - # (2, 22)
    - [    -0.001755839612319,    -0.045327652143535,     0.030301302208875 ]
    - [    -0.045327652283241,    -0.047696103499426,     0.049325375574691 ]
    - [     0.007155850427598,     0.011648503704822,    -0.087691435905771 ]
  - # (2, 23)
    - [    -0.001755839612319,    -0.045327652143535,     0.030301302208875 ]
    - [    -0.045327652283241,    -0.047696103499426,     0.049325375574691 ]
    - [     0.007155850427598,     0.011648503704822,    -0.087691435905771 ]
  - # (2, 24)
    - [    -0.001138425127170,     0.011620238799062,     0.000313915767272 ]
    - [     0.011620239862496,     0.010638861949266,     0.000511004744659 ]
    - [    -0.006835242434946,    -0.011126613020288,    -0.019682542943719 ]
  - # (2, 25)
    - [    -0.001138425744497,    -0.009408266221999,     0.006827374320438 ]
    - [    -0.013449374969243,     0.005900662786931,    -0.018041377238634 ]
    - [     0.000929921342758,    -0.006403760685009,    -0.014944341257507 ]
  - # (2, 26)
    - [    -0.001755841492519,     0.054519481677221,    -0.000625738508013 ]
    - [     0.041436362901812,    -0.088906635684499,    -0.048492678883338 ]
    - [    -0.019718781219521,    -0.010815808796733,    -0.046480903556042 ]
  - # (2, 27)
    - [    -0.024739894331592,    -0.018632112713760,     0.013650484243261 ]
    - [    -0.017734104883354,    -0.000458154435966,     0.005061839866181 ]
    - [     0.014961003589857,     0.002475748461553,     0.007775899090307 ]
  - # (2, 28)
    - [    -0.107845506622200,     0.187589195896227,    -0.109792154459121 ]
    - [     0.183139780711891,    -0.231076448184319,     0.153200039912922 ]
    - [    -0.116285475189803,     0.166013500502401,    -0.067264051733347 ]
  - # (2, 29)
    - [    -0.001755841492519,     0.054519481677221,    -0.000625738508013 ]
    - [     0.041436362901812,    -0.088906635684499,    -0.048492678883338 ]
    - [    -0.019718781219521,    -0.010815808796733,    -0.046480903556042 ]
  - # (2, 30)
    - [    -0.001138425744497,    -0.009408266221999,     0.006827374320438 ]
    - [    -0.013449374969243,     0.005900662786931,    -0.018041377238634 ]
    - [     0.000929921342758,    -0.006403760685009,    -0.014944341257507 ]
  - # (2, 31)
    - [    -0.107845506622200,     0.187589195896227,    -0.109792154459121 ]
    - [     0.183139780711891,    -0.231076448184319,     0.153200039912922 ]
    - [    -0.116285475189803,     0.166013500502401,    -0.067264051733347 ]
  - # (2, 32)
    - [    -0.024739894331592,    -0.018632112713760,     0.013650484243261 ]