phonopy:
  version: "2.37.1"
  frequency_unit_conversion_factor: 15.633302
  symmetry_tolerance: 1.00000e-05

space_group:
  type: "P1"
  number: 1
  Hall_symbol: "P 1"

primitive_matrix:
- [  1.000000000000000,  0.000000000000000,  0.000000000000000 ]
- [  0.000000000000000,  1.000000000000000,  0.000000000000000 ]
- [  0.000000000000000,  0.000000000000000,  1.000000000000000 ]

supercell_matrix:
- [   4,   0,   0 ]
- [   0,   2,   0 ]
- [   0,   0,   2 ]

primitive_cell:
  lattice:
  - [     3.029511307447967,     0.000000000000000,     0.000000000000000 ] # a
  - [    -0.003469703877682,     5.306917128428095,     0.000000000000000 ] # b
  - [    -1.507666570116501,    -2.640583976923495,     4.996345414267874 ] # c
  points:
  - symbol: Li # 1
    coordinates: [  0.253951591268054,  0.538899210385194,  0.438848900107676 ]
    mass: 6.940000
  - symbol: Li # 2
    coordinates: [  0.755859183689506,  0.039184347519811,  0.441931514823757 ]
    mass: 6.940000
  - symbol: Li # 3
    coordinates: [  0.505998648744184,  0.113698983464558,  0.941584331535867 ]
    mass: 6.940000
  - symbol: Li # 4
    coordinates: [  0.005511553557308,  0.613574009642316,  0.940433503269666 ]
    mass: 6.940000
  reciprocal_lattice: # without 2pi
  - [     0.330086241151016,     0.000215812963190,     0.099718858882062 ] # a*
  - [     0.000000000000000,     0.188433317460942,     0.099587590038310 ] # b*
  - [     0.000000000000000,     0.000000000000000,     0.200146290355414 ] # c*

unit_cell:
  lattice:
  - [     3.029511307447967,     0.000000000000000,     0.000000000000000 ] # a
  - [    -0.003469703877682,     5.306917128428095,     0.000000000000000 ] # b
  - [    -1.507666570116501,    -2.640583976923494,     4.996345414267873 ] # c
  points:
  - symbol: Li # 1
    coordinates: [  0.253951591268054,  0.538899210385194,  0.438848900107676 ]
    mass: 6.940000
    reduced_to: 1
  - symbol: Li # 2
    coordinates: [  0.755859183689506,  0.039184347519811,  0.441931514823757 ]
    mass: 6.940000
    reduced_to: 2
  - symbol: Li # 3
    coordinates: [  0.505998648744184,  0.113698983464559,  0.941584331535867 ]
    mass: 6.940000
    reduced_to: 3
  - symbol: Li # 4
    coordinates: [  0.005511553557308,  0.613574009642316,  0.940433503269667 ]
    mass: 6.940000
    reduced_to: 4

supercell:
  lattice:
  - [    12.118045229791869,     0.000000000000000,     0.000000000000000 ] # a
  - [    -0.006939407755365,    10.613834256856190,     0.000000000000000 ] # b
  - [    -3.015333140233002,    -5.281167953846989,     9.992690828535746 ] # c
  points:
  - symbol: Li # 1
    coordinates: [  0.063487897817013,  0.269449605192597,  0.219424450053838 ]
    mass: 6.940000
    reduced_to: 1
  - symbol: Li # 2
    coordinates: [  0.313487897817013,  0.269449605192597,  0.219424450053838 ]
    mass: 6.940000
    reduced_to: 1
  - symbol: Li # 3
    coordinates: [  0.563487897817013,  0.269449605192597,  0.219424450053838 ]
    mass: 6.940000
    reduced_to: 1
  - symbol: Li # 4
    coordinates: [  0.813487897817013,  0.269449605192597,  0.219424450053838 ]
    mass: 6.940000
    reduced_to: 1
  - symbol: Li # 5
    coordinates: [  0.063487897817013,  0.769449605192597,  0.219424450053838 ]
    mass: 6.940000
    reduced_to: 1
  - symbol: Li # 6
    coordinates: [  0.313487897817013,  0.769449605192597,  0.219424450053838 ]
    mass: 6.940000
    reduced_to: 1
  - symbol: Li # 7
    coordinates: [  0.563487897817013,  0.769449605192597,  0.219424450053838 ]
    mass: 6.940000
    reduced_to: 1
  - symbol: Li # 8
    coordinates: [  0.813487897817013,  0.769449605192597,  0.219424450053838 ]
    mass: 6.940000
    reduced_to: 1
  - symbol: Li # 9
    coordinates: [  0.063487897817013,  0.269449605192597,  0.719424450053838 ]
    mass: 6.940000
    reduced_to: 1
  - symbol: Li # 10
    coordinates: [  0.313487897817013,  0.269449605192597,  0.719424450053838 ]
    mass: 6.940000
    reduced_to: 1
  - symbol: Li # 11
    coordinates: [  0.563487897817013,  0.269449605192597,  0.719424450053838 ]
    mass: 6.940000
    reduced_to: 1
  - symbol: Li # 12
    coordinates: [  0.813487897817013,  0.269449605192597,  0.719424450053838 ]
    mass: 6.940000
    reduced_to: 1
  - symbol: Li # 13
    coordinates: [  0.063487897817013,  0.769449605192597,  0.719424450053838 ]
    mass: 6.940000
    reduced_to: 1
  - symbol: Li # 14
    coordinates: [  0.313487897817013,  0.769449605192597,  0.719424450053838 ]
    mass: 6.940000
    reduced_to: 1
  - symbol: Li # 15
    coordinates: [  0.563487897817013,  0.769449605192597,  0.719424450053838 ]
    mass: 6.940000
    reduced_to: 1
  - symbol: Li # 16
    coordinates: [  0.813487897817013,  0.769449605192597,  0.719424450053838 ]
    mass: 6.940000
    reduced_to: 1
  - symbol: Li # 17
    coordinates: [  0.188964795922376,  0.019592173759906,  0.220965757411878 ]
    mass: 6.940000
    reduced_to: 17
  - symbol: Li # 18
    coordinates: [  0.438964795922376,  0.019592173759906,  0.220965757411878 ]
    mass: 6.940000
    reduced_to: 17
  - symbol: Li # 19
    coordinates: [  0.688964795922376,  0.019592173759906,  0.220965757411878 ]
    mass: 6.940000
    reduced_to: 17
  - symbol: Li # 20
    coordinates: [  0.938964795922376,  0.019592173759906,  0.220965757411878 ]
    mass: 6.940000
    reduced_to: 17
  - symbol: Li # 21
    coordinates: [  0.188964795922376,  0.519592173759906,  0.220965757411878 ]
    mass: 6.940000
    reduced_to: 17
  - symbol: Li # 22
    coordinates: [  0.438964795922376,  0.519592173759906,  0.220965757411878 ]
    mass: 6.940000
    reduced_to: 17
  - symbol: Li # 23
    coordinates: [  0.688964795922376,  0.519592173759906,  0.220965757411878 ]
    mass: 6.940000
    reduced_to: 17
  - symbol: Li # 24
    coordinates: [  0.938964795922376,  0.519592173759906,  0.220965757411878 ]
    mass: 6.940000
    reduced_to: 17
  - symbol: Li # 25
    coordinates: [  0.188964795922376,  0.019592173759906,  0.720965757411878 ]
    mass: 6.940000
    reduced_to: 17
  - symbol: Li # 26
    coordinates: [  0.438964795922376,  0.019592173759906,  0.720965757411878 ]
    mass: 6.940000
    reduced_to: 17
  - symbol: Li # 27
    coordinates: [  0.688964795922376,  0.019592173759906,  0.720965757411878 ]
    mass: 6.940000
    reduced_to: 17
  - symbol: Li # 28
    coordinates: [  0.938964795922376,  0.019592173759906,  0.720965757411878 ]
    mass: 6.940000
    reduced_to: 17
  - symbol: Li # 29
    coordinates: [  0.188964795922376,  0.519592173759906,  0.720965757411878 ]
    mass: 6.940000
    reduced_to: 17
  - symbol: Li # 30
    coordinates: [  0.438964795922376,  0.519592173759906,  0.720965757411878 ]
    mass: 6.940000
    reduced_to: 17
  - symbol: Li # 31
    coordinates: [  0.688964795922376,  0.519592173759906,  0.720965757411878 ]
    mass: 6.940000
    reduced_to: 17
  - symbol: Li # 32
    coordinates: [  0.938964795922376,  0.519592173759906,  0.720965757411878 ]
    mass: 6.940000
    reduced_to: 17
  - symbol: Li # 33
    coordinates: [  0.126499662186046,  0.056849491732279,  0.470792165767934 ]
    mass: 6.940000
    reduced_to: 33
  - symbol: Li # 34
    coordinates: [  0.376499662186046,  0.056849491732279,  0.470792165767934 ]
    mass: 6.940000
    reduced_to: 33
  - symbol: Li # 35
    coordinates: [  0.626499662186046,  0.056849491732279,  0.470792165767934 ]
    mass: 6.940000
    reduced_to: 33
  - symbol: Li # 36
    coordinates: [  0.876499662186046,  0.056849491732279,  0.470792165767934 ]
    mass: 6.940000
    reduced_to: 33
  - symbol: Li # 37
    coordinates: [  0.126499662186046,  0.556849491732279,  0.470792165767934 ]
    mass: 6.940000
    reduced_to: 33
  - symbol: Li # 38
    coordinates: [  0.376499662186046,  0.556849491732279,  0.470792165767934 ]
    mass: 6.940000
    reduced_to: 33
  - symbol: Li # 39
    coordinates: [  0.626499662186046,  0.556849491732279,  0.470792165767934 ]
    mass: 6.940000
    reduced_to: 33
  - symbol: Li # 40
    coordinates: [  0.876499662186046,  0.556849491732279,  0.470792165767934 ]
    mass: 6.940000
    reduced_to: 33
  - symbol: Li # 41
    coordinates: [  0.126499662186046,  0.056849491732279,  0.970792165767933 ]
    mass: 6.940000
    reduced_to: 33
  - symbol: Li # 42
    coordinates: [  0.376499662186046,  0.056849491732279,  0.970792165767933 ]
    mass: 6.940000
    reduced_to: 33
  - symbol: Li # 43
    coordinates: [  0.626499662186046,  0.056849491732279,  0.970792165767933 ]
    mass: 6.940000
    reduced_to: 33
  - symbol: Li # 44
    coordinates: [  0.876499662186046,  0.056849491732279,  0.970792165767933 ]
    mass: 6.940000
    reduced_to: 33
  - symbol: Li # 45
    coordinates: [  0.126499662186046,  0.556849491732279,  0.970792165767933 ]
    mass: 6.940000
    reduced_to: 33
  - symbol: Li # 46
    coordinates: [  0.376499662186046,  0.556849491732279,  0.970792165767933 ]
    mass: 6.940000
    reduced_to: 33
  - symbol: Li # 47
    coordinates: [  0.626499662186046,  0.556849491732279,  0.970792165767933 ]
    mass: 6.940000
    reduced_to: 33
  - symbol: Li # 48
    coordinates: [  0.876499662186046,  0.556849491732279,  0.970792165767933 ]
    mass: 6.940000
    reduced_to: 33
  - symbol: Li # 49
    coordinates: [  0.001377888389327,  0.306787004821158,  0.470216751634833 ]
    mass: 6.940000
    reduced_to: 49
  - symbol: Li # 50
    coordinates: [  0.251377888389327,  0.306787004821158,  0.470216751634833 ]
    mass: 6.940000
    reduced_to: 49
  - symbol: Li # 51
    coordinates: [  0.501377888389327,  0.306787004821158,  0.470216751634833 ]
    mass: 6.940000
    reduced_to: 49
  - symbol: Li # 52
    coordinates: [  0.751377888389327,  0.306787004821158,  0.470216751634833 ]
    mass: 6.940000
    reduced_to: 49
  - symbol: Li # 53
    coordinates: [  0.001377888389327,  0.806787004821158,  0.470216751634833 ]
    mass: 6.940000
    reduced_to: 49
  - symbol: Li # 54
    coordinates: [  0.251377888389327,  0.806787004821158,  0.470216751634833 ]
    mass: 6.940000
    reduced_to: 49
  - symbol: Li # 55
    coordinates: [  0.501377888389327,  0.806787004821158,  0.470216751634833 ]
    mass: 6.940000
    reduced_to: 49
  - symbol: Li # 56
    coordinates: [  0.751377888389327,  0.806787004821158,  0.470216751634833 ]
    mass: 6.940000
    reduced_to: 49
  - symbol: Li # 57
    coordinates: [  0.001377888389327,  0.306787004821158,  0.970216751634833 ]
    mass: 6.940000
    reduced_to: 49
  - symbol: Li # 58
    coordinates: [  0.251377888389327,  0.306787004821158,  0.970216751634833 ]
    mass: 6.940000
    reduced_to: 49
  - symbol: Li # 59
    coordinates: [  0.501377888389327,  0.306787004821158,  0.970216751634833 ]
    mass: 6.940000
    reduced_to: 49
  - symbol: Li # 60
    coordinates: [  0.751377888389327,  0.306787004821158,  0.970216751634833 ]
    mass: 6.940000
    reduced_to: 49
  - symbol: Li # 61
    coordinates: [  0.001377888389327,  0.806787004821158,  0.970216751634833 ]
    mass: 6.940000
    reduced_to: 49
  - symbol: Li # 62
    coordinates: [  0.251377888389327,  0.806787004821158,  0.970216751634833 ]
    mass: 6.940000
    reduced_to: 49
  - symbol: Li # 63
    coordinates: [  0.501377888389327,  0.806787004821158,  0.970216751634833 ]
    mass: 6.940000
    reduced_to: 49
  - symbol: Li # 64
    coordinates: [  0.751377888389327,  0.806787004821158,  0.970216751634833 ]
    mass: 6.940000
    reduced_to: 49

displacements:
- atom:    1
  displacement:
    [   0.0100000000000000,  0.0000000000000000,  0.0000000000000000 ]
  forces:
  - [  -0.0107875885441899, -0.0030730739235878,  0.0118806492537260 ]
  - [   0.0049010054208338, -0.0030723558738828,  0.0118623469024897 ]
  - [   0.0010448371758685, -0.0030669029802084,  0.0118638556450605 ]
  - [   0.0048047504387796, -0.0030626612715423,  0.0118654891848564 ]
  - [   0.0010371562093496, -0.0030669688712806,  0.0118644712492824 ]
  - [   0.0009606685489416, -0.0030409530736506,  0.0118644880130887 ]
  - [   0.0009723249822855, -0.0030670487321913,  0.0118633024394512 ]
  - [   0.0009602799545974, -0.0030927555635571,  0.0118631906807423 ]
  - [   0.0009774430654943, -0.0030812411569059,  0.0118728904053569 ]
  - [   0.0009746733121574, -0.0030537038110197,  0.0118533475324512 ]
  - [   0.0009724674746394, -0.0030690925195813,  0.0118668498471379 ]
  - [   0.0009744400158525, -0.0030654948204756,  0.0118636507540941 ]
  - [   0.0009777820669115, -0.0030537238344550,  0.0118718855082989 ]
  - [   0.0009751254692674, -0.0030684848316014,  0.0118646509945393 ]
  - [   0.0009721727110445, -0.0030651274137199,  0.0118665732443333 ]
  - [   0.0009745168499649, -0.0030804402194917,  0.0118530821055174 ]
  - [   0.0009964299388230,  0.0061922464519739, -0.0037336442619562 ]
  - [   0.0002019791863859,  0.0078212041407824, -0.0037439828738570 ]
  - [   0.0002022311091423,  0.0077466284856200, -0.0037428399082273 ]
  - [   0.0009981286711991,  0.0093714613467455, -0.0037520308978856 ]
  - [   0.0010197605006397,  0.0094518857076764, -0.0037333797663450 ]
  - [   0.0002015009522438,  0.0077432976104319, -0.0037438776344061 ]
  - [   0.0002015801146626,  0.0078239198774099, -0.0037425546906888 ]
  - [   0.0010223244316876,  0.0061346963047981, -0.0037517067976296 ]
  - [   0.0002279417822137,  0.0077782813459635, -0.0037344126030803 ]
  - [   0.0002739527262747,  0.0077978083863854, -0.0037308074533939 ]
  - [   0.0002256882144138,  0.0077895871363580, -0.0037522651255131 ]
  - [   0.0002330707502551,  0.0077698701061308, -0.0037569345440716 ]
  - [   0.0002322569489479,  0.0077983653172851, -0.0037561885546893 ]
  - [   0.0002263393253088,  0.0077782291918993, -0.0037513987626880 ]
  - [   0.0002729774569161,  0.0077697020024061, -0.0037300507538021 ]
  - [   0.0002287197858095,  0.0077899964526296, -0.0037347166799009 ]
  - [  -0.0003954557469115, -0.0055775856599212, -0.0046960171312094 ]
  - [  -0.0005528865149245, -0.0055514266714454, -0.0047128871083260 ]
  - [  -0.0005050593754277, -0.0055779158137739, -0.0046947463415563 ]
  - [  -0.0005540427519009, -0.0056052748113871, -0.0046770661137998 ]
  - [  -0.0006728729931638, -0.0055790957994759, -0.0046963542699814 ]
  - [  -0.0009750393219292, -0.0059174699708819, -0.0051843123510480 ]
  - [  -0.0005254218121991, -0.0055781458504498, -0.0046960022300482 ]
  - [  -0.0009736547945067, -0.0052384976297617, -0.0042059207335114 ]
  - [   0.0002539876732044, -0.0061526149511337, -0.0062136752530932 ]
  - [  -0.0005648415535688, -0.0055550620891154, -0.0046559451147914 ]
  - [  -0.0005644634366035, -0.0056012538261712, -0.0047329473309219 ]
  - [   0.0002540514688008, -0.0050107594579458, -0.0031900918111205 ]
  - [  -0.0005175613332540, -0.0055859829299152, -0.0046750889159739 ]
  - [  -0.0005247127264738, -0.0055788066238165, -0.0046952571719885 ]
  - [  -0.0005247369408607, -0.0055782948620617, -0.0046923784539104 ]
  - [  -0.0005186698399484, -0.0055699190124869, -0.0047157327644527 ]
  - [   0.0000614528544247,  0.0013994413893670, -0.0048858728259802 ]
  - [   0.0000610095448792,  0.0003255597548559, -0.0019701197743416 ]
  - [  -0.0007308702915907,  0.0008835549815558, -0.0034644068218768 ]
  - [  -0.0007309569045901,  0.0008387564448640, -0.0033881212584674 ]
  - [  -0.0006849346682429,  0.0008685261709616, -0.0034062229096889 ]
  - [  -0.0006849579513073,  0.0008537420071661, -0.0034471759572625 ]
  - [  -0.0006916597485542,  0.0008615713450126, -0.0034236311912537 ]
  - [  -0.0006909077055752,  0.0008612704696134, -0.0034263832494617 ]
  - [  -0.0008696555159986,  0.0008562773000449, -0.0034176292829216 ]
  - [  -0.0011276211589575,  0.0005268922541291, -0.0029443460516632 ]
  - [  -0.0006941342144273,  0.0008613604004495, -0.0034263525158167 ]
  - [  -0.0011383122764528,  0.0011981488205492, -0.0039108833298087 ]
  - [  -0.0005624676123261,  0.0008613780955784, -0.0034267758019269 ]
  - [  -0.0007196832448244,  0.0008893186459318, -0.0034084157086909 ]
  - [  -0.0006720945239067,  0.0008612463134341, -0.0034257704392076 ]
  - [  -0.0007197870872915,  0.0008339124615304, -0.0034434532281011 ]
- atom:    1
  displacement:
    [  -0.0100000000000000,  0.0000000000000000,  0.0000000000000000 ]
  forces:
  - [   0.0127335209399462, -0.0030302517116070,  0.0118485242128372 ]
  - [  -0.0028581949882209, -0.0030630482360721,  0.0118656959384680 ]
  - [   0.0009011825313792, -0.0030668855179101,  0.0118644647300243 ]
  - [  -0.0029545323923230, -0.0030726906843483,  0.0118623096495867 ]
  - [   0.0009088106453419, -0.0030669793486595,  0.0118635036051273 ]
  - [   0.0009862072765827, -0.0030932947993279,  0.0118634020909667 ]
  - [   0.0009732637554407, -0.0030670906417072,  0.0118642058223486 ]
  - [   0.0009859044803306, -0.0030414601787925,  0.0118643976747990 ]
  - [   0.0009692357853055, -0.0030535934492946,  0.0118560530245304 ]
  - [   0.0009714039042592, -0.0030813328921795,  0.0118752820417285 ]
  - [   0.0009741615504026, -0.0030654636211693,  0.0118613820523024 ]
  - [   0.0009711366146803, -0.0030691614374518,  0.0118640866130590 ]
  - [   0.0009683938696980, -0.0030805007554591,  0.0118561387062073 ]
  - [   0.0009716455824673, -0.0030654328875244,  0.0118634104728699 ]
  - [   0.0009739501401782, -0.0030686543323100,  0.0118615813553333 ]
  - [   0.0009710127487779, -0.0030535017140210,  0.0118745006620884 ]
  - [  -0.0005202959291637,  0.0093614161014557, -0.0037524662911892 ]
  - [   0.0002765767276287,  0.0077468794770539, -0.0037423195317388 ]
  - [   0.0002770656719804,  0.0078214937821031, -0.0037433323450387 ]
  - [  -0.0005154116079211,  0.0061826081946492, -0.0037341008428484 ]
  - [  -0.0005428679287434,  0.0061326608993113, -0.0037523861974478 ]
  - [   0.0002775606699288,  0.0078240288421512, -0.0037421034649014 ]
  - [   0.0002770815044641,  0.0077437795698643, -0.0037433635443449 ]
  - [  -0.0005405382253230,  0.0094501581043005, -0.0037338917609304 ]
  - [   0.0002509046171326,  0.0077896164730191, -0.0037526623345912 ]
  - [   0.0002052360214293,  0.0077699339017272, -0.0037565052043647 ]
  - [   0.0002531684585847,  0.0077782403677702, -0.0037345339078456 ]
  - [   0.0002464985882398,  0.0077977469190955, -0.0037306190934032 ]
  - [   0.0002464018762112,  0.0077694631181657, -0.0037297129165381 ]
  - [   0.0002528447657824,  0.0077900672331452, -0.0037347967736423 ]
  - [   0.0002055492514046,  0.0077983266673982, -0.0037564896047115 ]
  - [   0.0002506282180548,  0.0077784233726561, -0.0037515568546951 ]
  - [  -0.0006497752619907, -0.0055803568102419, -0.0046932175755501 ]
  - [  -0.0004936031764373, -0.0056049143895507, -0.0046772258356214 ]
  - [  -0.0005401143571362, -0.0055783288553357, -0.0046953689306974 ]
  - [  -0.0004934201715514, -0.0055511617101729, -0.0047131218016148 ]
  - [  -0.0003731510369107, -0.0055849300697446, -0.0047055808827281 ]
  - [  -0.0000659497454762, -0.0052372785285115, -0.0042041838169098 ]
  - [  -0.0005205412162468, -0.0055783693678677, -0.0046949032694101 ]
  - [  -0.0000774384388933, -0.0059162266552448, -0.0051826369017363 ]
  - [  -0.0013015095610172, -0.0050100358203053, -0.0031902638729662 ]
  - [  -0.0004818113520741, -0.0056016910821199, -0.0047328458167613 ]
  - [  -0.0004805391654372, -0.0055557051673532, -0.0046556666493416 ]
  - [  -0.0012988760136068, -0.0061518754810095, -0.0062137451022863 ]
  - [  -0.0005277281161398, -0.0055703655816615, -0.0047142961993814 ]
  - [  -0.0005211993120611, -0.0055779339745641, -0.0046938350424170 ]
  - [  -0.0005210340023041, -0.0055783558636904, -0.0046968460083008 ]
  - [  -0.0005282796919346, -0.0055864285677671, -0.0046733934432268 ]
  - [  -0.0014384961687028,  0.0003184612723999, -0.0019517526961863 ]
  - [  -0.0014419401995838,  0.0013920289929956, -0.0048675257712603 ]
  - [  -0.0006479471921921,  0.0008397481287830, -0.0033881596755236 ]
  - [  -0.0006488692015409,  0.0008837597561069, -0.0034645246341825 ]
  - [  -0.0006946627981961,  0.0008541350835003, -0.0034455358982086 ]
  - [  -0.0006938125006855,  0.0008692379342392, -0.0034043234772980 ]
  - [  -0.0006885025650263,  0.0008606782066636, -0.0034280382096767 ]
  - [  -0.0006878920830786,  0.0008611279190518, -0.0034253003541380 ]
  - [  -0.0005090977065265,  0.0008585698669776, -0.0034223101101816 ]
  - [  -0.0002453979104757,  0.0011977941030636, -0.0039100758731365 ]
  - [  -0.0006855209940113,  0.0008615568513051, -0.0034251734614372 ]
  - [  -0.0002471874468029,  0.0005262508057058, -0.0029435912147164 ]
  - [  -0.0008162693120539,  0.0008601840818301, -0.0034261858090758 ]
  - [  -0.0006592702120543,  0.0008340402273461, -0.0034434916451573 ]
  - [  -0.0007071890868247,  0.0008615202968940, -0.0034264996647835 ]
  - [  -0.0006604976952076,  0.0008893551421352, -0.0034084951039404 ]
- atom:    1
  displacement:
    [  -0.0000065380767254,  0.0099999978626774,  0.0000000000000000 ]
  forces:
  - [   0.0009595595765859, -0.0146911041811109,  0.0118995532393456 ]
  - [   0.0009679013164714, -0.0032577477395535,  0.0118633685633540 ]
  - [   0.0009729241719469, -0.0031040264293551,  0.0118639897555113 ]
  - [   0.0009737959480844, -0.0032577123492956,  0.0118632391095161 ]
  - [   0.0009729266166687, -0.0031900226604193,  0.0118645904585719 ]
  - [   0.0009486190974712, -0.0030322596430779,  0.0118639310821891 ]
  - [   0.0009728353470564, -0.0030565988272429,  0.0118638239800930 ]
  - [   0.0009985021315515, -0.0030322568491101,  0.0118638342246413 ]
  - [   0.0009594680741429, -0.0030843359418213,  0.0118759348988533 ]
  - [   0.0009749126620591, -0.0030763708055019,  0.0118664987385273 ]
  - [   0.0009714565239847, -0.0030680107884109,  0.0118626654148102 ]
  - [   0.0009866370819509, -0.0030761910602450,  0.0118719898164272 ]
  - [   0.0009864573366940, -0.0030846097506583,  0.0118524655699730 ]
  - [   0.0009598862379789, -0.0030761747621000,  0.0118564870208502 ]
  - [   0.0009748251177371, -0.0030677737668157,  0.0118654379621148 ]
  - [   0.0009711794555187, -0.0030761519446969,  0.0118614453822374 ]
  - [  -0.0013347938656807,  0.0104002784937620, -0.0037589748390019 ]
  - [   0.0002794633619487,  0.0077881361357868, -0.0037430515512824 ]
  - [   0.0001991889439523,  0.0077881598845124, -0.0037431032396853 ]
  - [   0.0018228376284242,  0.0104222642257810, -0.0037591336295009 ]
  - [   0.0019055372104049,  0.0105350818485022, -0.0037256926298141 ]
  - [   0.0002021342515945,  0.0077895019203424, -0.0037428028881550 ]
  - [   0.0002766670659184,  0.0077897692099214, -0.0037430170923471 ]
  - [  -0.0014249887317419,  0.0105327609926462, -0.0037259818054736 ]
  - [   0.0002449912717566,  0.0077945790253580, -0.0037471724208444 ]
  - [   0.0002256336738355,  0.0077955382876098, -0.0037599438801408 ]
  - [   0.0002337205514777,  0.0077921161428094, -0.0037509435787797 ]
  - [   0.0002539082779549,  0.0078020626679063, -0.0037522651255131 ]
  - [   0.0002255253493786,  0.0078022452071309, -0.0037360829301178 ]
  - [   0.0002455860376358,  0.0077919121831656, -0.0037351688370109 ]
  - [   0.0002530596684664,  0.0077964877709746, -0.0037271273322403 ]
  - [   0.0002337992191315,  0.0077937413007021, -0.0037392876110971 ]
  - [  -0.0005213989643380, -0.0062632192857563, -0.0041194288060069 ]
  - [  -0.0004961124504916, -0.0055916276760399, -0.0046624019742012 ]
  - [  -0.0005223498446867, -0.0055737793445587, -0.0047002108767629 ]
  - [  -0.0005511807976291, -0.0055914730764925, -0.0046639111824334 ]
  - [  -0.0005199786974117, -0.0044922186061740, -0.0028627549763769 ]
  - [  -0.0008628156501800, -0.0056233145296574, -0.0049730706959963 ]
  - [  -0.0005228774389252, -0.0055825812742114, -0.0046902913600206 ]
  - [  -0.0001838094322011, -0.0056223995052278, -0.0049725566059351 ]
  - [  -0.0010959963547066, -0.0053599877282977, -0.0037496690638363 ]
  - [  -0.0004996028728783, -0.0055820378474891, -0.0046938504092395 ]
  - [  -0.0005456800572574, -0.0055817984975874, -0.0046940473839641 ]
  - [   0.0000480029411847, -0.0053607532754540, -0.0037521743215621 ]
  - [  -0.0005303946672939, -0.0056274891830981, -0.0046601840294898 ]
  - [  -0.0005232356488705, -0.0055769290775061, -0.0046937409788370 ]
  - [  -0.0005229972302914, -0.0055766575969756, -0.0046929521486163 ]
  - [  -0.0005153042147867, -0.0056271357461810, -0.0046591283753514 ]
  - [  -0.0001500202342868,  0.0010676535312086, -0.0043280646204948 ]
  - [  -0.0012228614650667,  0.0010680677369237, -0.0043118372559547 ]
  - [  -0.0006670542061329,  0.0008579872082919, -0.0034261166583747 ]
  - [  -0.0007127756252885,  0.0008576118270867, -0.0034264174755663 ]
  - [  -0.0006825500167906,  0.0008131006034091, -0.0034602056257427 ]
  - [  -0.0006972397677600,  0.0008133769151755, -0.0034613190218806 ]
  - [  -0.0006899423897266,  0.0008630695519969, -0.0034275793004781 ]
  - [  -0.0006890161894262,  0.0008628626819700, -0.0034265639260411 ]
  - [  -0.0006904890760779,  0.0020081079564989, -0.0053879013285041 ]
  - [  -0.0010234825313091,  0.0008242477197200, -0.0031543292570859 ]
  - [  -0.0006898578722030,  0.0008570026839152, -0.0034306272864342 ]
  - [  -0.0003548120148480,  0.0008224469493143, -0.0031529171392322 ]
  - [  -0.0006888178177178,  0.0001731324591674, -0.0039996979758143 ]
  - [  -0.0006623920053244,  0.0008481912664138, -0.0034561641514301 ]
  - [  -0.0006897596758790,  0.0008658243459649, -0.0034212414175272 ]
  - [  -0.0007173302583396,  0.0008474288042635, -0.0034581781364977 ]
- atom:    1
  displacement:
    [   0.0000065380767254, -0.0099999978626774,  0.0000000000000000 ]
  forces:
  - [   0.0009869501227513,  0.0085164718329906,  0.0118291564285755 ]
  - [   0.0009628391126171, -0.0028767003677785,  0.0118645457550883 ]
  - [   0.0009730230085552, -0.0030298368074000,  0.0118642561137676 ]
  - [   0.0009884212631732, -0.0028766454197466,  0.0118645690381527 ]
  - [   0.0009729582816362, -0.0029439139179885,  0.0118634570389986 ]
  - [   0.0009998567402363, -0.0031022184994072,  0.0118639310821891 ]
  - [   0.0009727478027344, -0.0030774273909628,  0.0118638072162867 ]
  - [   0.0009461815934628, -0.0031022829934955,  0.0118638016283512 ]
  - [   0.0009871316142380, -0.0030504316091537,  0.0118523500859737 ]
  - [   0.0009713126346469, -0.0030586221255362,  0.0118617024272680 ]
  - [   0.0009750775061548, -0.0030665360391140,  0.0118654789403081 ]
  - [   0.0009590224362910, -0.0030584228225052,  0.0118555771186948 ]
  - [   0.0009597586467862, -0.0030496907420456,  0.0118760820478201 ]
  - [   0.0009868280030787, -0.0030578379519284,  0.0118719134479761 ]
  - [   0.0009713280014694, -0.0030659986659884,  0.0118627734482288 ]
  - [   0.0009741946123540, -0.0030577578581870,  0.0118665639311075 ]
  - [   0.0018563414923847,  0.0051147001795471, -0.0037269208114594 ]
  - [   0.0001992722973228,  0.0077791782096028, -0.0037431782111526 ]
  - [   0.0002799811773002,  0.0077792336232960, -0.0037431893870234 ]
  - [  -0.0013859532773495,  0.0050926445983350, -0.0037266742438078 ]
  - [  -0.0013853278942406,  0.0050848815590143, -0.0037597932387143 ]
  - [   0.0002770982682705,  0.0077786576002836, -0.0037431772798300 ]
  - [   0.0002018893137574,  0.0077788187190890, -0.0037430026568472 ]
  - [   0.0018633245490491,  0.0050877947360277, -0.0037593194283545 ]
  - [   0.0002337638288736,  0.0077734086662531, -0.0037399395368993 ]
  - [   0.0002537953550927,  0.0077722119167447, -0.0037270667962730 ]
  - [   0.0002451186301187,  0.0077757611870766, -0.0037358622066677 ]
  - [   0.0002254764403915,  0.0077660479582846, -0.0037352875806391 ]
  - [   0.0002533160150051,  0.0077662328258157, -0.0037499628961086 ]
  - [   0.0002335794270039,  0.0077764447778463, -0.0037511670961976 ]
  - [   0.0002252114936709,  0.0077715907245874, -0.0037597955670208 ]
  - [   0.0002456419169903,  0.0077747758477926, -0.0037469128146768 ]
  - [  -0.0005238762823865, -0.0048946258611977, -0.0052723903208971 ]
  - [  -0.0005506160669029, -0.0055649173446000, -0.0047278823330998 ]
  - [  -0.0005228369263932, -0.0055823363363743, -0.0046900967136025 ]
  - [  -0.0004960753722116, -0.0055651990696788, -0.0047265309840441 ]
  - [  -0.0005257938755676, -0.0066611613146961, -0.0065040821209550 ]
  - [  -0.0001819775498006, -0.0055297482758760, -0.0044158678501844 ]
  - [  -0.0005231675459072, -0.0055737267248333, -0.0047001196071506 ]
  - [  -0.0008633014513180, -0.0055307494476438, -0.0044165356084704 ]
  - [   0.0000498049230373, -0.0057895183563232, -0.0056381551548839 ]
  - [  -0.0005464428104460, -0.0055754007771611, -0.0046953549608588 ]
  - [  -0.0004999185912311, -0.0055756662040949, -0.0046950597316027 ]
  - [  -0.0010941699147224, -0.0057886578142643, -0.0056356322020292 ]
  - [  -0.0005150195211172, -0.0055292132310569, -0.0047286436893046 ]
  - [  -0.0005226708017290, -0.0055798711255193, -0.0046952124685049 ]
  - [  -0.0005227429792285, -0.0055801472626626, -0.0046960655599833 ]
  - [  -0.0005314045120031, -0.0055295620113611, -0.0047293920069933 ]
  - [  -0.0012282156385481,  0.0006629269337282, -0.0025253787171096 ]
  - [  -0.0001571564935148,  0.0006620972417295, -0.0025417343713343 ]
  - [  -0.0007111467421055,  0.0008647572831251, -0.0034259059466422 ]
  - [  -0.0006675692275167,  0.0008643394103274, -0.0034256412182003 ]
  - [  -0.0006968439556658,  0.0009091629181057, -0.0033920900896192 ]
  - [  -0.0006817728281021,  0.0009091831161641, -0.0033908218611032 ]
  - [  -0.0006901193410158,  0.0008591636433266, -0.0034241913817823 ]
  - [  -0.0006898120045662,  0.0008595163235441, -0.0034252135083079 ]
  - [  -0.0006883176974952, -0.0002824342809618, -0.0014886206481606 ]
  - [  -0.0003538597375154,  0.0009017641423270, -0.0036992134992033 ]
  - [  -0.0006897111888975,  0.0008660826715641, -0.0034213364124298 ]
  - [  -0.0010265279561281,  0.0009032252128236, -0.0037006153725088 ]
  - [  -0.0006898758001626,  0.0015483557945117, -0.0028508983086795 ]
  - [  -0.0007168054580688,  0.0008749455446377, -0.0033954977989197 ]
  - [  -0.0006895169499330,  0.0008572365622967, -0.0034309555776417 ]