12
Lattice="4.739815626106383 0.00108355935719439 0.0008057628576446524 -0.0011477282794380057 4.990118243224208 0.0018884998791619963 -0.001343360366855011 -0.003069885045392956 9.244490692140895" Properties=species:S:1:pos:R:3:forces:R:3 structure_index=0 total_energy=-35.296043395996094 stress="0.0031109515111893415 0.00026686195633374155 -0.00032548484159633517 0.0002667682711035013 -0.0044982098042964935 -0.000533520185854286 -0.0003254974726587534 -0.00053324771579355 0.009293792769312859" pbc="T T T"
Li       3.24925838       2.66015526       1.88860146      -0.00052244      -0.02763508      -0.00625310
Li       3.24601761       2.65732859       8.07410624       0.00159250      -0.02733280       0.00446776
Li       0.87833891       0.92217534       8.05075819      -0.00117782       0.00618605      -0.00411977
Li       3.24769210       2.62000681       4.98057342      -0.00012963       0.01181383       0.00033853
Li       0.87980555       0.92611257       1.90704520      -0.00080057       0.00571298       0.00591674
Li       0.87715796       0.87730978       4.97964545       0.00168797       0.01210238       0.00007731
Ga       3.24904960       0.22111627       3.50260763      -0.00029183      -0.01227520       0.03602611
Ga       3.24726021       0.21789460       6.45765524       0.00059731      -0.00946506      -0.03772745
Ga       0.87803392       3.38016322       0.35835813       0.00116451       0.00174938      -0.00030051
Sn       3.24965534       0.20106355       0.35726228      -0.00078304      -0.02545481       0.00109601
Sn       0.87647780       3.39110615       6.60624021       0.00038189       0.03338377      -0.00112119
Sn       0.87907581       3.39444071       3.35485415      -0.00171886       0.03121458       0.00159956
12
Lattice="5.781586981762664 -0.09794679597155065 -0.6565741647736042 0.08207988554124422 4.987868454631316 0.019465834048555553 0.08578069123528147 -0.011164428007665953 7.652367030192038" Properties=species:S:1:pos:R:3:forces:R:3 structure_index=1 total_energy=-34.526485443115234 stress="0.00603748532012105 0.0002890182367991656 -0.006545207463204861 0.0002888723975047469 0.029811285436153412 0.0030694110319018364 -0.006545250304043293 0.003069243859499693 -0.0163574181497097" pbc="T T T"
Li       3.24929714       2.03446192       4.60576629       0.00188724      -0.00375728      -0.00756483
Li       3.19055743       3.82307401       0.73036785      -0.00386151      -0.00252777       0.02684543
Li       0.36695742       1.35934879       4.97442401      -0.00257807       0.00468122      -0.02894893
Li       4.29172214       4.51848207       5.81953259      -0.00027194      -0.01161982      -0.00170814
Li       0.30393616       4.55946128       1.04375522       0.02126813      -0.00066082       0.02414951
Ga       1.41883849       3.74287566       6.19171870      -0.01200497      -0.00650813      -0.00226673
Ga       5.12487835       2.02913484       6.84454773      -0.00194902      -0.00778693      -0.00917450
Ga       2.15427099       4.49381005       3.61822771      -0.01529614      -0.02468461       0.02172467
Ga       4.31924294       1.33131603       1.74946315       0.01612307       0.03021460      -0.01545266
Ga       2.28638116       1.20728682       7.10080463      -0.00375564       0.00936512      -0.01346599
Sn       4.99029717       3.84121776       3.14445442      -0.02208925       0.03612231       0.00508963
Sn       1.46994396       1.98459630       2.18012302       0.02252808      -0.02283792       0.00077252
16
Lattice="5.554341933862701 -0.0035291864907935236 0.0013317625980769734 0.0047178643827641 5.914782425656641 -0.000797314783724751 -0.0005601922608898489 0.006775507179619282 9.634157788018161" Properties=species:S:1:pos:R:3:forces:R:3 structure_index=2 total_energy=-48.24568176269531 stress="-0.014228571206331253 0.00014617283886764199 5.924568904447369e-05 0.00014615351392421871 -0.015008960850536823 4.963364699506201e-05 5.9113452152814716e-05 4.964059917256236e-05 -0.02095877006649971" pbc="T T T"
Li       3.24582080       1.52852020       2.40683033       0.03737917      -0.03182130       0.00011610
Li       0.47116221       3.24970943       2.40560564       0.03706633       0.03114478      -0.00133777
Li       1.38392084       4.49138612       7.22240712      -0.03715130      -0.03176943       0.00055873
Li       4.15749039       0.29274787       7.22206405      -0.03656352       0.03252118       0.00027416
Ga       5.27827296       4.75158919       9.58400467       0.01660044       0.02946097       0.00464343
Ga       4.90489848       1.78516229       4.76863684      -0.01483277       0.03116560       0.00370453
Ga       2.50349555       0.03696993       9.58745464       0.01351709      -0.03137818       0.00306810
Ga       2.49855810       0.03406785       4.86161682       0.01509463      -0.03270802      -0.00643615
Ga       5.28534310       4.74495706       4.85861121       0.01286043       0.03183936      -0.00361448
Ga       2.12443440       2.98765072       4.76960448      -0.01286540      -0.02877897       0.00308039
Ga       4.89904561       1.79026508       0.04311411      -0.01289460       0.02957015      -0.00261600
Ga       2.12666298       2.99111499       0.04290391      -0.01406061      -0.03134251      -0.00249087
Sn       0.60257777       0.37160423       2.40094937      -0.00615869       0.02675671      -0.00040505
Sn       1.24648170       1.45444568       7.22746930       0.00659578      -0.02687111       0.00132307
Sn       4.02578470       3.32990757       7.21856707       0.00475453       0.02712154      -0.00102483
Sn       3.38398512       4.40577318       2.40935847      -0.00934157      -0.02491079       0.00115664
15
Lattice="6.712971338741667 -0.029907489705328538 3.549979497400907 3.1374939018867596 5.837443994356961 3.4059411221513645 0.05870377508572776 -0.07546325951629472 6.9263132225799025" Properties=species:S:1:pos:R:3:forces:R:3 structure_index=3 total_energy=-42.76849365234375 stress="0.007351838983595371 0.00010103905515279621 -0.0012743385741487145 0.0001010522319120355 0.007250158581882715 -0.0007855523144826293 -0.0012739981757476926 -0.0007853996939957142 0.009348751045763493" pbc="T T T"
Li       4.23357629       5.29300616       6.01698506      -0.00902948       0.01073953       0.00735332
Li       3.48334243       1.44492202       9.01580219       0.00959481      -0.01740542      -0.01216896
Li       2.52034754       0.76548461       4.71838528       0.00865774      -0.01191265      -0.00060327
Li       7.73071144       3.36270584       8.97183353      -0.00527260       0.00757625       0.01098529
Li       5.57497752       2.51166546       4.14288621       0.00950945      -0.00782172      -0.00107857
Li       8.77919609       3.98448390      11.46134680       0.00082991       0.00980290      -0.00787584
Ga       1.46919734       1.30868769       7.23879621       0.01877091       0.00844523      -0.01364917
Ga       6.91775137       4.78662531       6.49297172      -0.02386974      -0.02910287      -0.01516609
Ga       7.33944104       2.14840904       6.28655761       0.00895627      -0.00070197      -0.01543785
Ga       6.22411328       5.06188676      10.64342693      -0.01848879      -0.01731493       0.00656335
Ga       3.75924257       2.52690514       6.35451260      -0.00661875       0.01256504       0.01018303
Ga       5.08400892       3.73136810       8.31232288      -0.00828662       0.00882524       0.00198733
Ga       5.13940958       0.27430451       5.80881731      -0.00190534       0.02213449       0.03328433
Sn       3.13753497       4.13190796       3.66934694      -0.00620055       0.00710219       0.00183523
Sn       6.27058376       0.87758781       8.65143812       0.02335281      -0.00293129      -0.00621208
15
Lattice="4.981754770700875 -0.004035273292297851 1.2484690588235678 1.5778670033034352 6.3438856377505095 1.3107150216515662 0.115509175391062 0.05487075221839736 8.915622815278587" Properties=species:S:1:pos:R:3:forces:R:3 structure_index=4 total_energy=-43.664737701416016 stress="-0.002280634129419923 -0.0012450959766283631 -0.0010268093319609761 -0.0012449417263269424 -0.0039017547387629747 0.0017064660787582397 -0.001026851823553443 0.0017063213745132089 -0.000739789567887783" pbc="T T T"
Li       1.91561922       4.34231971       2.89118133       0.03017619      -0.01908861       0.01945476
Li       4.18189809       5.84634837       7.25625430      -0.00575851      -0.00448981      -0.01746326
Li       4.34924252       5.81911700      10.28405810       0.00394526       0.01984919      -0.00774515
Li       4.46702571       3.10309865       5.81201176      -0.01709046       0.01148556      -0.01827032
Ga       4.96915945       0.79074656       7.43620849       0.00370578       0.00061822      -0.01306417
Ga       4.54101780       3.25554708       8.86622984      -0.03823525       0.00816742      -0.00162770
Ga       5.07923612       0.66808396       1.34357748       0.00586179      -0.00315329      -0.00926120
Ga       2.01882236       4.51157103       8.96167242      -0.04039267       0.01409644       0.02408972
Ga       4.88732603       0.80652193       4.32517130       0.03368860      -0.01472492       0.00015147
Ga       2.29358324       1.94519152       1.46258004      -0.01917450      -0.01054144       0.00527726
Ga       2.13078177       1.91240343       4.45841845       0.00803787      -0.00219218       0.00442202
Ga       4.62624441       3.11929503       2.72260514      -0.00200180       0.00975961       0.00724778
Ga       2.35672662       1.87236934       7.49071517       0.02022694       0.00015426      -0.01880348
Sn       1.76510536       4.44503871       5.99791738       0.00591664       0.00690124       0.01010333
Sn       4.27704547       5.73417702       4.25064130       0.01109414      -0.01684167       0.01548896
4
Lattice="4.055455983900696 0.0015924713514283925 -0.0009351446065416482 -0.0017428556343054658 4.055396416286208 -0.0030572783542829607 0.001103834171602137 0.0036299314442660847 4.449320005443282" Properties=species:S:1:pos:R:3:forces:R:3 structure_index=5 total_energy=-11.800252914428711 stress="0.024066966027021408 -0.001407630741596222 0.00026497081853449345 -0.0014076817315071821 0.02376393787562847 0.0009065248304978013 0.00026499020168557763 0.0009066421771422029 0.10520034283399582" pbc="T T T"
Li       3.50556420       2.38815622       1.00318829      -0.00014297       0.00018038       0.00118573
Li       1.47891762       0.35978358       1.00510049      -0.00044500      -0.00003230       0.00131722
Ga       3.50695034       0.36225627       3.22974080      -0.00083902       0.00082872      -0.00045054
Sn       1.47804778       2.38941250       3.22896818       0.00142699      -0.00097678      -0.00205241
12
Lattice="4.106753373567361 -0.013928717287551528 0.002599103276354466 -2.035303240735007 6.2443677679677725 0.01544210355897585 -0.005444562887815704 -0.027917650957165148 8.246423502358212" Properties=species:S:1:pos:R:3:forces:R:3 structure_index=6 total_energy=-33.285945892333984 stress="0.010912053287029266 -0.01209636777639389 -0.0004040256899315864 -0.012096409685909748 -0.005107087083160877 -0.016018446534872055 -0.0004039313062094152 -0.01601843349635601 -0.0005568959168158472" pbc="T T T"
Li       0.86545112       3.03975480       2.93775230      -0.00014801      -0.00579657       0.00574271
Li       0.86234428       3.02384025       7.08671447       0.00038336      -0.00308030      -0.00644825
Li       0.85948666       1.05669262       5.00551258      -0.00201799       0.00716713       0.00151848
Li       2.91941683       3.08535732       0.88966388       0.00244043      -0.00409424       0.00000752
Li      -1.18428350       5.23200289       7.15602943      -0.00038219      -0.01534217      -0.00720295
Li      -1.18102141       5.24355880       2.87697030      -0.00090957      -0.00900709       0.00514934
Li       0.87061642       5.18384110       5.01813946       0.00030626       0.01450840       0.00076712
Ga       0.87219976       5.05917679       0.89311553       0.00085400      -0.01350917       0.00151821
Ga       2.91009855       0.89087146       7.00136751       0.00072734       0.02039016       0.00642127
Ga       2.91302937       0.90291116       3.01515782       0.00037863       0.02018483      -0.00976743
Sn       2.91806155       3.16050265       5.01371952       0.00029911      -0.00396554       0.00088181
Sn       0.86126844       1.01207641       0.88431781      -0.00193132      -0.00745545       0.00141216
4
Lattice="4.025013000908859 -0.0013988376228679204 2.323990302087123 1.3407784612284315 3.7947991214437775 2.326231955564358 -0.0008589571128918967 -0.0007827273556463098 4.648940426193109" Properties=species:S:1:pos:R:3:forces:R:3 structure_index=7 total_energy=-11.746600151062012 stress="-0.05566771700978279 -0.0020684769842773676 -0.0015220632776618004 -0.0020682825706899166 -0.05670313909649849 0.00014271962572820485 -0.0015219630440697074 0.00014252231630962342 -0.058247655630111694" pbc="T T T"
Li       1.13150199       2.75898235       4.53805301       0.00046765       0.00038319       0.00044531
Li       2.47436906       0.86117734       2.21262796      -0.00011295       0.00061492       0.00014352
Ga       3.81600484       1.80911185       4.53756958      -0.00121426       0.00077115      -0.00042253
Sn       2.47268927       3.70764001       6.86301302       0.00085956      -0.00176927      -0.00016630
8
Lattice="5.441438422692522 0.15401236229465987 -2.9561911805468677 -1.8524429393674475 5.122517521724248 -2.949981693398801 -0.10926370748577927 -0.16354307695469264 6.188500016393986" Properties=species:S:1:pos:R:3:forces:R:3 structure_index=8 total_energy=-24.363725662231445 stress="0.033400341868400574 -0.0028193979524075985 0.0032546166330575943 -0.0028193488251417875 0.031040692701935768 0.004517840687185526 0.0032545458525419235 0.004517812281847 0.029874639585614204" pbc="T T T"
Li       0.94354804       0.73655472       1.76165087       0.01311967       0.01814891      -0.02249321
Ga       0.63667813       0.27737451       4.98773298      -0.02173032      -0.02943188      -0.03092454
Ga       2.69971389       3.32406509      -3.84617812       0.01794901       0.02496546       0.03662599
Ga      -0.32237600       3.16042500       0.57446606      -0.04240320       0.02589278       0.00051374
Ga       3.66026504       0.44164355       0.56788146       0.03986038      -0.02948304       0.00215905
Ga       2.29892788       2.72646769      -0.46464810      -0.00626501      -0.00689864       0.00984953
Sn      -0.19522696       2.97663943       3.64774392      -0.00210976       0.00270724       0.00064955
Sn       3.44971731       0.50317613       3.63850102       0.00157923      -0.00590082       0.00361988
4
Lattice="4.062349756306136 -0.001245230516965167 -0.00011004266101900548 0.0012894701840524562 4.061953401483087 0.0018329431523055513 9.430027918520299e-05 -0.0015957911420773224 4.435544011190034" Properties=species:S:1:pos:R:3:forces:R:3 structure_index=9 total_energy=-11.800226211547852 stress="0.10216027498245239 0.00040935774450190365 -7.977916538948193e-05 0.0004092920571565628 0.10019314289093018 0.0013024306390434504 -7.966079283505678e-05 0.0013024610234424472 -0.005938224960118532" pbc="T T T"
Li       0.96586484       3.21232712       3.41189209       0.00074179      -0.00004933      -0.00163893
Li       2.99714146       1.18067979       3.41103600      -0.00102856       0.00005468      -0.00185362
Ga       0.96558175       1.18213453       1.19277843      -0.00118395      -0.00008058       0.00054120
Sn       2.99697813       3.21246356       1.19311761       0.00147073       0.00007522       0.00295134
10
Lattice="2.824258892355322 -7.225570890954725e-05 0.00044353231857935426 7.484574862067976e-05 2.824259307616975 -0.00020327681876804613 -0.0032975338207579833 0.001532860752972654 21.185300960331954" Properties=species:S:1:pos:R:3:forces:R:3 structure_index=10 total_energy=-28.355955123901367 stress="-0.006931373383849859 2.6976173103321344e-05 2.3370582766801817e-06 2.6906844141194597e-05 -0.006919298321008682 -4.96156474127929e-07 2.2647614059678745e-06 -3.185467676303233e-07 -0.016177410259842873" pbc="T T T"
Li       0.14560916       2.02235618       2.79888662      -0.00002177      -0.00000456      -0.03213771
Li       0.14495803       2.02265534       6.89368585      -0.00001393       0.00001067       0.02526718
Li       0.14347144       2.02324116      15.15680827       0.00001928      -0.00000622      -0.02515608
Li       0.14284672       2.02351163      19.25192860       0.00001584       0.00001015       0.03179330
Li       0.14420992       2.02296203      11.02527572       0.00000174      -0.00000125      -0.00005744
Ga       1.55739978       0.61034618       4.85188614      -0.00003008      -0.00001131      -0.03385785
Ga       1.55522808       0.61120045      17.19937843       0.00002935       0.00001576       0.03397600
Ga       1.55592612       0.61094371      13.10200490       0.00000679      -0.00001065      -0.02019625
Ga       1.55668033       0.61064636       8.94913505      -0.00000466      -0.00000413       0.02026949
Sn       1.55797053       0.61000043       0.43302709      -0.00000256       0.00000156       0.00009937
16
Lattice="4.378574784290767 0.008329503923000858 -0.002748327396617995 -2.1958436989358416 5.237238322795134 -0.14280235337177996 0.009078763954707005 -0.020385314105271925 15.843922252756865" Properties=species:S:1:pos:R:3:forces:R:3 structure_index=11 total_energy=-49.320247650146484 stress="-0.0014922998379915953 0.00015089935914147645 4.454013105714694e-05 0.00015094933041837066 0.0007769479998387396 -0.00074618129292503 4.450114647625014e-05 -0.0007461549830622971 0.0012673453893512487" pbc="T T T"
Li      -0.29663578       4.29656530       7.87795091      -0.00043162       0.00340235       0.02756194
Li      -0.28934901       3.01681628      11.49710432      -0.00038087      -0.00055103      -0.01484107
Li      -0.30041418       4.29954459       3.90605149       0.00024433      -0.00044763       0.00278150
Li      -0.29626868       3.09577545       0.00187887      -0.00014934       0.00796133      -0.00068938
Li       1.89174551       1.68404468       6.04621543       0.00106002      -0.05052839       0.00364366
Ga       1.89405506       2.21133513       9.15312971       0.00019611       0.01262078      -0.04475688
Ga      -0.29444719       1.33263094       8.07252435      -0.00041449      -0.01530859       0.00139887
Ga      -0.29636014       1.32243836       3.97410646       0.00034555      -0.01079633       0.02164654
Ga       1.90070445       0.85800960      11.52538524       0.00031721       0.01715461      -0.02436124
Ga       1.89405038       0.78882281       0.06284974      -0.00038054       0.01025134       0.00374949
Sn       1.89064444       2.30023925       2.55560668      -0.00011461       0.00242732       0.01778984
Sn       1.88979825       4.70746134       5.87479121       0.00022076      -0.03113639       0.01986332
Sn       1.88966867       5.01872033       1.40546025       0.00031150       0.01961078       0.00369037
Sn       4.09405093       0.39514952      13.65748245      -0.00089533       0.02567593      -0.01647335
Sn       1.89525782       4.81567556      10.16256935      -0.00022375      -0.00225624       0.00756931
Sn       1.90153090       2.63318944      13.75700155       0.00029505       0.01192017      -0.00857293
5
Lattice="2.8956119634279145 -0.005199467907502719 0.004546880856291904 0.009706650669562254 4.40628922528055 -1.292108885929105 -0.010984713975369475 -0.23873053404632516 7.354044024929791" Properties=species:S:1:pos:R:3:forces:R:3 structure_index=12 total_energy=-14.805686950683594 stress="-0.02337915077805519 -0.0008513304055668414 -0.0003698228974826634 -0.0008513254579156637 -0.0534394197165966 -0.0012530318927019835 -0.0003700344532262534 -0.0012529483065009117 -0.06071918085217476" pbc="T T T"
Li       1.11364838       1.74040774       4.47876327      -0.00054757       0.01076870       0.03065438
Li       1.11556698       0.84138228       1.39631857       0.00051502      -0.01060995      -0.02966763
Ga       2.55408489      -0.11330629       6.32648621       0.00122404       0.00973538       0.01789764
Ga       2.57074057       2.68997138      -0.44603852      -0.00123807      -0.00983796      -0.01860627
Sn       2.56721795       3.49155108       2.29416148       0.00004657      -0.00005617      -0.00027812
6
Lattice="3.251784703779089 0.0016902998236520918 -0.000531461106378765 -0.0012371938727093563 3.2516649721222826 -0.0009506319134492679 0.002423543340373986 0.005325905842638174 10.6664238185381" Properties=species:S:1:pos:R:3:forces:R:3 structure_index=13 total_energy=-18.17804718017578 stress="-0.03882879018783569 0.002201566705480218 0.0014938386157155037 0.002201674971729517 -0.03995053842663765 0.003445615293458104 0.0014941744739189744 0.0034453310072422028 0.06056099012494087" pbc="T T T"
Li       0.66194158       2.17003990       0.68697185       0.00003981       0.00017678       0.00777720
Li       0.66209286       2.17239378       4.52842382       0.00047144      -0.00005853      -0.00044796
Li       0.66368418       2.17480468       8.36850986       0.00013010      -0.00060436      -0.00762353
Ga       2.29075148       0.54996210       9.86091986      -0.00062258       0.00034856       0.00047308
Sn       2.28857307       0.54590047       2.60237965      -0.00005215       0.00048049      -0.03226043
Sn       2.28940736       0.54882799       6.45433523       0.00003339      -0.00034298       0.03208163
4
Lattice="4.176368228624124 3.9738018124638e-05 2.4111896896897638 1.3915303516546444 3.937855325182888 2.4110023933060916 0.0002392021179056078 0.0001715905022931752 4.823095688122136" Properties=species:S:1:pos:R:3:forces:R:3 structure_index=14 total_energy=-12.769668579101562 stress="-0.06429015845060349 -0.000813835475128144 -0.00139521062374115 -0.0008138779085129499 -0.061991166323423386 -0.0012831493513658643 -0.001395252882502973 -0.0012830354971811175 -0.061400093138217926" pbc="T T T"
Li       3.62963660       2.93226023       6.86713809      -0.00110794       0.00017350       0.00092150
Li       0.84604712       0.96320499       2.04604883      -0.00184291       0.00020501      -0.00146371
Sn       2.23690424       1.94787999       4.45678806       0.00196747      -0.00032954      -0.00070644
Sn       5.02130799       3.91681499       9.27876103       0.00098337      -0.00004896       0.00124864
6
Lattice="3.2563268491528445 -1.765625593675694e-05 -0.00027686325978034423 1.5637558217930253e-05 3.2562956877252507 0.0001687802363682079 0.0006283622968472854 -0.0010448199872699422 10.636820167354573" Properties=species:S:1:pos:R:3:forces:R:3 structure_index=15 total_energy=-18.178688049316406 stress="0.0020997619722038507 -7.049539817671757e-06 0.00035257660783827305 -6.932684755156515e-06 0.0018058012938126922 -0.0011846396373584867 0.00035243984893895686 -0.0011845919070765376 0.028824688866734505" pbc="T T T"
Li       0.47960989       3.21294787       7.43166951      -0.00037906       0.00036017       0.00052878
Li       0.47918479       3.21374181       3.59571186      -0.00008492       0.00008864       0.00637569
Li       0.47844699       3.21417319       0.63191591       0.00033933      -0.00030055      -0.00682406
Ga       2.10700323       1.58579808       2.11353906      -0.00006832      -0.00000997       0.00006607
Sn       2.10710017       1.58488155       9.37485218       0.00057774       0.00000960      -0.00556282
Sn       2.10779349       1.58531543       5.48866887      -0.00038476      -0.00014788       0.00541636
4
Lattice="4.031178934530732 0.0006623346223549758 2.326952822033111 1.3411435417235076 3.801233143198087 2.3279930076215147 0.00047829818998876435 0.00031645333226884017 4.6559864325702724" Properties=species:S:1:pos:R:3:forces:R:3 structure_index=16 total_energy=-11.746602058410645 stress="0.047665856778621674 -0.003956151194870472 -0.002755634253844619 -0.003956052009016275 0.045968785881996155 -0.0014813095331192017 -0.002755517140030861 -0.0014813895104452968 0.04086316004395485" pbc="T T T"
Li       1.23982037       3.42267684       5.33651002       0.00115109      -0.00013874       0.00105885
Li       2.58582205       1.52309610       3.00899271      -0.00192196      -0.00213700      -0.00136507
Ga       1.24233890       0.57043199       5.33554551       0.00019833       0.00398294       0.00255060
Sn       3.92819133       2.47351435       5.33681659       0.00057254      -0.00170721      -0.00224438
6
Lattice="4.5663256253629845 -0.00023930618075769516 -4.444042125615436e-05 -2.282856836344662 3.9548826277564295 7.090856339288187e-05 0.0004972102707401135 3.505995312119874e-05 7.48397045874448" Properties=species:S:1:pos:R:3:forces:R:3 structure_index=17 total_energy=-18.6644287109375 stress="0.056054189801216125 -0.00017649660003371537 -0.0002067465102300048 -0.00017662026220932603 0.05629173666238785 -2.813686842273455e-05 -0.00020677645807154477 -2.7627896997728385e-05 0.02963765151798725" pbc="T T T"
Li       3.66056705       1.06056616       2.37202073       0.00067903       0.00107612       0.00755949
Li       3.66275931       1.06109055       6.11289334      -0.00056947      -0.00099880       0.00861651
Ga       1.37923883       2.37872507       6.87601459      -0.00000310       0.00244887       0.02547250
Ga      -0.90491217       3.69811104       3.13420039      -0.00142424      -0.00291577       0.02361705
Sn       1.37793629       2.37925046       4.06097268       0.00139486       0.00136246      -0.03402370
Sn      -0.90436269       3.69744433       0.31868672      -0.00007709      -0.00097287      -0.03124187
12
Lattice="4.686595861487717 0.007262690986571405 -0.0025501003561423157 -0.009133800768682242 5.891459902023703 -0.02389396634582941 0.00492399768736938 0.03830734720835585 8.755206213008591" Properties=species:S:1:pos:R:3:forces:R:3 structure_index=18 total_energy=-36.12274932861328 stress="-0.01741807721555233 2.443472112645395e-05 1.7670994566287845e-05 2.4452621801174246e-05 -0.026964185759425163 9.644268720876426e-05 1.7725311408867128e-05 9.637355105951428e-05 -0.028986314311623573" pbc="T T T"
Li       2.27699352       3.11731365       4.63164110      -0.00014326       0.04086073       0.01711512
Li       2.27574017       2.61499663       1.63326446       0.00003516       0.02786098       0.02266807
Li       4.62397656       1.48629702       7.35793915       0.00026256      -0.03812359      -0.01076491
Li       2.27224037       5.56658759       2.97134497      -0.00034217       0.02602677      -0.02224089
Li       2.26934916       6.03901814      -0.02666385      -0.00000098       0.04438984      -0.02424997
Li       4.61898103       4.42820052       6.00158775      -0.00009092      -0.04173541       0.02134478
Ga       4.62315690       1.17127338       4.42646361      -0.00005228      -0.03198294       0.00158973
Ga       4.61572876       4.10002873       0.18701613       0.00039858      -0.03436264      -0.00419974
Sn       4.61836336       3.78451195       3.08524719      -0.00017578      -0.00066010       0.00069156
Sn       2.28194100       0.27484247       5.87282053       0.00011966       0.00819418      -0.01207155
Sn       4.62165415       0.83418748       1.53183645       0.00033078      -0.00646123      -0.00325124
Sn       2.27816046       3.22853301       7.50659437      -0.00034134       0.00599339       0.01336902
12
Lattice="4.755300828459371 0.0008837666451427944 0.0016915465822347508 -0.0010621106958590232 5.21678532971048 0.0717690168908576 -0.002768129316343182 0.01592220366522797 8.873560234537099" Properties=species:S:1:pos:R:3:forces:R:3 structure_index=19 total_energy=-34.4444694519043 stress="-0.008323056623339653 0.0002908123133238405 -0.00012547527148853987 0.00029071132303215563 0.031045395880937576 0.013699030503630638 -0.00012550239625852555 0.013699343428015709 0.0001488019188400358" pbc="T T T"
Li       4.45517606       1.01489655       3.48648785       0.00111502      -0.00159588       0.00434887
Li       4.45544292       3.66849816       2.01588083       0.00030350       0.03383600       0.02560951
Li       2.07668614       2.63003681       6.45027209       0.00058677       0.01164530      -0.00188958
Li       2.07791640       2.72776819       3.49165827      -0.00103563       0.00551596       0.03416791
Li       2.07692043       0.21091589       7.85886812       0.00044289      -0.01971132      -0.02214703
Li       4.45672969       1.10696235       0.39425121      -0.00037558      -0.02014217      -0.00105071
Li       4.45403001       3.56371694       7.81784482      -0.00075989      -0.00343029       0.02057127
Ga       4.45411873       3.42508015       4.99309543       0.00102311       0.03380278       0.00555243
Ga       4.45530627       1.06079237       6.45318755      -0.00193606      -0.02817926      -0.02495396
Sn       2.07817769       2.83439748       0.45679284       0.00131736      -0.02478166      -0.02233648
Sn       2.07894364       0.19458796       1.95213897      -0.00117230      -0.01127203      -0.02328515
Sn       2.07730060      -0.00000376       4.96367324       0.00049083       0.02431261       0.00541294
10
Lattice="3.0124531480742416 0.0002312641022207278 -0.00013077559988078377 -0.0005563146624632028 7.909889797289261 -0.0014939994131361078 0.00034075638032608394 0.0016376868903723195 7.904755703570141" Properties=species:S:1:pos:R:3:forces:R:3 structure_index=20 total_energy=-28.908893585205078 stress="-0.015285387635231018 1.2115215213270858e-05 4.968638222635491e-06 1.211818653246155e-05 -0.013798221945762634 -0.0003092280530836433 4.807823188457405e-06 -0.00030910962959751487 -0.014671141281723976" pbc="T T T"
Li       0.26758050       1.12098501       0.65617214      -0.00000966      -0.02196842      -0.02161432