# Tetrahedron method
       -1.1996693311        0.0000000000
       -1.1276891793        0.0000000000
       -1.0557090276        0.0000000000
       -0.9837288758        0.0000000000
       -0.9117487241        0.0000000000
       -0.8397685723        0.0000000000
       -0.7677884206        0.0000000000
       -0.6958082688        0.0000000000
       -0.6238281171        0.0000000000
       -0.5518479653        0.0000000000
       -0.4798678136        0.0000000000
       -0.4078876618        0.0000000000
       -0.3359075101        0.0000000000
       -0.2639273583        0.0000000000
       -0.1919472066        0.0000000000
       -0.1199670548        0.0000000000
       -0.0479869031        0.0000000000
        0.0239932487        0.0002500164
        0.0959734004        0.0040002743
        0.1679535521        0.0122508449
        0.2399337039        0.0367714856
        0.3119138556        0.0650166026
        0.3838940074        0.1079464857
        0.4558741591        0.1671912541
        0.5278543109        0.2317021557
        0.5998344626        0.3107223477
        0.6718146144        0.4108608241
        0.7437947661        0.5520777976
        0.8157749179        0.7433700709
        0.8877550696        1.0606321377
        0.9597352214        1.3952691660
        1.0317153731        1.7964840727
        1.1036955249        3.2530072737
        1.1756756766        4.0810563937
        1.2476558284        3.2815402459
        1.3196359801        2.6832636506
        1.3916161319        2.4205933059
        1.4635962836        3.0062747193
        1.5355764354        3.8286709494
        1.6075565871        3.8833256408
        1.6795367389        3.3931323897
        1.7515168906        2.6493682106
        1.8234970424        4.6335278735
        1.8954771941        3.6449409512
        1.9674573459        5.1469716987
        2.0394374976        6.1394350165
        2.1114176493        4.9171791307
        2.1833978011        6.0946977880
        2.2553779528        6.8945163992
        2.3273581046        5.3044498105
        2.3993382563        6.0844383279
        2.4713184081        4.0079952553
        2.5432985598        3.9471200073
        2.6152787116        6.4890197389
        2.6872588633        8.8905968461
        2.7592390151        5.5994204701
        2.8312191668        7.4173960874
        2.9031993186        0.8055896563
        2.9751794703        0.3790196667
        3.0471596221        0.0000000000
        3.1191397738        0.0000000000
        3.1911199256        0.0000000000
        3.2631000773        1.2636315635
        3.3350802291        2.5516673773
        3.4070603808        2.0639247116
        3.4790405326        2.0331698514
        3.5510206843        2.4137586932
        3.6230008361        1.6783791580
        3.6949809878        1.6082083763
        3.7669611396        0.8250778077
        3.8389412913        0.3440067305
        3.9109214431        0.4546286603
        3.9829015948        0.6492687150
        4.0548817465        0.8788950748
        4.1268618983        2.5011233981
        4.1988420500        2.5482620658
        4.2708222018        2.2992801158
        4.3428023535        2.5396642621
        4.4147825053        2.7690917098
        4.4867626570        3.1468457747
        4.5587428088        2.5685530448
        4.6307229605        2.6035509155
        4.7027031123        3.0350547988
        4.7746832640        2.7490886551
        4.8466634158        2.2793456095
        4.9186435675        2.0051296832
        4.9906237193        1.9342468310
        5.0626038710        2.4738001262
        5.1345840228        1.7277586849
        5.2065641745        1.0607732548
        5.2785443263        0.9710517227
        5.3505244780        1.0086093708
        5.4225046298        1.4429261807
        5.4944847815        1.5804832860
        5.5664649333        1.8025543022
        5.6384450850        2.1828566668
        5.7104252368        1.4403255563
        5.7824053885        1.0260649148
        5.8543855403        1.2556994439
        5.9263656920        2.5219952729
        5.9983458437        2.9505250307
        6.0703259955        4.2924571999
        6.1423061472        6.6274019092
        6.2142862990        2.5471087995
        6.2862664507        2.7527053687
        6.3582466025        3.4197606371
        6.4302267542        4.0464346100
        6.5022069060        3.6307630168
        6.5741870577        3.7513670794
        6.6461672095        3.2013708019
        6.7181473612        4.7637350080
        6.7901275130        3.6037042196
        6.8621076647        4.7105994763
        6.9340878165        3.4763308143
        7.0060679682        3.1971599579
        7.0780481200        2.7626841906
        7.1500282717        2.4933561177
        7.2220084235        2.8868299986
        7.2939885752        3.3046341995
        7.3659687270        4.1579833270
        7.4379488787        4.4823447394
        7.5099290305        4.9525379575
        7.5819091822        5.4962912844
        7.6538893340        3.5301050149
        7.7258694857        2.0851255335
        7.7978496375        2.7471659998
        7.8698297892        3.2698363164
        7.9418099409        3.3003021561
        8.0137900927        4.6537720329
        8.0857702444        3.3562712130
        8.1577503962        3.4447023772
        8.2297305479        2.7146379959
        8.3017106997        5.5837524702
        8.3736908514        3.8435476178
        8.4456710032        4.7758259112
        8.5176511549        7.1203162136
        8.5896313067        3.7464876675
        8.6616114584        3.3881252284
        8.7335916102        5.4509558452
        8.8055717619        3.9119021832
        8.8775519137        3.4087291980
        8.9495320654        3.5617854392
        9.0215122172        4.7009371292
        9.0934923689        2.6785157558
        9.1654725207        0.8477645649
        9.2374526724        2.1716695594
        9.3094328242        4.3684207883
        9.3814129759        7.9155043067
        9.4533931277        7.2926916422
        9.5253732794        5.7170290065
        9.5973534312        3.2319920854
        9.6693335829        3.8063899801
        9.7413137347        1.4983082274
        9.8132938864        2.2015318691
        9.8852740381        3.7063419744
        9.9572541899        3.3823409266
       10.0292343416        3.7798914149
       10.1012144934        3.1403733875
       10.1731946451        1.7600141624
       10.2451747969        2.5083684598
       10.3171549486        1.2813372676
       10.3891351004        1.0854338521
       10.4611152521        1.0335763171
       10.5330954039        1.0564607407
       10.6050755556        1.5898650345
       10.6770557074        3.1069549758
       10.7490358591        3.0501172804
       10.8210160109        1.6402350000
       10.8929961626        2.2299495268
       10.9649763144        1.7823839986
       11.0369564661        1.6321358293
       11.1089366179        1.2668464140
       11.1809167696        3.6966289176
       11.2528969214        6.1898971304
       11.3248770731        7.4690832974
       11.3968572249        2.1233962182
       11.4688373766        3.6528165231
       11.5408175284        9.6741059383
       11.6127976801        4.5718074477
       11.6847778319        3.2822277797
       11.7567579836       10.1359308972
       11.8287381353        1.9283393086
       11.9007182871        1.4858040488
       11.9726984388        0.6453497846
       12.0446785906        0.0000000000
       12.1166587423        0.0000000000
       12.1886388941        0.0000000000
       12.2606190458        0.0000000000
       12.3325991976        0.0000000000
       12.4045793493        0.0000000000
       12.4765595011        0.0000000000
       12.5485396528        0.0000000000
       12.6205198046        0.0000000000
       12.6924999563        0.0000000000
       12.7644801081        0.0000000000
       12.8364602598        0.0000000000
       12.9084404116        0.0000000000
       12.9804205633        0.0000000000
       13.0524007151        0.0000000000
       13.1243808668        0.0000000000
       13.1963610186        0.0000000000
