phonopy:
  version: "2.37.1"
  frequency_unit_conversion_factor: 15.633302
  symmetry_tolerance: 1.00000e-05

space_group:
  type: "P1"
  number: 1
  Hall_symbol: "P 1"

primitive_matrix:
- [  0.000000000000000,  1.000000000000000,  0.000000000000000 ]
- [  0.000000000000000,  0.000000000000000,  1.000000000000000 ]
- [  1.000000000000000,  0.000000000000000,  0.000000000000000 ]

supercell_matrix:
- [   3,   0,   0 ]
- [   0,   3,   0 ]
- [   0,   0,   3 ]

primitive_cell:
  lattice:
  - [    -0.001258722928671,    -0.000705641832834,     4.650760426766671 ] # a
  - [     4.652521780660460,     0.000000000000000,     0.000000000000000 ] # b
  - [    -0.000828647906476,     4.654718855669421,     0.000000000000000 ] # c
  points:
  - symbol: Li # 1
    coordinates: [  0.484068572521209,  0.377985864877701,  0.707179427146912 ]
    mass: 6.940000
  - symbol: Sn # 2
    coordinates: [  0.983941555023193,  0.377961993217468,  0.207025274634361 ]
    mass: 118.710000
  - symbol: Sn # 3
    coordinates: [  0.483999758958816,  0.878241300582886,  0.207288280129433 ]
    mass: 118.710000
  - symbol: Sn # 4
    coordinates: [  0.984006345272064,  0.877768337726592,  0.707133710384369 ]
    mass: 118.710000
  reciprocal_lattice: # without 2pi
  - [     0.000000000000000,     0.000000000000000,     0.215018600881840 ] # a*
  - [     0.214937199038334,     0.000038263806157,     0.000058178309861 ] # b*
  - [     0.000000000000000,     0.214835746477364,     0.000032596194169 ] # c*

unit_cell:
  lattice:
  - [     4.652521780660459,     0.000000000000000,     0.000000000000000 ] # a
  - [    -0.000828647906476,     4.654718855669421,     0.000000000000000 ] # b
  - [    -0.001258722928671,    -0.000705641832834,     4.650760426766670 ] # c
  points:
  - symbol: Li # 1
    coordinates: [  0.377985864877701,  0.707179427146912,  0.484068572521209 ]
    mass: 6.940000
    reduced_to: 1
  - symbol: Sn # 2
    coordinates: [  0.377961993217468,  0.207025274634361,  0.983941555023193 ]
    mass: 118.710000
    reduced_to: 2
  - symbol: Sn # 3
    coordinates: [  0.878241300582886,  0.207288280129433,  0.483999758958816 ]
    mass: 118.710000
    reduced_to: 3
  - symbol: Sn # 4
    coordinates: [  0.877768337726593,  0.707133710384369,  0.984006345272064 ]
    mass: 118.710000
    reduced_to: 4

supercell:
  lattice:
  - [    13.957565341981377,     0.000000000000000,     0.000000000000000 ] # a
  - [    -0.002485943719429,    13.964156567008263,     0.000000000000000 ] # b
  - [    -0.003776168786013,    -0.002116925498502,    13.952281280300010 ] # c
  points:
  - symbol: Li # 1
    coordinates: [  0.125995288292567,  0.235726475715637,  0.161356190840403 ]
    mass: 6.940000
    reduced_to: 1
  - symbol: Li # 2
    coordinates: [  0.459328621625900,  0.235726475715637,  0.161356190840403 ]
    mass: 6.940000
    reduced_to: 1
  - symbol: Li # 3
    coordinates: [  0.792661954959234,  0.235726475715637,  0.161356190840403 ]
    mass: 6.940000
    reduced_to: 1
  - symbol: Li # 4
    coordinates: [  0.125995288292567,  0.569059809048970,  0.161356190840403 ]
    mass: 6.940000
    reduced_to: 1
  - symbol: Li # 5
    coordinates: [  0.459328621625900,  0.569059809048970,  0.161356190840403 ]
    mass: 6.940000
    reduced_to: 1
  - symbol: Li # 6
    coordinates: [  0.792661954959234,  0.569059809048970,  0.161356190840403 ]
    mass: 6.940000
    reduced_to: 1
  - symbol: Li # 7
    coordinates: [  0.125995288292567,  0.902393142382304,  0.161356190840403 ]
    mass: 6.940000
    reduced_to: 1
  - symbol: Li # 8
    coordinates: [  0.459328621625900,  0.902393142382304,  0.161356190840403 ]
    mass: 6.940000
    reduced_to: 1
  - symbol: Li # 9
    coordinates: [  0.792661954959234,  0.902393142382304,  0.161356190840403 ]
    mass: 6.940000
    reduced_to: 1
  - symbol: Li # 10
    coordinates: [  0.125995288292567,  0.235726475715637,  0.494689524173736 ]
    mass: 6.940000
    reduced_to: 1
  - symbol: Li # 11
    coordinates: [  0.459328621625900,  0.235726475715637,  0.494689524173736 ]
    mass: 6.940000
    reduced_to: 1
  - symbol: Li # 12
    coordinates: [  0.792661954959234,  0.235726475715637,  0.494689524173736 ]
    mass: 6.940000
    reduced_to: 1
  - symbol: Li # 13
    coordinates: [  0.125995288292567,  0.569059809048970,  0.494689524173736 ]
    mass: 6.940000
    reduced_to: 1
  - symbol: Li # 14
    coordinates: [  0.459328621625900,  0.569059809048970,  0.494689524173736 ]
    mass: 6.940000
    reduced_to: 1
  - symbol: Li # 15
    coordinates: [  0.792661954959234,  0.569059809048970,  0.494689524173736 ]
    mass: 6.940000
    reduced_to: 1
  - symbol: Li # 16
    coordinates: [  0.125995288292567,  0.902393142382304,  0.494689524173736 ]
    mass: 6.940000
    reduced_to: 1
  - symbol: Li # 17
    coordinates: [  0.459328621625900,  0.902393142382304,  0.494689524173736 ]
    mass: 6.940000
    reduced_to: 1
  - symbol: Li # 18
    coordinates: [  0.792661954959234,  0.902393142382304,  0.494689524173736 ]
    mass: 6.940000
    reduced_to: 1
  - symbol: Li # 19
    coordinates: [  0.125995288292567,  0.235726475715637,  0.828022857507070 ]
    mass: 6.940000
    reduced_to: 1
  - symbol: Li # 20
    coordinates: [  0.459328621625900,  0.235726475715637,  0.828022857507070 ]
    mass: 6.940000
    reduced_to: 1
  - symbol: Li # 21
    coordinates: [  0.792661954959234,  0.235726475715637,  0.828022857507070 ]
    mass: 6.940000
    reduced_to: 1
  - symbol: Li # 22
    coordinates: [  0.125995288292567,  0.569059809048970,  0.828022857507070 ]
    mass: 6.940000
    reduced_to: 1
  - symbol: Li # 23
    coordinates: [  0.459328621625900,  0.569059809048970,  0.828022857507070 ]
    mass: 6.940000
    reduced_to: 1
  - symbol: Li # 24
    coordinates: [  0.792661954959234,  0.569059809048970,  0.828022857507070 ]
    mass: 6.940000
    reduced_to: 1
  - symbol: Li # 25
    coordinates: [  0.125995288292567,  0.902393142382304,  0.828022857507070 ]
    mass: 6.940000
    reduced_to: 1
  - symbol: Li # 26
    coordinates: [  0.459328621625900,  0.902393142382304,  0.828022857507070 ]
    mass: 6.940000
    reduced_to: 1
  - symbol: Li # 27
    coordinates: [  0.792661954959234,  0.902393142382304,  0.828022857507070 ]
    mass: 6.940000
    reduced_to: 1
  - symbol: Sn # 28
    coordinates: [  0.125987331072489,  0.069008424878120,  0.327980518341064 ]
    mass: 118.710000
    reduced_to: 28
  - symbol: Sn # 29
    coordinates: [  0.459320664405823,  0.069008424878120,  0.327980518341064 ]
    mass: 118.710000
    reduced_to: 28
  - symbol: Sn # 30
    coordinates: [  0.792653997739156,  0.069008424878120,  0.327980518341064 ]
    mass: 118.710000
    reduced_to: 28
  - symbol: Sn # 31
    coordinates: [  0.125987331072489,  0.402341758211454,  0.327980518341064 ]
    mass: 118.710000
    reduced_to: 28
  - symbol: Sn # 32
    coordinates: [  0.459320664405823,  0.402341758211454,  0.327980518341064 ]
    mass: 118.710000
    reduced_to: 28
  - symbol: Sn # 33
    coordinates: [  0.792653997739156,  0.402341758211454,  0.327980518341064 ]
    mass: 118.710000
    reduced_to: 28
  - symbol: Sn # 34
    coordinates: [  0.125987331072489,  0.735675091544787,  0.327980518341064 ]
    mass: 118.710000
    reduced_to: 28
  - symbol: Sn # 35
    coordinates: [  0.459320664405823,  0.735675091544787,  0.327980518341064 ]
    mass: 118.710000
    reduced_to: 28
  - symbol: Sn # 36
    coordinates: [  0.792653997739156,  0.735675091544787,  0.327980518341064 ]
    mass: 118.710000
    reduced_to: 28
  - symbol: Sn # 37
    coordinates: [  0.125987331072489,  0.069008424878120,  0.661313851674398 ]
    mass: 118.710000
    reduced_to: 28
  - symbol: Sn # 38
    coordinates: [  0.459320664405823,  0.069008424878120,  0.661313851674398 ]
    mass: 118.710000
    reduced_to: 28
  - symbol: Sn # 39
    coordinates: [  0.792653997739156,  0.069008424878120,  0.661313851674398 ]
    mass: 118.710000
    reduced_to: 28
  - symbol: Sn # 40
    coordinates: [  0.125987331072489,  0.402341758211454,  0.661313851674398 ]
    mass: 118.710000
    reduced_to: 28
  - symbol: Sn # 41
    coordinates: [  0.459320664405823,  0.402341758211454,  0.661313851674398 ]
    mass: 118.710000
    reduced_to: 28
  - symbol: Sn # 42
    coordinates: [  0.792653997739156,  0.402341758211454,  0.661313851674398 ]
    mass: 118.710000
    reduced_to: 28
  - symbol: Sn # 43
    coordinates: [  0.125987331072489,  0.735675091544787,  0.661313851674398 ]
    mass: 118.710000
    reduced_to: 28
  - symbol: Sn # 44
    coordinates: [  0.459320664405823,  0.735675091544787,  0.661313851674398 ]
    mass: 118.710000
    reduced_to: 28
  - symbol: Sn # 45
    coordinates: [  0.792653997739156,  0.735675091544787,  0.661313851674398 ]
    mass: 118.710000
    reduced_to: 28
  - symbol: Sn # 46
    coordinates: [  0.125987331072489,  0.069008424878120,  0.994647185007731 ]
    mass: 118.710000
    reduced_to: 28
  - symbol: Sn # 47
    coordinates: [  0.459320664405823,  0.069008424878120,  0.994647185007731 ]
    mass: 118.710000
    reduced_to: 28
  - symbol: Sn # 48
    coordinates: [  0.792653997739156,  0.069008424878120,  0.994647185007731 ]
    mass: 118.710000
    reduced_to: 28
  - symbol: Sn # 49
    coordinates: [  0.125987331072489,  0.402341758211454,  0.994647185007731 ]
    mass: 118.710000
    reduced_to: 28
  - symbol: Sn # 50
    coordinates: [  0.459320664405823,  0.402341758211454,  0.994647185007731 ]
    mass: 118.710000
    reduced_to: 28
  - symbol: Sn # 51
    coordinates: [  0.792653997739156,  0.402341758211454,  0.994647185007731 ]
    mass: 118.710000
    reduced_to: 28
  - symbol: Sn # 52
    coordinates: [  0.125987331072489,  0.735675091544787,  0.994647185007731 ]
    mass: 118.710000
    reduced_to: 28
  - symbol: Sn # 53
    coordinates: [  0.459320664405823,  0.735675091544787,  0.994647185007731 ]
    mass: 118.710000
    reduced_to: 28
  - symbol: Sn # 54
    coordinates: [  0.792653997739156,  0.735675091544787,  0.994647185007731 ]
    mass: 118.710000
    reduced_to: 28
  - symbol: Sn # 55
    coordinates: [  0.292747100194295,  0.069096093376478,  0.161333252986272 ]
    mass: 118.710000
    reduced_to: 55
  - symbol: Sn # 56
    coordinates: [  0.626080433527629,  0.069096093376478,  0.161333252986272 ]
    mass: 118.710000
    reduced_to: 55
  - symbol: Sn # 57
    coordinates: [  0.959413766860962,  0.069096093376478,  0.161333252986272 ]
    mass: 118.710000
    reduced_to: 55
  - symbol: Sn # 58
    coordinates: [  0.292747100194295,  0.402429426709811,  0.161333252986272 ]
    mass: 118.710000
    reduced_to: 55
  - symbol: Sn # 59
    coordinates: [  0.626080433527629,  0.402429426709811,  0.161333252986272 ]
    mass: 118.710000
    reduced_to: 55
  - symbol: Sn # 60
    coordinates: [  0.959413766860962,  0.402429426709811,  0.161333252986272 ]
    mass: 118.710000
    reduced_to: 55
  - symbol: Sn # 61
    coordinates: [  0.292747100194295,  0.735762760043144,  0.161333252986272 ]
    mass: 118.710000
    reduced_to: 55
  - symbol: Sn # 62
    coordinates: [  0.626080433527629,  0.735762760043144,  0.161333252986272 ]
    mass: 118.710000
    reduced_to: 55
  - symbol: Sn # 63
    coordinates: [  0.959413766860962,  0.735762760043144,  0.161333252986272 ]
    mass: 118.710000
    reduced_to: 55
  - symbol: Sn # 64
    coordinates: [  0.292747100194295,  0.069096093376478,  0.494666586319605 ]
    mass: 118.710000
    reduced_to: 55
  - symbol: Sn # 65
    coordinates: [  0.626080433527629,  0.069096093376478,  0.494666586319605 ]
    mass: 118.710000
    reduced_to: 55
  - symbol: Sn # 66
    coordinates: [  0.959413766860962,  0.069096093376478,  0.494666586319605 ]
    mass: 118.710000
    reduced_to: 55
  - symbol: Sn # 67
    coordinates: [  0.292747100194295,  0.402429426709811,  0.494666586319605 ]
    mass: 118.710000
    reduced_to: 55
  - symbol: Sn # 68
    coordinates: [  0.626080433527629,  0.402429426709811,  0.494666586319605 ]
    mass: 118.710000
    reduced_to: 55
  - symbol: Sn # 69
    coordinates: [  0.959413766860962,  0.402429426709811,  0.494666586319605 ]
    mass: 118.710000
    reduced_to: 55
  - symbol: Sn # 70
    coordinates: [  0.292747100194295,  0.735762760043144,  0.494666586319605 ]
    mass: 118.710000
    reduced_to: 55
  - symbol: Sn # 71
    coordinates: [  0.626080433527629,  0.735762760043144,  0.494666586319605 ]
    mass: 118.710000
    reduced_to: 55
  - symbol: Sn # 72
    coordinates: [  0.959413766860962,  0.735762760043144,  0.494666586319605 ]
    mass: 118.710000
    reduced_to: 55
  - symbol: Sn # 73
    coordinates: [  0.292747100194295,  0.069096093376478,  0.827999919652939 ]
    mass: 118.710000
    reduced_to: 55
  - symbol: Sn # 74
    coordinates: [  0.626080433527629,  0.069096093376478,  0.827999919652939 ]
    mass: 118.710000
    reduced_to: 55
  - symbol: Sn # 75
    coordinates: [  0.959413766860962,  0.069096093376478,  0.827999919652939 ]
    mass: 118.710000
    reduced_to: 55
  - symbol: Sn # 76
    coordinates: [  0.292747100194295,  0.402429426709811,  0.827999919652939 ]
    mass: 118.710000
    reduced_to: 55
  - symbol: Sn # 77
    coordinates: [  0.626080433527629,  0.402429426709811,  0.827999919652939 ]
    mass: 118.710000
    reduced_to: 55
  - symbol: Sn # 78
    coordinates: [  0.959413766860962,  0.402429426709811,  0.827999919652939 ]
    mass: 118.710000
    reduced_to: 55
  - symbol: Sn # 79
    coordinates: [  0.292747100194295,  0.735762760043144,  0.827999919652939 ]
    mass: 118.710000
    reduced_to: 55
  - symbol: Sn # 80
    coordinates: [  0.626080433527629,  0.735762760043144,  0.827999919652939 ]
    mass: 118.710000
    reduced_to: 55
  - symbol: Sn # 81
    coordinates: [  0.959413766860962,  0.735762760043144,  0.827999919652939 ]
    mass: 118.710000
    reduced_to: 55
  - symbol: Sn # 82
    coordinates: [  0.292589445908864,  0.235711236794790,  0.328002115090688 ]
    mass: 118.710000
    reduced_to: 82
  - symbol: Sn # 83
    coordinates: [  0.625922779242198,  0.235711236794790,  0.328002115090688 ]
    mass: 118.710000
    reduced_to: 82
  - symbol: Sn # 84
    coordinates: [  0.959256112575531,  0.235711236794790,  0.328002115090688 ]
    mass: 118.710000
    reduced_to: 82
  - symbol: Sn # 85
    coordinates: [  0.292589445908864,  0.569044570128123,  0.328002115090688 ]
    mass: 118.710000
    reduced_to: 82
  - symbol: Sn # 86
    coordinates: [  0.625922779242198,  0.569044570128123,  0.328002115090688 ]
    mass: 118.710000
    reduced_to: 82
  - symbol: Sn # 87
    coordinates: [  0.959256112575531,  0.569044570128123,  0.328002115090688 ]
    mass: 118.710000
    reduced_to: 82
  - symbol: Sn # 88
    coordinates: [  0.292589445908864,  0.902377903461456,  0.328002115090688 ]
    mass: 118.710000
    reduced_to: 82
  - symbol: Sn # 89
    coordinates: [  0.625922779242198,  0.902377903461456,  0.328002115090688 ]
    mass: 118.710000
    reduced_to: 82
  - symbol: Sn # 90
    coordinates: [  0.959256112575531,  0.902377903461456,  0.328002115090688 ]
    mass: 118.710000
    reduced_to: 82
  - symbol: Sn # 91
    coordinates: [  0.292589445908864,  0.235711236794790,  0.661335448424021 ]
    mass: 118.710000
    reduced_to: 82
  - symbol: Sn # 92
    coordinates: [  0.625922779242198,  0.235711236794790,  0.661335448424021 ]
    mass: 118.710000
    reduced_to: 82
  - symbol: Sn # 93
    coordinates: [  0.959256112575531,  0.235711236794790,  0.661335448424021 ]
    mass: 118.710000
    reduced_to: 82
  - symbol: Sn # 94
    coordinates: [  0.292589445908864,  0.569044570128123,  0.661335448424021 ]
    mass: 118.710000
    reduced_to: 82
  - symbol: Sn # 95
    coordinates: [  0.625922779242198,  0.569044570128123,  0.661335448424021 ]
    mass: 118.710000
    reduced_to: 82
  - symbol: Sn # 96
    coordinates: [  0.959256112575531,  0.569044570128123,  0.661335448424021 ]
    mass: 118.710000
    reduced_to: 82
  - symbol: Sn # 97
    coordinates: [  0.292589445908864,  0.902377903461456,  0.661335448424021 ]
    mass: 118.710000
    reduced_to: 82
  - symbol: Sn # 98
    coordinates: [  0.625922779242198,  0.902377903461456,  0.661335448424021 ]
    mass: 118.710000
    reduced_to: 82
  - symbol: Sn # 99
    coordinates: [  0.959256112575531,  0.902377903461456,  0.661335448424021 ]
    mass: 118.710000
    reduced_to: 82
  - symbol: Sn # 100
    coordinates: [  0.292589445908864,  0.235711236794790,  0.994668781757355 ]
    mass: 118.710000
    reduced_to: 82
  - symbol: Sn # 101
    coordinates: [  0.625922779242198,  0.235711236794790,  0.994668781757355 ]
    mass: 118.710000
    reduced_to: 82
  - symbol: Sn # 102
    coordinates: [  0.959256112575531,  0.235711236794790,  0.994668781757355 ]
    mass: 118.710000
    reduced_to: 82
  - symbol: Sn # 103
    coordinates: [  0.292589445908864,  0.569044570128123,  0.994668781757355 ]
    mass: 118.710000
    reduced_to: 82
  - symbol: Sn # 104
    coordinates: [  0.625922779242198,  0.569044570128123,  0.994668781757355 ]
    mass: 118.710000
    reduced_to: 82
  - symbol: Sn # 105
    coordinates: [  0.959256112575531,  0.569044570128123,  0.994668781757355 ]
    mass: 118.710000
    reduced_to: 82
  - symbol: Sn # 106
    coordinates: [  0.292589445908864,  0.902377903461456,  0.994668781757355 ]
    mass: 118.710000
    reduced_to: 82
  - symbol: Sn # 107
    coordinates: [  0.625922779242198,  0.902377903461456,  0.994668781757355 ]
    mass: 118.710000
    reduced_to: 82
  - symbol: Sn # 108
    coordinates: [  0.959256112575531,  0.902377903461456,  0.994668781757355 ]
    mass: 118.710000
    reduced_to: 82

displacements:
- atom:    1
  displacement:
    [   0.0100000000000000,  0.0000000000000000,  0.0000000000000000 ]
  forces:
  - [  -0.0101689631119370, -0.0001325191406067, -0.0005874107591808 ]
  - [   0.0004114378243685, -0.0001272969529964, -0.0005803615786135 ]
  - [   0.0004031909629703, -0.0001285538892262, -0.0005799217033200 ]
  - [  -0.0001438458129996, -0.0001304761826759, -0.0005813809111714 ]
  - [  -0.0001420406624675, -0.0003760526597034, -0.0005814660107717 ]
  - [  -0.0001370189711452,  0.0001125204289565, -0.0005807603592984 ]
  - [  -0.0001437454484403, -0.0001275859685848, -0.0005811424925923 ]
  - [  -0.0001417547464371,  0.0001183920248877, -0.0005812514573336 ]
  - [  -0.0001378562301397, -0.0003717140643857, -0.0005805380642414 ]
  - [  -0.0001456128666177, -0.0001275706308661, -0.0005779042840004 ]
  - [  -0.0001455685123801, -0.0001279931166209, -0.0008297534659505 ]
  - [  -0.0001392662525177, -0.0001278959680349, -0.0003355499356985 ]
  - [   0.0001163189881481, -0.0001284755417146, -0.0005791503936052 ]
  - [   0.0001335944980383, -0.0001112088502850, -0.0005622236058116 ]
  - [   0.0001330189406872, -0.0001456826284993, -0.0005967486649752 ]
  - [   0.0001165146677522, -0.0001304284523940, -0.0005794679746032 ]
  - [   0.0001324275508523, -0.0001465190725867, -0.0005624853074551 ]
  - [   0.0001336224377155, -0.0001118608415709, -0.0005970457568765 ]
  - [  -0.0001459181803511, -0.0001274745445698, -0.0005824193358421 ]
  - [  -0.0001447135582566, -0.0001282274315599, -0.0003323117271066 ]
  - [  -0.0001399163156748, -0.0001270094508072, -0.0008257571607828 ]
  - [   0.0001154969286290, -0.0001281918521272, -0.0005804514512420 ]
  - [   0.0001316275447607, -0.0001098699431168, -0.0005975263193250 ]
  - [   0.0001342054456472, -0.0001448561670259, -0.0005625514313579 ]
  - [   0.0001152632758021, -0.0001288227067562, -0.0005808211863041 ]
  - [   0.0001315819099545, -0.0001451380085200, -0.0005979035049677 ]
  - [   0.0001338412985206, -0.0001110202065320, -0.0005628010258079 ]
  - [   0.0000869382929523,  0.0007373033440672,  0.0005914040375501 ]
  - [   0.0003682021051645,  0.0007200639229268,  0.0006051692180336 ]
  - [   0.0003677662461996,  0.0007405841024593,  0.0005859007360414 ]
  - [   0.0000878450518940,  0.0007224017754197,  0.0005893661873415 ]
  - [   0.0003681611269712,  0.0007365792989731,  0.0006043756147847 ]
  - [   0.0003676228225231,  0.0007186327129602,  0.0005850794841535 ]
  - [   0.0003417625557631,  0.0007308749482036,  0.0005964245647192 ]
  - [   0.0003421213477850,  0.0007302500307560,  0.0005931087071076 ]
  - [   0.0003430508077145,  0.0007306504994631,  0.0006003053276800 ]
  - [   0.0003414211096242,  0.0007290694047697,  0.0005949370097369 ]
  - [   0.0003419704735279,  0.0007319942815229,  0.0005952056962997 ]
  - [   0.0003424324095249,  0.0007263557054102,  0.0005956952227280 ]
  - [   0.0003386648604646,  0.0007306942716241,  0.0005962209543213 ]
  - [   0.0003423579037189,  0.0007239449769258,  0.0005954685620964 ]
  - [   0.0003413427621126,  0.0007336437702179,  0.0005959012778476 ]
  - [   0.0003609078703448,  0.0007303655147552,  0.0005946763558313 ]
  - [   0.0003294683992863,  0.0007326398044825,  0.0005958373658359 ]
  - [   0.0003324430435896,  0.0007300432771444,  0.0005949002224952 ]
  - [   0.0000883387401700,  0.0007346738129854,  0.0006013181409799 ]
  - [   0.0003697499632835,  0.0007197540253401,  0.0005863091209903 ]
  - [   0.0003674086183310,  0.0007409229874611,  0.0006065890192986 ]
  - [   0.0000865617039381,  0.0007283948361874,  0.0006026471382938 ]
  - [   0.0003694742918015,  0.0007386971265078,  0.0005866574938409 ]
  - [   0.0003659874200821,  0.0007214304059744,  0.0006076534045860 ]
  - [   0.0003408156335354,  0.0007284395396709,  0.0005956249078736 ]
  - [   0.0003432240337133,  0.0007278230041265,  0.0005985319730826 ]
  - [   0.0003430824726820,  0.0007280912250280,  0.0005914922221564 ]
  - [   0.0001451790012652, -0.0026447651907802, -0.0002365305699641 ]
  - [  -0.0015909366775304, -0.0007700361311436, -0.0002370787842665 ]
  - [   0.0001250009663636,  0.0010713897645473, -0.0002354215830564 ]
  - [   0.0001398075110046,  0.0011005466803908, -0.0002361058141105 ]
  - [  -0.0015902440063655, -0.0007715392857790, -0.0002368044515606 ]
  - [   0.0001177543599624, -0.0026039145886898, -0.0002358853816986 ]
  - [  -0.0015847790054977, -0.0007712766528130, -0.0002361319202464 ]
  - [  -0.0016005162615329, -0.0007716761901975, -0.0002362892410019 ]
  - [  -0.0015830878401175, -0.0007716063410044, -0.0002364572137594 ]
  - [  -0.0016121070366353, -0.0007817787118256, -0.0002531055361032 ]
  - [  -0.0015556747093797, -0.0007702932925895, -0.0002366267144680 ]
  - [  -0.0016104583628476, -0.0007580080418848, -0.0002200100570917 ]
  - [  -0.0016126470873132, -0.0007605403661728, -0.0002532657235861 ]
  - [  -0.0015550726093352, -0.0007722601294518, -0.0002362690865993 ]
  - [  -0.0016109421849251, -0.0007848497480154, -0.0002206061035395 ]
  - [  -0.0015878819394857, -0.0007709097117186, -0.0002031661570072 ]
  - [  -0.0015924811596051, -0.0007727425545454, -0.0002362970262766 ]
  - [  -0.0015873748343438, -0.0007716324180365, -0.0002687107771635 ]
  - [  -0.0016106234397739, -0.0007823907653801, -0.0002202410250902 ]
  - [  -0.0015555350109935, -0.0007712743245065, -0.0002357792109251 ]
  - [  -0.0016106073744595, -0.0007593240588903, -0.0002532936632633 ]
  - [  -0.0016113549936563, -0.0007594712078571, -0.0002202372997999 ]
  - [  -0.0015542630571872, -0.0007726401090622, -0.0002358183264732 ]
  - [  -0.0016111870063469, -0.0007842741906643, -0.0002522803843021 ]
  - [  -0.0015859551494941, -0.0007723327726126, -0.0002693515270948 ]
  - [  -0.0015922894235700, -0.0007722117006779, -0.0002355445176363 ]
  - [  -0.0015872066142038, -0.0007711257785559, -0.0002035740762949 ]
  - [   0.0028773122467101,  0.0001702598819975,  0.0021199798211455 ]
  - [   0.0011209957301617,  0.0001719216670608,  0.0002212114632130 ]
  - [   0.0028333272784948,  0.0001714757236186, -0.0016154274344444 ]
  - [   0.0011000351514667,  0.0001519946963526,  0.0002323985099792 ]
  - [   0.0011555531527847,  0.0001696748367976,  0.0002208091318607 ]
  - [   0.0010996290948242,  0.0001861339987954,  0.0002085771411657 ]
  - [   0.0010993360774592,  0.0001852708664956,  0.0002318881452084 ]
  - [   0.0011564827291295,  0.0001692920632195,  0.0002208827063441 ]
  - [   0.0011009897571057,  0.0001517495838925,  0.0002081841230392 ]
  - [   0.0011267204536125,  0.0001711084332783,  0.0002208184450865 ]
  - [   0.0011107568861917,  0.0001711436052574,  0.0002199187874794 ]
  - [   0.0011291974224150,  0.0001687555923127,  0.0002190489321947 ]
  - [   0.0011270734248683,  0.0002013733028434,  0.0002195313572884 ]
  - [   0.0011180741712451,  0.0001711678341962,  0.0002198508009315 ]
  - [   0.0011246635112911,  0.0001372472906951,  0.0002197977155447 ]
  - [   0.0011242637410760,  0.0001368559314869,  0.0002213148400187 ]
  - [   0.0011170052457601,  0.0001698751584627,  0.0002199457958341 ]
  - [   0.0011244941269979,  0.0002028319577221,  0.0002207234501839 ]
  - [   0.0028697624802589,  0.0001707784831524, -0.0016673421487212 ]
  - [   0.0011185994371772,  0.0001705419272184,  0.0002218009904027 ]
  - [   0.0028377515263855,  0.0001690834760666,  0.0020579854026437 ]
  - [   0.0011000370141119,  0.0001527499407530,  0.0002105636522174 ]
  - [   0.0011525050504133,  0.0001706816256046,  0.0002219500020146 ]
  - [   0.0011015413329005,  0.0001865196973085,  0.0002326378598809 ]
  - [   0.0010992372408509,  0.0001863846555352,  0.0002103913575411 ]
  - [   0.0011533945798874,  0.0001703994348645,  0.0002215923741460 ]
  - [   0.0011017844080925,  0.0001528663560748,  0.0002321945503354 ]
- atom:    1
  displacement:
    [  -0.0100000000000000,  0.0000000000000000,  0.0000000000000000 ]
  forces:
  - [   0.0104204136878252, -0.0001246177125722, -0.0005754735320807 ]
  - [  -0.0001508286222816, -0.0001294825924560, -0.0005807212437503 ]
  - [  -0.0001591909676790, -0.0001266689941986, -0.0005800575600006 ]
  - [   0.0003947599034291, -0.0001263724698219, -0.0005813315510750 ]
  - [   0.0003902995958924,  0.0001140631939052, -0.0005815572221763 ]
  - [   0.0003940695896745, -0.0003748310555238, -0.0005807623965666 ]
  - [   0.0003944607451558, -0.0001316296838922, -0.0005809850990772 ]
  - [   0.0003885459154844, -0.0003702739486471, -0.0005812328308821 ]
  - [   0.0003945166245103,  0.0001178674719995, -0.0005806069821119 ]
  - [   0.0003970086399931, -0.0001276086841244, -0.0005817823112011 ]
  - [   0.0003926614299417, -0.0001282770390389, -0.0003350907936692 ]
  - [   0.0003966726362705, -0.0001279320276808, -0.0008283630013466 ]
  - [   0.0001348074874841, -0.0001285517646465, -0.0005794456228614 ]
  - [   0.0001186728477478, -0.0001458734477637, -0.0005968399345875 ]
  - [   0.0001178812235594, -0.0001109328586608, -0.0005618873983622 ]
  - [   0.0001351970131509, -0.0001305604673689, -0.0005793729797006 ]
  - [   0.0001174053177238, -0.0001118087893701, -0.0005971770733595 ]
  - [   0.0001184446737170, -0.0001465135865146, -0.0005622366443276 ]
  - [   0.0003968719975092, -0.0001271849614568, -0.0005786130204797 ]
  - [   0.0003911573439837, -0.0001281395088881, -0.0008242977783084 ]
  - [   0.0003983806818724, -0.0001271322980756, -0.0003300327807665 ]
  - [   0.0001340928138234, -0.0001280315045733, -0.0005804309621453 ]
  - [   0.0001165866851807, -0.0001447157701477, -0.0005628215149045 ]
  - [   0.0001188982278109, -0.0001102746391553, -0.0005973335355520 ]
  - [   0.0001337300636806, -0.0001291471417062, -0.0005807979032397 ]
  - [   0.0001167338341475, -0.0001103635513573, -0.0005631744861603 ]
  - [   0.0001187324523926, -0.0001456240133848, -0.0005976920947433 ]
  - [   0.0005964055890217,  0.0007378435693681,  0.0005923786666244 ]
  - [   0.0003170352429152,  0.0007410127436742,  0.0005863861879334 ]
  - [   0.0003168564289808,  0.0007209728937596,  0.0006061526946723 ]
  - [   0.0005985295865685,  0.0007235398516059,  0.0005921513657086 ]
  - [   0.0003181025385857,  0.0007176641374826,  0.0005855954950675 ]
  - [   0.0003172550350428,  0.0007373169064522,  0.0006052617682144 ]
  - [   0.0003434448735788,  0.0007307799533010,  0.0005965243908577 ]
  - [   0.0003415681421757,  0.0007300637662411,  0.0006000727880746 ]
  - [   0.0003421064466238,  0.0007308535277843,  0.0005929986946285 ]
  - [   0.0003431212680880,  0.0007290833746083,  0.0005946264136583 ]
  - [   0.0003407485783100,  0.0007248568581417,  0.0005954533116892 ]
  - [   0.0003419313579798,  0.0007331967353821,  0.0005954906810075 ]
  - [   0.0003396102110855,  0.0007306123152375,  0.0005960809066892 ]
  - [   0.0003417450934649,  0.0007313359528780,  0.0005954697262496 ]
  - [   0.0003410372883081,  0.0007267743349075,  0.0005960182752460 ]
  - [   0.0003207432746422,  0.0007305089384317,  0.0005946105811745 ]
  - [   0.0003493130207062,  0.0007327888160944,  0.0005959090776742 ]
  - [   0.0003525335341692,  0.0007299818098545,  0.0005947959143668 ]
  - [   0.0005963118746877,  0.0007373169064522,  0.0006020539440215 ]
  - [   0.0003178156912327,  0.0007404498755932,  0.0006058153230697 ]
  - [   0.0003167800605297,  0.0007213838398457,  0.0005870076129213 ]
  - [   0.0005942461430095,  0.0007267985492945,  0.0006023783935234 ]
  - [   0.0003182869404554,  0.0007193367928267,  0.0006064904155210 ]
  - [   0.0003156624734402,  0.0007407627999783,  0.0005876103532501 ]
  - [   0.0003424976021051,  0.0007284376770258,  0.0005956913810223 ]
  - [   0.0003426261246204,  0.0007276739925146,  0.0005913387285545 ]
  - [   0.0003420282155275,  0.0007280372083187,  0.0005992955993861 ]
  - [  -0.0032900217920542,  0.0010563982650638, -0.0002365316322539 ]
  - [  -0.0015885990578681, -0.0007699364796281, -0.0002368551504333 ]
  - [  -0.0033343755640090, -0.0026591047644615, -0.0002380618825555 ]
  - [  -0.0032906313426793, -0.0025960085913539, -0.0002372239541728 ]
  - [  -0.0015881952131167, -0.0007716910913587, -0.0002363610983593 ]
  - [  -0.0033279652707279,  0.0011084266006947, -0.0002370830625296 ]
  - [  -0.0015964356716722, -0.0007716398686171, -0.0002364687388763 ]
  - [  -0.0015772467013448, -0.0007717935368419, -0.0002364106330788 ]