# Thermal properties / unit cell (natom)

unit:
  temperature:   K
  free_energy:   kJ/mol
  entropy:       J/K/mol
  heat_capacity: J/K/mol

natom: 9    
cutoff_frequency: 0.00000
num_modes: 176904
num_integrated_modes: 174024

zero_point_energy:      29.2401953

thermal_properties:
- temperature:         0.0000000
  free_energy:        29.2401953
  entropy:             0.0000000
  heat_capacity:       0.0000000
  energy:             29.2401953

- temperature:        10.0000000
  free_energy:        29.2339923
  entropy:             1.9557396
  heat_capacity:       4.3709048
  energy:             29.2535497

- temperature:        20.0000000
  free_energy:        29.1817785
  entropy:             9.5122232
  heat_capacity:      20.7847848
  energy:             29.3720230

- temperature:        30.0000000
  free_energy:        29.0287193
  entropy:            21.5604328
  heat_capacity:      39.5811095
  energy:             29.6755323

- temperature:        40.0000000
  free_energy:        28.7453961
  entropy:            35.2248207
  heat_capacity:      55.7595340
  energy:             30.1543890

- temperature:        50.0000000
  free_energy:        28.3232095
  entropy:            49.2210587
  heat_capacity:      69.9932850
  energy:             30.7842624

- temperature:        60.0000000
  free_energy:        27.7611713
  entropy:            63.1662262
  heat_capacity:      83.2688176
  energy:             31.5511449

- temperature:        70.0000000
  free_energy:        27.0603940
  entropy:            76.9599080
  heat_capacity:      95.9163247
  energy:             32.4475876

- temperature:        80.0000000
  free_energy:        26.2226283
  entropy:            90.5569031
  heat_capacity:     107.8741647
  energy:             33.4671806

- temperature:        90.0000000
  free_energy:        25.2500582
  entropy:           103.9131710
  heat_capacity:     118.9856366
  energy:             34.6022436

- temperature:       100.0000000
  free_energy:        24.1453183
  entropy:           116.9836340
  heat_capacity:     129.1362140
  energy:             35.8436817

- temperature:       110.0000000
  free_energy:        22.9114715
  entropy:           129.7286384
  heat_capacity:     138.2850323
  energy:             37.1816218

- temperature:       120.0000000
  free_energy:        21.5519317
  entropy:           142.1181396
  heat_capacity:     146.4530102
  energy:             38.6061085

- temperature:       130.0000000
  free_energy:        20.0703596
  entropy:           154.1327176
  heat_capacity:     153.7009229
  energy:             40.1076129

- temperature:       140.0000000
  free_energy:        18.4705604
  entropy:           165.7626450
  heat_capacity:     160.1101876
  energy:             41.6773307

- temperature:       150.0000000
  free_energy:        16.7563954
  entropy:           177.0061407
  heat_capacity:     165.7693806
  energy:             43.3073165

- temperature:       160.0000000
  free_energy:        14.9317119
  entropy:           187.8674892
  heat_capacity:     170.7659318
  energy:             44.9905102

- temperature:       170.0000000
  free_energy:        13.0002910
  entropy:           198.3553457
  heat_capacity:     175.1815804
  energy:             46.7206997

- temperature:       180.0000000
  free_energy:        10.9658114
  entropy:           208.4813416
  heat_capacity:     179.0902785
  energy:             48.4924529

- temperature:       190.0000000
  free_energy:         8.8318254
  entropy:           218.2589973
  heat_capacity:     182.5575693
  energy:             50.3010349

- temperature:       200.0000000
  free_energy:         6.6017440
  entropy:           227.7029044
  heat_capacity:     185.6407885
  energy:             52.1423249

- temperature:       210.0000000
  free_energy:         4.2788296
  entropy:           236.8281305
  heat_capacity:     188.3896838
  energy:             54.0127370

- temperature:       220.0000000
  free_energy:         1.8661932
  entropy:           245.6497943
  heat_capacity:     190.8472085
  energy:             55.9091480

- temperature:       230.0000000
  free_energy:        -0.6332041
  entropy:           254.1827733
  heat_capacity:     193.0503522
  energy:             57.8288338

- temperature:       240.0000000
  free_energy:        -3.2165482
  entropy:           262.4415075
  heat_capacity:     195.0309362
  energy:             59.7694136

- temperature:       250.0000000
  free_energy:        -5.8811664
  entropy:           270.4398749
  heat_capacity:     196.8163375
  energy:             61.7288023

- temperature:       260.0000000
  free_energy:        -8.6245220
  entropy:           278.1911181
  heat_capacity:     198.4301310
  energy:             63.7051687

- temperature:       270.0000000
  free_energy:       -11.4442070
  entropy:           285.7078074
  heat_capacity:     199.8926470
  energy:             65.6969010

- temperature:       280.0000000
  free_energy:       -14.3379360
  entropy:           293.0018293
  heat_capacity:     201.2214504
  energy:             67.7025762

- temperature:       290.0000000
  free_energy:       -17.3035388
  entropy:           300.0843931
  heat_capacity:     202.4317494
  energy:             69.7209352

- temperature:       300.0000000
  free_energy:       -20.3389542
  entropy:           306.9660487
  heat_capacity:     203.5367423
  energy:             71.7508604

- temperature:       310.0000000
  free_energy:       -23.4422232
  entropy:           313.6567119
  heat_capacity:     204.5479116
  energy:             73.7913575

- temperature:       320.0000000
  free_energy:       -26.6114829
  entropy:           320.1656947
  heat_capacity:     205.4752719
  energy:             75.8415394

- temperature:       330.0000000
  free_energy:       -29.8449607
  entropy:           326.5017380
  heat_capacity:     206.3275802
  energy:             77.9006128

- temperature:       340.0000000
  free_energy:       -33.1409686
  entropy:           332.6730445
  heat_capacity:     207.1125137
  energy:             79.9678665

- temperature:       350.0000000
  free_energy:       -36.4978982
  entropy:           338.6873123
  heat_capacity:     207.8368196
  energy:             82.0426611

- temperature:       360.0000000
  free_energy:       -39.9142155
  entropy:           344.5517673
  heat_capacity:     208.5064435
  energy:             84.1244207

- temperature:       370.0000000
  free_energy:       -43.3884568
  entropy:           350.2731949
  heat_capacity:     209.1266371
  energy:             86.2126253

- temperature:       380.0000000
  free_energy:       -46.9192240
  entropy:           355.8579690
  heat_capacity:     209.7020508
  energy:             88.3068042

- temperature:       390.0000000
  free_energy:       -50.5051807
  entropy:           361.3120809
  heat_capacity:     210.2368124
  energy:             90.4065308

- temperature:       400.0000000
  free_energy:       -54.1450489
  entropy:           366.6411653
  heat_capacity:     210.7345943
  energy:             92.5114173

- temperature:       410.0000000
  free_energy:       -57.8376050
  entropy:           371.8505253
  heat_capacity:     211.1986711
  energy:             94.6211104

- temperature:       420.0000000
  free_energy:       -61.5816770
  entropy:           376.9451550
  heat_capacity:     211.6319695
  energy:             96.7352881

- temperature:       430.0000000
  free_energy:       -65.3761413
  entropy:           381.9297612
  heat_capacity:     212.0371104
  energy:             98.8536560

- temperature:       440.0000000
  free_energy:       -69.2199203
  entropy:           386.8087832
  heat_capacity:     212.4164461
  energy:            100.9759443

- temperature:       450.0000000
  free_energy:       -73.1119790
  entropy:           391.5864111
  heat_capacity:     212.7720919
  energy:            103.1019060

- temperature:       460.0000000
  free_energy:       -77.0513237
  entropy:           396.2666029
  heat_capacity:     213.1059541
  energy:            105.2313136

- temperature:       470.0000000
  free_energy:       -81.0369988
  entropy:           400.8531000
  heat_capacity:     213.4197533
  energy:            107.3639582

- temperature:       480.0000000
  free_energy:       -85.0680852
  entropy:           405.3494421
  heat_capacity:     213.7150461
  energy:            109.4996470

- temperature:       490.0000000
  free_energy:       -89.1436983
  entropy:           409.7589805
  heat_capacity:     213.9932426
  energy:            111.6382021

- temperature:       500.0000000
  free_energy:       -93.2629861
  entropy:           414.0848905
  heat_capacity:     214.2556229
  energy:            113.7794591

- temperature:       510.0000000
  free_energy:       -97.4251274
  entropy:           418.3301827
  heat_capacity:     214.5033507
  energy:            115.9232658

- temperature:       520.0000000
  free_energy:      -101.6293306
  entropy:           422.4977143
  heat_capacity:     214.7374859
  energy:            118.0694808

- temperature:       530.0000000
  free_energy:      -105.8748316
  entropy:           426.5901980
  heat_capacity:     214.9589952
  energy:            120.2179734

- temperature:       540.0000000
  free_energy:      -110.1608930
  entropy:           430.6102122
  heat_capacity:     215.1687618
  energy:            122.3686216

- temperature:       550.0000000
  free_energy:      -114.4868024
  entropy:           434.5602084
  heat_capacity:     215.3675937
  energy:            124.5213122

- temperature:       560.0000000
  free_energy:      -118.8518715
  entropy:           438.4425197
  heat_capacity:     215.5562311
  energy:            126.6759395

- temperature:       570.0000000
  free_energy:      -123.2554346
  entropy:           442.2593679
  heat_capacity:     215.7353535
  energy:            128.8324051

- temperature:       580.0000000
  free_energy:      -127.6968478
  entropy:           446.0128702
  heat_capacity:     215.9055849
  energy:            130.9906170

- temperature:       590.0000000
  free_energy:      -132.1754876
  entropy:           449.7050453
  heat_capacity:     216.0674994
  energy:            133.1504891

- temperature:       600.0000000
  free_energy:      -136.6907507
  entropy:           453.3378194
  heat_capacity:     216.2216261
  energy:            135.3119410

- temperature:       610.0000000
  free_energy:      -141.2420521
  entropy:           456.9130318
  heat_capacity:     216.3684527
  energy:            137.4748973

- temperature:       620.0000000
  free_energy:      -145.8288253
  entropy:           460.4324395
  heat_capacity:     216.5084300
  energy:            139.6392872

- temperature:       630.0000000
  free_energy:      -150.4505205
  entropy:           463.8977222
  heat_capacity:     216.6419743
  energy:            141.8050444

- temperature:       640.0000000
  free_energy:      -155.1066047
  entropy:           467.3104863
  heat_capacity:     216.7694714
  energy:            143.9721065

- temperature:       650.0000000
  free_energy:      -159.7965603
  entropy:           470.6722696
  heat_capacity:     216.8912785
  energy:            146.1404149

- temperature:       660.0000000
  free_energy:      -164.5198851
  entropy:           473.9845444
  heat_capacity:     217.0077271
  energy:            148.3099143

- temperature:       670.0000000
  free_energy:      -169.2760909
  entropy:           477.2487216
  heat_capacity:     217.1191250
  energy:            150.4805526

- temperature:       680.0000000
  free_energy:      -174.0647037
  entropy:           480.4661538
  heat_capacity:     217.2257585
  energy:            152.6522809

- temperature:       690.0000000
  free_energy:      -178.8852625
  entropy:           483.6381381
  heat_capacity:     217.3278939
  energy:            154.8250528

- temperature:       700.0000000
  free_energy:      -183.7373191
  entropy:           486.7659196
  heat_capacity:     217.4257792
  energy:            156.9988246

- temperature:       710.0000000
  free_energy:      -188.6204375
  entropy:           489.8506937
  heat_capacity:     217.5196458
  energy:            159.1735550

- temperature:       720.0000000
  free_energy:      -193.5341934
  entropy:           492.8936087
  heat_capacity:     217.6097095
  energy:            161.3492048

- temperature:       730.0000000
  free_energy:      -198.4781738
  entropy:           495.8957685
  heat_capacity:     217.6961719
  energy:            163.5257372

- temperature:       740.0000000
  free_energy:      -203.4519765
  entropy:           498.8582343
  heat_capacity:     217.7792216
  energy:            165.7031169

- temperature:       750.0000000
  free_energy:      -208.4552096
  entropy:           501.7820272
  heat_capacity:     217.8590350
  energy:            167.8813108

- temperature:       760.0000000
  free_energy:      -213.4874914
  entropy:           504.6681300
  heat_capacity:     217.9357772
  energy:            170.0602874

- temperature:       770.0000000
  free_energy:      -218.5484498
  entropy:           507.5174888
  heat_capacity:     218.0096031
  energy:            172.2400166

- temperature:       780.0000000
  free_energy:      -223.6377218
  entropy:           510.3310153
  heat_capacity:     218.0806580
  energy:            174.4204702

- temperature:       790.0000000
  free_energy:      -228.7549536
  entropy:           513.1095880
  heat_capacity:     218.1490783
  energy:            176.6016210

- temperature:       800.0000000
  free_energy:      -233.8997998
  entropy:           515.8540540
  heat_capacity:     218.2149919
  energy:            178.7834434

- temperature:       810.0000000
  free_energy:      -239.0719237
  entropy:           518.5652303
  heat_capacity:     218.2785195
  energy:            180.9659129

- temperature:       820.0000000
  free_energy:      -244.2709961
  entropy:           521.2439053
  heat_capacity:     218.3397743
  energy:            183.1490062

- temperature:       830.0000000
  free_energy:      -249.4966960
  entropy:           523.8908399
  heat_capacity:     218.3988630
  energy:            185.3327012

- temperature:       840.0000000
  free_energy:      -254.7487096
  entropy:           526.5067692
  heat_capacity:     218.4558862
  energy:            187.5169766

- temperature:       850.0000000
  free_energy:      -260.0267304
  entropy:           529.0924032
  heat_capacity:     218.5109387
  energy:            189.7018123

- temperature:       860.0000000
  free_energy:      -265.3304589
  entropy:           531.6484279
  heat_capacity:     218.5641099
  energy:            191.8871891

- temperature:       870.0000000
  free_energy:      -270.6596025
  entropy:           534.1755069
  heat_capacity:     218.6154843
  energy:            194.0730885

- temperature:       880.0000000
  free_energy:      -276.0138747
  entropy:           536.6742816
  heat_capacity:     218.6651416
  energy:            196.2594931

- temperature:       890.0000000
  free_energy:      -281.3929958
  entropy:           539.1453727
  heat_capacity:     218.7131573
  energy:            198.4463859

- temperature:       900.0000000
  free_energy:      -286.7966919
  entropy:           541.5893810
  heat_capacity:     218.7596027
  energy:            200.6337510

- temperature:       910.0000000
  free_energy:      -292.2246951
  entropy:           544.0068879
  heat_capacity:     218.8045452
  energy:            202.8215729

- temperature:       920.0000000
  free_energy:      -297.6767432
  entropy:           546.3984568
  heat_capacity:     218.8480489
  energy:            205.0098371

- temperature:       930.0000000
  free_energy:      -303.1525796
  entropy:           548.7646332
  heat_capacity:     218.8901743
  energy:            207.1985293

- temperature:       940.0000000
  free_energy:      -308.6519530
  entropy:           551.1059459
  heat_capacity:     218.9309788
  energy:            209.3876362

- temperature:       950.0000000
  free_energy:      -314.1746173
  entropy:           553.4229074
  heat_capacity:     218.9705170
  energy:            211.5771447

- temperature:       960.0000000
  free_energy:      -319.7203316
  entropy:           555.7160147
  heat_capacity:     219.0088405
  energy:            213.7670424

- temperature:       970.0000000
  free_energy:      -325.2888597
  entropy:           557.9857498
  heat_capacity:     219.0459985
  energy:            215.9573176

- temperature:       980.0000000
  free_energy:      -330.8799703
  entropy:           560.2325806
  heat_capacity:     219.0820376
  energy:            218.1479587

- temperature:       990.0000000
  free_energy:      -336.4934365
  entropy:           562.4569609
  heat_capacity:     219.1170021
  energy:            220.3389548

- temperature:      1000.0000000
  free_energy:      -342.1290361
  entropy:           564.6593314
  heat_capacity:     219.1509343
  energy:            222.5302953
