# Thermal properties / unit cell (natom)

unit:
  temperature:   K
  free_energy:   kJ/mol
  entropy:       J/K/mol
  heat_capacity: J/K/mol

natom: 16   
cutoff_frequency: 0.00000
num_modes: 170544
num_integrated_modes: 168332

zero_point_energy:      46.7732060

thermal_properties:
- temperature:         0.0000000
  free_energy:        46.7732060
  entropy:             0.0000000
  heat_capacity:       0.0000000
  energy:             46.7732060

- temperature:        10.0000000
  free_energy:        46.7571549
  entropy:             4.7675670
  heat_capacity:       9.9334865
  energy:             46.8048305

- temperature:        20.0000000
  free_energy:        46.6368975
  entropy:            21.4942994
  heat_capacity:      45.7625707
  energy:             47.0667834

- temperature:        30.0000000
  free_energy:        46.2946826
  entropy:            47.9153295
  heat_capacity:      86.2790584
  energy:             47.7321425

- temperature:        40.0000000
  free_energy:        45.6688666
  entropy:            77.4055294
  heat_capacity:     119.0464905
  energy:             48.7650878

- temperature:        50.0000000
  free_energy:        44.7466273
  entropy:           106.9487735
  heat_capacity:     146.0929870
  energy:             50.0940660

- temperature:        60.0000000
  free_energy:        43.5324074
  entropy:           135.7557190
  heat_capacity:     170.3114651
  energy:             51.6777506

- temperature:        70.0000000
  free_energy:        42.0343334
  entropy:           163.7188147
  heat_capacity:     192.8041935
  energy:             53.4946504

- temperature:        80.0000000
  free_energy:        40.2608196
  entropy:           190.8446197
  heat_capacity:     213.6568283
  energy:             55.5283891

- temperature:        90.0000000
  free_energy:        38.2202481
  entropy:           217.1277747
  heat_capacity:     232.7006312
  energy:             57.7617478

- temperature:       100.0000000
  free_energy:        35.9211389
  entropy:           242.5485369
  heat_capacity:     249.8260036
  energy:             60.1759926

- temperature:       110.0000000
  free_energy:        33.3722162
  entropy:           267.0880338
  heat_capacity:     265.0441462
  energy:             62.7518999

- temperature:       120.0000000
  free_energy:        30.5823460
  entropy:           290.7376543
  heat_capacity:     278.4607119
  energy:             65.4708645

- temperature:       130.0000000
  free_energy:        27.5604163
  entropy:           313.5016948
  heat_capacity:     290.2346783
  energy:             68.3156367

- temperature:       140.0000000
  free_energy:        24.3152115
  entropy:           335.3962146
  heat_capacity:     300.5456449
  energy:             71.2706815

- temperature:       150.0000000
  free_energy:        20.8553071
  entropy:           356.4464341
  heat_capacity:     309.5729869
  energy:             74.3222722

- temperature:       160.0000000
  free_energy:        17.1889923
  entropy:           376.6839456
  heat_capacity:     317.4844406
  energy:             77.4584236

- temperature:       170.0000000
  free_energy:        13.3242190
  entropy:           396.1442795
  heat_capacity:     324.4309230
  energy:             80.6687465

- temperature:       180.0000000
  free_energy:         9.2685722
  entropy:           414.8649853
  heat_capacity:     330.5450578
  energy:             83.9442695

- temperature:       190.0000000
  free_energy:         5.0292575
  entropy:           432.8842124
  heat_capacity:     335.9417118
  energy:             87.2772578

- temperature:       200.0000000
  free_energy:         0.6131002
  entropy:           450.2397112
  heat_capacity:     340.7195015
  energy:             90.6610425

- temperature:       210.0000000
  free_energy:        -3.9734468
  entropy:           466.9681616
  heat_capacity:     344.9626677
  energy:             94.0898672

- temperature:       220.0000000
  free_energy:        -8.7242903
  entropy:           483.1047478
  heat_capacity:     348.7429943
  energy:             97.5587542

- temperature:       230.0000000
  free_energy:       -13.6336805
  entropy:           498.6829110
  heat_capacity:     352.1216060
  energy:            101.0633890

- temperature:       240.0000000
  free_energy:       -18.6961926
  entropy:           513.7342262
  heat_capacity:     355.1505775
  energy:            104.6000217

- temperature:       250.0000000
  free_energy:       -23.9067080
  entropy:           528.2883675
  heat_capacity:     357.8743327
  energy:            108.1653839

- temperature:       260.0000000
  free_energy:       -29.2603955
  entropy:           542.3731296
  heat_capacity:     360.3308422
  energy:            111.7566182

- temperature:       270.0000000
  free_energy:       -34.7526928
  entropy:           556.0144875
  heat_capacity:     362.5526362
  energy:            115.3712189

- temperature:       280.0000000
  free_energy:       -40.3792883
  entropy:           569.2366797
  heat_capacity:     364.5676564
  energy:            119.0069821

- temperature:       290.0000000
  free_energy:       -46.1361046
  entropy:           582.0623033
  heat_capacity:     366.3999702
  energy:            122.6619633

- temperature:       300.0000000
  free_energy:       -52.0192828
  entropy:           594.5124161
  heat_capacity:     368.0703668
  energy:            126.3344420

- temperature:       310.0000000
  free_energy:       -58.0251668
  entropy:           606.6066389
  heat_capacity:     369.5968569
  energy:            130.0228912

- temperature:       320.0000000
  free_energy:       -64.1502903
  entropy:           618.3632569
  heat_capacity:     370.9950892
  energy:            133.7259519

- temperature:       330.0000000
  free_energy:       -70.3913635
  entropy:           629.7993172
  heat_capacity:     372.2787005
  energy:            137.4424111

- temperature:       340.0000000
  free_energy:       -76.7452613
  entropy:           640.9307206
  heat_capacity:     373.4596081
  energy:            141.1711837

- temperature:       350.0000000
  free_energy:       -83.2090120
  entropy:           651.7723084
  heat_capacity:     374.5482564
  energy:            144.9112959

- temperature:       360.0000000
  free_energy:       -89.7797877
  entropy:           662.3379437
  heat_capacity:     375.5538246
  energy:            148.6618720

- temperature:       370.0000000
  free_energy:       -96.4548943
  entropy:           672.6405862
  heat_capacity:     376.4844012
  energy:            152.4221225

- temperature:       380.0000000
  free_energy:      -103.2317633
  entropy:           682.6923613
  heat_capacity:     377.3471329
  energy:            156.1913340

- temperature:       390.0000000
  free_energy:      -110.1079433
  entropy:           692.5046243
  heat_capacity:     378.1483504
  energy:            159.9688602

- temperature:       400.0000000
  free_energy:      -117.0810930
  entropy:           702.0880193
  heat_capacity:     378.8936751
  energy:            163.7541148

- temperature:       410.0000000
  free_energy:      -124.1489741
  entropy:           711.4525324
  heat_capacity:     379.5881114
  energy:            167.5465642

- temperature:       420.0000000
  free_energy:      -131.3094453
  entropy:           720.6075419
  heat_capacity:     380.2361241
  energy:            171.3457223

- temperature:       430.0000000
  free_energy:      -138.5604561
  entropy:           729.5618635
  heat_capacity:     380.8417060
  energy:            175.1511453

- temperature:       440.0000000
  free_energy:      -145.9000413
  entropy:           738.3237915
  heat_capacity:     381.4084354
  energy:            178.9624269

- temperature:       450.0000000
  free_energy:      -153.3263167
  entropy:           746.9011375
  heat_capacity:     381.9395263
  energy:            182.7791952

- temperature:       460.0000000
  free_energy:      -160.8374734
  entropy:           755.3012647
  heat_capacity:     382.4378711
  energy:            186.6011083

- temperature:       470.0000000
  free_energy:      -168.4317744
  entropy:           763.5311205
  heat_capacity:     382.9060779
  energy:            190.4278522

- temperature:       480.0000000
  free_energy:      -176.1075501
  entropy:           771.5972656
  heat_capacity:     383.3465034
  energy:            194.2591373

- temperature:       490.0000000
  free_energy:      -183.8631947
  entropy:           779.5059011
  heat_capacity:     383.7612807
  energy:            198.0946968

- temperature:       500.0000000
  free_energy:      -191.6971627
  entropy:           787.2628933
  heat_capacity:     384.1523440
  energy:            201.9342839

- temperature:       510.0000000
  free_energy:      -199.6079657
  entropy:           794.8737964
  heat_capacity:     384.5214506
  energy:            205.7776705

- temperature:       520.0000000
  free_energy:      -207.5941693
  entropy:           802.3438737
  heat_capacity:     384.8701992
  energy:            209.6246451

- temperature:       530.0000000
  free_energy:      -215.6543904
  entropy:           809.6781168
  heat_capacity:     385.2000472
  energy:            213.4750115

- temperature:       540.0000000
  free_energy:      -223.7872946
  entropy:           816.8812632
  heat_capacity:     385.5123249
  energy:            217.3285875

- temperature:       550.0000000
  free_energy:      -231.9915937
  entropy:           823.9578131
  heat_capacity:     385.8082484
  energy:            221.1852035

- temperature:       560.0000000
  free_energy:      -240.2660432
  entropy:           830.9120444
  heat_capacity:     386.0889315
  energy:            225.0447016

- temperature:       570.0000000
  free_energy:      -248.6094404
  entropy:           837.7480266
  heat_capacity:     386.3553953
  energy:            228.9069347

- temperature:       580.0000000
  free_energy:      -257.0206225
  entropy:           844.4696341
  heat_capacity:     386.6085774
  energy:            232.7717653

- temperature:       590.0000000
  free_energy:      -265.4984642
  entropy:           851.0805578
  heat_capacity:     386.8493401
  energy:            236.6390649

- temperature:       600.0000000
  free_energy:      -274.0418765
  entropy:           857.5843163
  heat_capacity:     387.0784772
  energy:            240.5087133

- temperature:       610.0000000
  free_energy:      -282.6498045
  entropy:           863.9842666
  heat_capacity:     387.2967205
  energy:            244.3805981

- temperature:       620.0000000
  free_energy:      -291.3212265
  entropy:           870.2836132
  heat_capacity:     387.5047456
  energy:            248.2546137

- temperature:       630.0000000
  free_energy:      -300.0551517
  entropy:           876.4854170
  heat_capacity:     387.7031766
  energy:            252.1306611

- temperature:       640.0000000
  free_energy:      -308.8506194
  entropy:           882.5926041
  heat_capacity:     387.8925912
  energy:            256.0086472

- temperature:       650.0000000
  free_energy:      -317.7066977
  entropy:           888.6079728
  heat_capacity:     388.0735244
  energy:            259.8884846

- temperature:       660.0000000
  free_energy:      -326.6224818
  entropy:           894.5342012
  heat_capacity:     388.2464725
  energy:            263.7700911

- temperature:       670.0000000
  free_energy:      -335.5970931
  entropy:           900.3738539
  heat_capacity:     388.4118958
  energy:            267.6533890

- temperature:       680.0000000
  free_energy:      -344.6296784
  entropy:           906.1293879
  heat_capacity:     388.5702226
  energy:            271.5383053

- temperature:       690.0000000
  free_energy:      -353.7194084
  entropy:           911.8031587
  heat_capacity:     388.7218509
  energy:            275.4247711

- temperature:       700.0000000
  free_energy:      -362.8654766
  entropy:           917.3974255
  heat_capacity:     388.8671515
  energy:            279.3127213

- temperature:       710.0000000
  free_energy:      -372.0670991
  entropy:           922.9143568
  heat_capacity:     389.0064701
  energy:            283.2020942

- temperature:       720.0000000
  free_energy:      -381.3235129
  entropy:           928.3560343
  heat_capacity:     389.1401291
  energy:            287.0928318

- temperature:       730.0000000
  free_energy:      -390.6339756
  entropy:           933.7244583
  heat_capacity:     389.2684295
  energy:            290.9848789

- temperature:       740.0000000
  free_energy:      -399.9977643
  entropy:           939.0215510
  heat_capacity:     389.3916528
  energy:            294.8781835

- temperature:       750.0000000
  free_energy:      -409.4141750
  entropy:           944.2491613
  heat_capacity:     389.5100622
  energy:            298.7726959

- temperature:       760.0000000
  free_energy:      -418.8825219
  entropy:           949.4090676
  heat_capacity:     389.6239043
  energy:            302.6683695

- temperature:       770.0000000
  free_energy:      -428.4021364
  entropy:           954.5029818
  heat_capacity:     389.7334100
  energy:            306.5651596

- temperature:       780.0000000
  free_energy:      -437.9723670
  entropy:           959.5325525
  heat_capacity:     389.8387959
  energy:            310.4630239

- temperature:       790.0000000
  free_energy:      -447.5925783
  entropy:           964.4993680
  heat_capacity:     389.9402654
  energy:            314.3619224

- temperature:       800.0000000
  free_energy:      -457.2621503
  entropy:           969.4049589
  heat_capacity:     390.0380094
  energy:            318.2618168

- temperature:       810.0000000
  free_energy:      -466.9804783
  entropy:           974.2508014
  heat_capacity:     390.1322075
  energy:            322.1626708

- temperature:       820.0000000
  free_energy:      -476.7469719
  entropy:           979.0383191
  heat_capacity:     390.2230285
  energy:            326.0644497

- temperature:       830.0000000
  free_energy:      -486.5610549
  entropy:           983.7688862
  heat_capacity:     390.3106313
  energy:            329.9671206

- temperature:       840.0000000
  free_energy:      -496.4221643
  entropy:           988.4438290
  heat_capacity:     390.3951658
  energy:            333.8706521

- temperature:       850.0000000
  free_energy:      -506.3297503
  entropy:           993.0644288
  heat_capacity:     390.4767730
  energy:            337.7750142

- temperature:       860.0000000
  free_energy:      -516.2832758
  entropy:           997.6319234
  heat_capacity:     390.5555863
  energy:            341.6801783

- temperature:       870.0000000
  free_energy:      -526.2822157
  entropy:          1002.1475090
  heat_capacity:     390.6317312
  energy:            345.5861170

- temperature:       880.0000000
  free_energy:      -536.3260568
  entropy:          1006.6123423
  heat_capacity:     390.7053266
  energy:            349.4928044

- temperature:       890.0000000
  free_energy:      -546.4142972
  entropy:          1011.0275423
  heat_capacity:     390.7764846
  energy:            353.4002154

- temperature:       900.0000000
  free_energy:      -556.5464458
  entropy:          1015.3941913
  heat_capacity:     390.8453115
  energy:            357.3083263

- temperature:       910.0000000
  free_energy:      -566.7220226
  entropy:          1019.7133372
  heat_capacity:     390.9119075
  energy:            361.2171142

- temperature:       920.0000000
  free_energy:      -576.9405576
  entropy:          1023.9859946
  heat_capacity:     390.9763679
  energy:            365.1265574

- temperature:       930.0000000
  free_energy:      -587.2015908
  entropy:          1028.2131458
  heat_capacity:     391.0387828
  energy:            369.0366348

- temperature:       940.0000000
  free_energy:      -597.5046720
  entropy:          1032.3957431
  heat_capacity:     391.0992375
  energy:            372.9473265

- temperature:       950.0000000
  free_energy:      -607.8493603
  entropy:          1036.5347090
  heat_capacity:     391.1578130
  energy:            376.8586133

- temperature:       960.0000000
  free_energy:      -618.2352238
  entropy:          1040.6309380
  heat_capacity:     391.2145863
  energy:            380.7704767

- temperature:       970.0000000
  free_energy:      -628.6618395
  entropy:          1044.6852976
  heat_capacity:     391.2696304
  energy:            384.6828992

- temperature:       980.0000000
  free_energy:      -639.1287930
  entropy:          1048.6986294
  heat_capacity:     391.3230145
  energy:            388.5958638

- temperature:       990.0000000
  free_energy:      -649.6356780
  entropy:          1052.6717497
  heat_capacity:     391.3748047
  energy:            392.5093542

- temperature:      1000.0000000
  free_energy:      -660.1820966
  entropy:          1056.6054514
  heat_capacity:     391.4250636
  energy:            396.4233548
