# Tetrahedron method
       -0.9776189893        0.0000000000
       -0.9189619223        0.0000000000
       -0.8603048552        0.0000000000
       -0.8016477882        0.0000000000
       -0.7429907211        0.0000000000
       -0.6843336541        0.0000000000
       -0.6256765870        0.0000000000
       -0.5670195200        0.0000000000
       -0.5083624530        0.0000000000
       -0.4497053859        0.0000000000
       -0.3910483189        0.0000000000
       -0.3323912518        0.0000000000
       -0.2737341848        0.0000000000
       -0.2150771177        0.0000000000
       -0.1564200507        0.0000000000
       -0.0977629836        0.0000000000
       -0.0391059166        0.0000000000
        0.0195511505        0.0000443717
        0.0782082175        0.0007099553
        0.1368652846        0.0036210497
        0.1955223516        0.0069879012
        0.2541794187        0.0111242343
        0.3128364857        0.0150759028
        0.3714935528        0.0203608784
        0.4301506198        0.0268785244
        0.4888076869        0.0330425503
        0.5474647539        0.0394919877
        0.6061218210        0.0464836923
        0.6647788880        0.0538749200
        0.7234359551        0.0616712933
        0.7820930221        0.0700678092
        0.8407500891        0.0791029041
        0.8994071562        0.0884025114
        0.9580642232        0.0982535553
        1.0167212903        0.1083563918
        1.0753783573        0.1190808685
        1.1340354244        0.1299165125
        1.1926924914        0.1416834019
        1.2513495585        0.1534061168
        1.3100066255        0.1659567235
        1.3686636926        0.1788673557
        1.4273207596        0.1937913064
        1.4859778267        0.2080343401
        1.5446348937        0.2198723901
        1.6032919608        0.2356830241
        1.6619490278        0.2523372710
        1.7206060949        0.2690209246
        1.7792631619        0.2866219661
        1.8379202290        0.3028817621
        1.8965772960        0.3222193574
        1.9552343631        0.3424851829
        2.0138914301        0.3616774799
        2.0725484972        0.3825926662
        2.1312055642        0.4033434956
        2.1898626312        0.4265279856
        2.2485196983        0.4509569965
        2.3071767653        0.4765043374
        2.3658338324        0.5042289017
        2.4244908994        0.5317168231
        2.4831479665        0.5637830623
        2.5418050335        0.5978407363
        2.6004621006        0.6332527957
        2.6591191676        0.6781210279
        2.7177762347        0.7428797259
        2.7764333017        0.7710603324
        2.8350903688        0.8081194640
        2.8937474358        0.8563789666
        2.9524045029        0.8886661281
        3.0110615699        0.9129074237
        3.0697186370        0.9375451833
        3.1283757040        0.9650619256
        3.1870327711        0.9945376588
        3.2456898381        1.0242683854
        3.3043469052        1.0556709053
        3.3630039722        1.0919149847
        3.4216610393        1.1328358055
        3.4803181063        1.1740499491
        3.5389751733        1.2218981688
        3.5976322404        1.2838329741
        3.6562893074        1.3731317864
        3.7149463745        1.3011988066
        3.7736034415        1.2828099775
        3.8322605086        1.3137159948
        3.8909175756        1.3038850930
        3.9495746427        1.3085053648
        4.0082317097        1.3246692014
        4.0668887768        1.3856144904
        4.1255458438        1.3229137019
        4.1842029109        1.3046326234
        4.2428599779        1.2975776331
        4.3015170450        1.3002674589
        4.3601741120        1.3115368099
        4.4188311791        1.3217839414
        4.4774882461        1.3346951235
        4.5361453132        1.3487302623
        4.5948023802        1.3635680592
        4.6534594473        1.3898268465
        4.7121165143        1.4225654431
        4.7707735814        1.4460163717
        4.8294306484        1.2927328356
        4.8880877154        1.2833392678
        4.9467447825        1.2669122821
        5.0054018495        1.2740489084
        5.0640589166        1.2865648640
        5.1227159836        1.2340354189
        5.1813730507        1.2262085061
        5.2400301177        1.2333754401
        5.2986871848        1.2435806578
        5.3573442518        1.1527473731
        5.4160013189        1.0841841877
        5.4746583859        1.0556364431
        5.5333154530        1.0667055730
        5.5919725200        1.0917607368
        5.6506295871        1.0989729222
        5.7092866541        1.1299259676
        5.7679437212        1.1890644547
        5.8266007882        1.3815310294
        5.8852578553        1.4195041550
        5.9439149223        1.3417947502
        6.0025719894        1.3062649780
        6.0612290564        1.2953781758
        6.1198861235        1.3053097662
        6.1785431905        1.2564448654
        6.2372002576        1.2346594072
        6.2958573246        1.1796683405
        6.3545143916        1.1446524830
        6.4131714587        1.1258426414
        6.4718285257        1.1134150239
        6.5304855928        1.1166158539
        6.5891426598        1.1084320016
        6.6477997269        1.0320729484
        6.7064567939        1.0049369682
        6.7651138610        1.0161994364
        6.8237709280        1.0761155143
        6.8824279951        1.1084887662
        6.9410850621        1.1079403732
        6.9997421292        1.1174254053
        7.0583991962        1.0559909335
        7.1170562633        1.1025564706
        7.1757133303        1.1263943395
        7.2343703974        1.1513151915
        7.2930274644        1.1737950588
        7.3516845315        1.1980489614
        7.4103415985        1.1676770871
        7.4689986656        1.1693152841
        7.5276557326        1.0507895925
        7.5863127997        0.9886905868
        7.6449698667        0.9454265593
        7.7036269337        0.9172407595
        7.7622840008        0.9144757564
        7.8209410678        0.8640136928
        7.8795981349        0.7832154605
        7.9382552019        0.7289166496
        7.9969122690        0.6907680307
        8.0555693360        0.6330207222
        8.1142264031        0.6195485906
        8.1728834701        0.7137381433
        8.2315405372        0.8594376181
        8.2901976042        1.0270168302
        8.3488546713        1.2908260617
        8.4075117383        1.3089760408
        8.4661688054        1.3346500524
        8.5248258724        1.3087462826
        8.5834829395        1.5303840867
        8.6421400065        1.7630592848
        8.7007970736        2.0041440113
        8.7594541406        2.2735497305
        8.8181112077        2.3648648462
        8.8767682747        2.5055200064
        8.9354253418        2.4076877814
        8.9940824088        2.2742568331
        9.0527394758        2.1353095576
        9.1113965429        1.6636783896
        9.1700536099        1.5132169207
        9.2287106770        1.3508559498
        9.2873677440        1.1937641804
        9.3460248111        1.0555427733
        9.4046818781        0.9208126519
        9.4633389452        0.7751195672
        9.5219960122        0.6049949240
        9.5806530793        0.5537734556
        9.6393101463        0.3392743362
        9.6979672134        0.1638030309
        9.7566242804        0.0769428585
        9.8152813475        0.0000000000
        9.8739384145        0.0000000000
        9.9325954816        0.0000000000
        9.9912525486        0.0000000000
       10.0499096157        0.0000000000
       10.1085666827        0.0000000000
       10.1672237498        0.0000000000
       10.2258808168        0.0000000000
       10.2845378839        0.0000000000
       10.3431949509        0.0000000000
       10.4018520179        0.0000000000
       10.4605090850        0.0000000000
       10.5191661520        0.0000000000
       10.5778232191        0.0000000000
       10.6364802861        0.0000000000
       10.6951373532        0.0000000000
       10.7537944202        0.0000000000
