# Thermal properties / unit cell (natom)

unit:
  temperature:   K
  free_energy:   kJ/mol
  entropy:       J/K/mol
  heat_capacity: J/K/mol

natom: 20   
cutoff_frequency: 0.00000
num_modes: 151200
num_integrated_modes: 151199

zero_point_energy:      70.3413223

thermal_properties:
- temperature:         0.0000000
  free_energy:        70.3413223
  entropy:             0.0000000
  heat_capacity:       0.0000000
  energy:             70.3413223

- temperature:        10.0000000
  free_energy:        70.3368425
  entropy:             1.6456977
  heat_capacity:       5.2669094
  energy:             70.3532995

- temperature:        20.0000000
  free_energy:        70.2700722
  entropy:            14.1721451
  heat_capacity:      39.3385807
  energy:             70.5535151

- temperature:        30.0000000
  free_energy:        70.0129107
  entropy:            38.6133644
  heat_capacity:      83.5237052
  energy:             71.1713116

- temperature:        40.0000000
  free_energy:        69.4823551
  entropy:            67.8489752
  heat_capacity:     120.0708387
  energy:             72.1963141

- temperature:        50.0000000
  free_energy:        68.6532842
  entropy:            97.9690885
  heat_capacity:     150.3309222
  energy:             73.5517387

- temperature:        60.0000000
  free_energy:        67.5238778
  entropy:           127.8444006
  heat_capacity:     177.9887713
  energy:             75.1945418

- temperature:        70.0000000
  free_energy:        66.0978382
  entropy:           157.2909675
  heat_capacity:     204.6068253
  energy:             77.1082060

- temperature:        80.0000000
  free_energy:        64.3795073
  entropy:           186.3016554
  heat_capacity:     230.2993123
  energy:             79.2836397

- temperature:        90.0000000
  free_energy:        62.3733415
  entropy:           214.8502271
  heat_capacity:     254.6938927
  energy:             81.7098619

- temperature:       100.0000000
  free_energy:        60.0842415
  entropy:           242.8768027
  heat_capacity:     277.4152446
  energy:             84.3719218

- temperature:       110.0000000
  free_energy:        57.5177862
  entropy:           270.3093974
  heat_capacity:     298.2378481
  energy:             87.2518199

- temperature:       120.0000000
  free_energy:        54.6802551
  entropy:           297.0820698
  heat_capacity:     317.0917026
  energy:             90.3301034

- temperature:       130.0000000
  free_energy:        51.5785159
  entropy:           323.1439872
  heat_capacity:     334.0219844
  energy:             93.5872343

- temperature:       140.0000000
  free_energy:        48.2198574
  entropy:           348.4618375
  heat_capacity:     349.1448830
  energy:             97.0045146

- temperature:       150.0000000
  free_energy:        44.6118175
  entropy:           373.0186466
  heat_capacity:     362.6129451
  energy:            100.5646145

- temperature:       160.0000000
  free_energy:        40.7620335
  entropy:           396.8110970
  heat_capacity:     374.5915706
  energy:            104.2518090

- temperature:       170.0000000
  free_energy:        36.6781199
  entropy:           419.8465202
  heat_capacity:     385.2445773
  energy:            108.0520283

- temperature:       180.0000000
  free_energy:        32.3675765
  entropy:           442.1401161
  heat_capacity:     394.7261618
  energy:            111.9527973

- temperature:       190.0000000
  free_energy:        27.8377216
  entropy:           463.7126097
  heat_capacity:     403.1770219
  energy:            115.9431175

- temperature:       200.0000000
  free_energy:        23.0956469
  entropy:           484.5883817
  heat_capacity:     410.7230270
  energy:            120.0133232

- temperature:       210.0000000
  free_energy:        18.1481879
  entropy:           504.7940290
  heat_capacity:     417.4753532
  energy:            124.1549339

- temperature:       220.0000000
  free_energy:        13.0019077
  entropy:           524.3572868
  heat_capacity:     423.5313997
  energy:            128.3605108

- temperature:       230.0000000
  free_energy:         7.6630898
  entropy:           543.3062411
  heat_capacity:     428.9760639
  energy:            132.6235252

- temperature:       240.0000000
  free_energy:         2.1377375
  entropy:           561.6687650
  heat_capacity:     433.8831301
  energy:            136.9382411

- temperature:       250.0000000
  free_energy:        -3.5684217
  entropy:           579.4721280
  heat_capacity:     438.3166356
  energy:            141.2996102

- temperature:       260.0000000
  free_energy:        -9.4499293
  entropy:           596.7427331
  heat_capacity:     442.3321411
  energy:            145.7031813

- temperature:       270.0000000
  free_energy:       -15.5015852
  entropy:           613.5059498
  heat_capacity:     445.9778764
  energy:            150.1450212

- temperature:       280.0000000
  free_energy:       -21.7184379
  entropy:           629.7860161
  heat_capacity:     449.2957523
  energy:            154.6216466

- temperature:       290.0000000
  free_energy:       -28.0957721
  entropy:           645.6059915
  heat_capacity:     452.3222418
  energy:            159.1299655

- temperature:       300.0000000
  free_energy:       -34.6290971
  entropy:           660.9877457
  heat_capacity:     455.0891417
  energy:            163.6672266

- temperature:       310.0000000
  free_energy:       -41.3141353
  entropy:           675.9519720
  heat_capacity:     457.6242271
  energy:            168.2309760

- temperature:       320.0000000
  free_energy:       -48.1468101
  entropy:           690.5182183
  heat_capacity:     459.9518111
  energy:            172.8190198

- temperature:       330.0000000
  free_energy:       -55.1232347
  entropy:           704.7049291
  heat_capacity:     462.0932233
  energy:            177.4293919

- temperature:       340.0000000
  free_energy:       -62.2397016
  entropy:           718.5294943
  heat_capacity:     464.0672182
  energy:            182.0603264

- temperature:       350.0000000
  free_energy:       -69.4926722
  entropy:           732.0083020
  heat_capacity:     465.8903239
  energy:            186.7102335

- temperature:       360.0000000
  free_energy:       -76.8787667
  entropy:           745.1567931
  heat_capacity:     467.5771400
  energy:            191.3776788

- temperature:       370.0000000
  free_energy:       -84.3947556
  entropy:           757.9895158
  heat_capacity:     469.1405914
  energy:            196.0613653

- temperature:       380.0000000
  free_energy:       -92.0375503
  entropy:           770.5201790
  heat_capacity:     470.5921469
  energy:            200.7601178

- temperature:       390.0000000
  free_energy:       -99.8041954
  entropy:           782.7617045
  heat_capacity:     471.9420054
  energy:            205.4728693

- temperature:       400.0000000
  free_energy:      -107.6918612
  entropy:           794.7262764
  heat_capacity:     473.1992566
  energy:            210.1986493

- temperature:       410.0000000
  free_energy:      -115.6978362
  entropy:           806.4253881
  heat_capacity:     474.3720188
  energy:            214.9365729

- temperature:       420.0000000
  free_energy:      -123.8195204
  entropy:           817.8698874
  heat_capacity:     475.4675582
  energy:            219.6858324

- temperature:       430.0000000
  free_energy:      -132.0544194
  entropy:           829.0700184
  heat_capacity:     476.4923910
  energy:            224.4456885

- temperature:       440.0000000
  free_energy:      -140.4001385
  entropy:           840.0354604
  heat_capacity:     477.4523733
  energy:            229.2154641

- temperature:       450.0000000
  free_energy:      -148.8543769
  entropy:           850.7753651
  heat_capacity:     478.3527773
  energy:            233.9945374

- temperature:       460.0000000
  free_energy:      -157.4149229
  entropy:           861.2983910
  heat_capacity:     479.1983592
  energy:            238.7823369

- temperature:       470.0000000
  free_energy:      -166.0796491
  entropy:           871.6127348
  heat_capacity:     479.9934173
  energy:            243.5783362

- temperature:       480.0000000
  free_energy:      -174.8465079
  entropy:           881.7261621
  heat_capacity:     480.7418427
  energy:            248.3820499

- temperature:       490.0000000
  free_energy:      -183.7135272
  entropy:           891.6460341
  heat_capacity:     481.4471646
  energy:            253.1930294

- temperature:       500.0000000
  free_energy:      -192.6788067
  entropy:           901.3793339
  heat_capacity:     482.1125890
  energy:            258.0108602

- temperature:       510.0000000
  free_energy:      -201.7405142
  entropy:           910.9326905
  heat_capacity:     482.7410330
  energy:            262.8351580

- temperature:       520.0000000
  free_energy:      -210.8968818
  entropy:           920.3124005
  heat_capacity:     483.3351554
  energy:            267.6655665

- temperature:       530.0000000
  free_energy:      -220.1462033
  entropy:           929.5244493
  heat_capacity:     483.8973828
  energy:            272.5017548

- temperature:       540.0000000
  free_energy:      -229.4868309
  entropy:           938.5745299
  heat_capacity:     484.4299339
  energy:            277.3434152

- temperature:       550.0000000
  free_energy:      -238.9171721
  entropy:           947.4680608
  heat_capacity:     484.9348395
  energy:            282.1902613

- temperature:       560.0000000
  free_energy:      -248.4356875
  entropy:           956.2102029
  heat_capacity:     485.4139616
  energy:            287.0420261

- temperature:       570.0000000
  free_energy:      -258.0408880
  entropy:           964.8058742
  heat_capacity:     485.8690097
  energy:            291.8984603

- temperature:       580.0000000
  free_energy:      -267.7313324
  entropy:           973.2597650
  heat_capacity:     486.3015552
  energy:            296.7593313

- temperature:       590.0000000
  free_energy:      -277.5056256
  entropy:           981.5763506
  heat_capacity:     486.7130446
  energy:            301.6244213

- temperature:       600.0000000
  free_energy:      -287.3624160
  entropy:           989.7599041
  heat_capacity:     487.1048109
  energy:            306.4935265

- temperature:       610.0000000
  free_energy:      -297.3003939
  entropy:           997.8145078
  heat_capacity:     487.4780844
  energy:            311.3664559

- temperature:       620.0000000
  free_energy:      -307.3182894
  entropy:          1005.7440640
  heat_capacity:     487.8340016
  energy:            316.2430303

- temperature:       630.0000000
  free_energy:      -317.4148708
  entropy:          1013.5523053
  heat_capacity:     488.1736138
  energy:            321.1230815

- temperature:       640.0000000
  free_energy:      -327.5889430
  entropy:          1021.2428039
  heat_capacity:     488.4978945
  energy:            326.0064515

- temperature:       650.0000000
  free_energy:      -337.8393458
  entropy:          1028.8189802
  heat_capacity:     488.8077461
  energy:            330.8929913

- temperature:       660.0000000
  free_energy:      -348.1649525
  entropy:          1036.2841115
  heat_capacity:     489.1040061
  energy:            335.7825611

- temperature:       670.0000000
  free_energy:      -358.5646684
  entropy:          1043.6413390
  heat_capacity:     489.3874526
  energy:            340.6750288

- temperature:       680.0000000
  free_energy:      -369.0374296
  entropy:          1050.8936757
  heat_capacity:     489.6588090
  energy:            345.5702699

- temperature:       690.0000000
  free_energy:      -379.5822019
  entropy:          1058.0440127
  heat_capacity:     489.9187490
  energy:            350.4681669

- temperature:       700.0000000
  free_energy:      -390.1979791
  entropy:          1065.0951258
  heat_capacity:     490.1679000
  energy:            355.3686089

- temperature:       710.0000000
  free_energy:      -400.8837826
  entropy:          1072.0496809
  heat_capacity:     490.4068474
  energy:            360.2714909

- temperature:       720.0000000
  free_energy:      -411.6386595
  entropy:          1078.9102404
  heat_capacity:     490.6361376
  energy:            365.1767136

- temperature:       730.0000000
  free_energy:      -422.4616823
  entropy:          1085.6792677
  heat_capacity:     490.8562810
  energy:            370.0841832

- temperature:       740.0000000
  free_energy:      -433.3519476
  entropy:          1092.3591324
  heat_capacity:     491.0677551
  energy:            374.9938104

- temperature:       750.0000000
  free_energy:      -444.3085753
  entropy:          1098.9521149
  heat_capacity:     491.2710067
  energy:            379.9055109

- temperature:       760.0000000
  free_energy:      -455.3307076
  entropy:          1105.4604107
  heat_capacity:     491.4664544
  energy:            384.8192045

- temperature:       770.0000000
  free_energy:      -466.4175083
  entropy:          1111.8861345
  heat_capacity:     491.6544906
  energy:            389.7348152

- temperature:       780.0000000
  free_energy:      -477.5681619
  entropy:          1118.2313240
  heat_capacity:     491.8354834
  energy:            394.6522708

- temperature:       790.0000000
  free_energy:      -488.7818729
  entropy:          1124.4979436
  heat_capacity:     492.0097786
  energy:            399.5715026

- temperature:       800.0000000
  free_energy:      -500.0578652
  entropy:          1130.6878879
  heat_capacity:     492.1777010
  energy:            404.4924452

- temperature:       810.0000000
  free_energy:      -511.3953812
  entropy:          1136.8029846
  heat_capacity:     492.3395562
  energy:            409.4150364

- temperature:       820.0000000
  free_energy:      -522.7936813
  entropy:          1142.8449979
  heat_capacity:     492.4956316
  energy:            414.3392170

- temperature:       830.0000000
  free_energy:      -534.2520432
  entropy:          1148.8156311
  heat_capacity:     492.6461980
  energy:            419.2649306

- temperature:       840.0000000
  free_energy:      -545.7697614
  entropy:          1154.7165297
  heat_capacity:     492.7915105
  energy:            424.1921235

- temperature:       850.0000000
  free_energy:      -557.3461467
  entropy:          1160.5492833
  heat_capacity:     492.9318096
  energy:            429.1207441

- temperature:       860.0000000
  free_energy:      -568.9805251
  entropy:          1166.3154288
  heat_capacity:     493.0673226
  energy:            434.0507437

- temperature:       870.0000000
  free_energy:      -580.6722382
  entropy:          1172.0164523
  heat_capacity:     493.1982637
  energy:            438.9820754

- temperature:       880.0000000
  free_energy:      -592.4206419
  entropy:          1177.6537912
  heat_capacity:     493.3248355
  energy:            443.9146944

- temperature:       890.0000000
  free_energy:      -604.2251063
  entropy:          1183.2288365
  heat_capacity:     493.4472295
  energy:            448.8485581

- temperature:       900.0000000
  free_energy:      -616.0850154
  entropy:          1188.7429346
  heat_capacity:     493.5656269
  energy:            453.7836257

- temperature:       910.0000000
  free_energy:      -627.9997662
  entropy:          1194.1973892
  heat_capacity:     493.6801991
  energy:            458.7198579

- temperature:       920.0000000
  free_energy:      -639.9687686
  entropy:          1199.5934631
  heat_capacity:     493.7911087
  energy:            463.6572175

- temperature:       930.0000000
  free_energy:      -651.9914450
  entropy:          1204.9323800
  heat_capacity:     493.8985096
  energy:            468.5956684

- temperature:       940.0000000
  free_energy:      -664.0672297
  entropy:          1210.2153256
  heat_capacity:     494.0025476
  energy:            473.5351764

- temperature:       950.0000000
  free_energy:      -676.1955687
  entropy:          1215.4434499
  heat_capacity:     494.1033613
  energy:            478.4757086

- temperature:       960.0000000
  free_energy:      -688.3759196
  entropy:          1220.6178677
  heat_capacity:     494.2010820
  energy:            483.4172334

- temperature:       970.0000000
  free_energy:      -700.6077507
  entropy:          1225.7396609
  heat_capacity:     494.2958347
  energy:            488.3597204

- temperature:       980.0000000
  free_energy:      -712.8905409
  entropy:          1230.8098791
  heat_capacity:     494.3877380
  energy:            493.3031406

- temperature:       990.0000000
  free_energy:      -725.2237798
  entropy:          1235.8295412
  heat_capacity:     494.4769046
  energy:            498.2474660

- temperature:      1000.0000000
  free_energy:      -737.6069665
  entropy:          1240.7996364
  heat_capacity:     494.5634417
  energy:            503.1926699
