12
Lattice="6.404178045340307 -5.1246731324757355e-08 -2.7693588048665333e-07 -6.413386736913487e-08 6.404178042649264 -2.2013416470572492e-07 -6.430009399191893e-08 7.84935637438864e-09 6.4041780201153955" Properties=species:S:1:pos:R:3:forces:R:3 structure_index=0 total_energy=-38.868324279785156 stress="0.004023084416985512 6.313381959444087e-07 -5.798617621621815e-07 7.742211209915695e-07 0.004022502806037664 2.4369126094825333e-07 -6.472622544606565e-07 2.8820360853387683e-07 0.004023294895887375" pbc="T T T"
Li       1.60104444       1.60104450       4.80313339       0.00000016      -0.00000002       0.00000015
Li       1.60104445       4.80313351       1.60104427       0.00000027       0.00000037      -0.00000018
Li       4.80313344       4.80313350       4.80313314       0.00000010       0.00000003       0.00000032
Li       4.80313350       1.60104447       1.60104424       0.00000031       0.00000025       0.00000018
Ga      -0.00000005       0.00000003       6.40417802      -0.00000002      -0.00000061       0.00000008
Ga       3.20208893       3.20208900       6.40417779      -0.00000025      -0.00000016       0.00000032
Ga       3.20208900      -0.00000001       3.20208887      -0.00000017      -0.00000016       0.00000053
Ga      -0.00000006       3.20208903       3.20208889      -0.00000068      -0.00000024       0.00000048
Sn       1.60104446       1.60104449       1.60104436       0.00000032       0.00000007      -0.00000056
Sn       1.60104439       4.80313354       4.80313329       0.00000003       0.00000038      -0.00000032
Sn       4.80313347       4.80313348       1.60104413      -0.00000019       0.00000016       0.00000003
Sn       4.80313347       1.60104446       4.80313326       0.00000013      -0.00000009      -0.00000102
18
Lattice="4.5059075192684634 2.7384221582953373e-09 -1.0242848510964767e-07 -2.252953752517543 3.902230208726333 1.7199414010764962e-08 1.1155181627275848e-07 4.7150418902385733e-07 16.223913231370478" Properties=species:S:1:pos:R:3:forces:R:3 structure_index=1 total_energy=-44.37718963623047 stress="0.009448462165892124 1.7261639584376098e-07 1.71662968284636e-08 7.565895998595806e-07 0.009446041658520699 -5.782118783770329e-09 -5.021471238819686e-08 -1.2553677208870795e-07 0.0093951765447855" pbc="T T T"
Li       0.00000002       0.00000008       2.69013870      -0.00000005      -0.00000008      -0.00704220
Li       2.25295386       3.90223060      13.53377443      -0.00000006       0.00000056       0.00704190
Li       0.00000004       0.00000017       5.36195635      -0.00000007      -0.00000027      -0.00171458
Li       2.25295384       3.90223051      10.86195679      -0.00000005       0.00000032       0.00171533
Li       0.00000001       2.60148684       0.92555471       0.00000057      -0.00000024      -0.00077713
Li       2.25295387       1.30074385      15.29835846       0.00000029       0.00000008       0.00077596
Li       0.00000006       2.60148707       8.94658302       0.00000007      -0.00000007      -0.02587333
Li       2.25295381       1.30074361       7.27733016      -0.00000005      -0.00000011       0.02587384
Li       0.00000008       2.60148715      11.62407391       0.00000003      -0.00000011       0.00377868
Li       2.25295379       1.30074354       4.59983924       0.00000010      -0.00000001      -0.00377932
Li       0.00000010       2.60148723      14.37343255      -0.00000001      -0.00000007       0.04151798
Li       2.25295377       1.30074346       1.85048060      -0.00000008       0.00000022      -0.04151744
Li       4.50590756       0.00000025       8.11195651       0.00000009       0.00000011      -0.00000029
Ga       0.00000003       2.60148692       3.65263694      -0.00000004       0.00000006       0.04857586
Ga       2.25295385       1.30074377      12.57127616       0.00000007      -0.00000041      -0.04857444
Ga       0.00000005       2.60148699       6.24925102       0.00000003       0.00000033       0.01675303
Ga       2.25295383       1.30074370       9.97466214      -0.00000012      -0.00000028      -0.01675314
Ga       0.00000012       0.00000048      16.22391322      -0.00000074      -0.00000004      -0.00000072
15
Lattice="4.403382869607429 -1.3443550076041572e-07 -1.1645406919619453e-07 -2.2016914206552163 3.81344137443833 1.8227097748190783e-07 1.5557168013556367e-07 2.733643291538066e-07 13.636899610717004" Properties=species:S:1:pos:R:3:forces:R:3 structure_index=2 total_energy=-39.948631286621094 stress="-0.01856341026723385 -4.0395119071945373e-07 5.692119771083526e-07 -2.752295529262483e-07 -0.01856769248843193 -1.0282187759003136e-06 3.2320127729690284e-07 -9.083519785235694e-07 0.03359537944197655" pbc="T T T"
Li       2.20169144       3.81344138       5.47452329       0.00000022       0.00000013      -0.00585610
Li       0.00000015       0.00000007       8.16237659       0.00000027       0.00000051       0.00585602
Li       2.20169150       1.27114723      10.02015625       0.00000046      -0.00000020      -0.00585572
Li       2.20169158       1.27114717      12.70801002       0.00000012       0.00000026       0.00585557
Li       0.00000006       2.54229418       0.92888995       0.00000015      -0.00000044      -0.00585683
Li       0.00000009       2.54229420       3.61674363       0.00000028       0.00000024       0.00585571
Li       2.20169156       3.81344155      13.63689970      -0.00000000      -0.00000005      -0.00000093
Li       2.20169149       1.27114709       4.54563316      -0.00000020      -0.00000003      -0.00000044
Li       0.00000010       2.54229441       9.09126650      -0.00000012      -0.00000016      -0.00000086
Ga       0.00000007       0.00000021       2.70840563      -0.00000005      -0.00000056       0.01231709
Ga       4.40338295       0.00000003      10.92849376      -0.00000023      -0.00000013      -0.01231594
Ga       2.20169147       1.27114738       7.25403890       0.00000015      -0.00000044       0.01231772
Ga       2.20169142       1.27114704       1.83722723       0.00000001       0.00000063      -0.01231617
Ga       0.00000022       2.54229461      11.79967217      -0.00000045       0.00000021       0.01231823
Ga       0.00000015       2.54229421       6.38286056      -0.00000059       0.00000006      -0.01231727
128
Lattice="12.827755665809407 -5.794995499280407e-08 -3.3501610899835895e-08 6.315457555658673e-08 12.827756585350743 2.934581429954349e-08 -7.9619864410304e-08 -6.958196459687615e-08 12.827756326571443" Properties=species:S:1:pos:R:3:forces:R:3 structure_index=3 total_energy=-292.70233154296875 stress="0.0012894707033410668 1.1310412606491127e-09 -2.7144990255578705e-08 -1.6565916638455747e-08 0.0012912600068375468 -4.524165042596451e-09 -3.457600783463022e-08 1.922770209716873e-08 0.0012894503306597471" pbc="T T T"
Li      -0.00000002      -0.00000001       3.19322257      -0.00000040      -0.00000025      -0.01889778
Li       3.20693889       3.20693909       6.40016165      -0.00000032      -0.00000010      -0.01889841
Li      12.82775563       6.41387818       9.60710073      -0.00000033       0.00000052      -0.01889819
Li       9.62081670       3.20693903      12.81403981       0.00000110      -0.00000004      -0.01889925
Li      12.82775567      12.82775647       9.63453376      -0.00000051      -0.00000013       0.01889803
Li       3.20693892       9.62081741       6.42759468      -0.00000002       0.00000070       0.01889846
Li      12.82775567       6.41387821       3.22065557      -0.00000021      -0.00000034       0.01889808
Li       9.62081680       9.62081742       0.01371651      -0.00000071       0.00000059       0.01889830
Li       3.19322241      -0.00000001      -0.00000000      -0.01889818      -0.00000046       0.00000069
Li       6.40016132       3.20693910       3.20693907      -0.01889768       0.00000011       0.00000011
Li       9.60710028      12.82775651       6.41387817      -0.01889891      -0.00000015       0.00000025
Li      12.81403918       9.62081739       3.20693906      -0.01889838       0.00000059       0.00000067
Li       9.63453324      12.82775647      12.82775633       0.01889887      -0.00000039       0.00000049
Li       6.42759429       3.20693906       9.62081726       0.01889856      -0.00000013       0.00000004
Li       3.22065544      12.82775654       6.41387817       0.01889821      -0.00000049       0.00000064
Li       0.01371649       9.62081741       9.62081729       0.01889746       0.00000013       0.00000003
Li       0.00000001       3.19322264       0.00000001      -0.00000052      -0.01889813       0.00000034
Li       3.20693893       6.40016174       3.20693909       0.00000038      -0.01889813       0.00000015
Li       6.41387788       9.60710092       0.00000001      -0.00000020      -0.01889763       0.00000005
Li       3.20693892      12.81404002       9.62081729       0.00000023      -0.01889810      -0.00000022
Li      12.82775563       9.63453383      12.82775631      -0.00000081       0.01889846       0.00000027
Li       9.62081677       6.42759473       3.20693907      -0.00000085       0.01889892       0.00000007
Li       6.41387777       3.22065555      12.82775632       0.00000014       0.01889797       0.00000044
Li       9.62081669       0.01371642       9.62081725       0.00000082       0.01889800      -0.00000007
Li       3.20693892       3.20693913       0.01371650       0.00000028       0.00000003       0.01889846
Li       6.41387787      12.82775654       3.22065560       0.00000001       0.00000003       0.01889801
Li       3.20693888       9.62081738      12.81403984       0.00000008       0.00000059      -0.01889888
Li       6.41387784       6.41387824       3.19322257      -0.00000019      -0.00000037      -0.01889777
Li       0.01371650       3.20693912       3.20693908       0.01889759      -0.00000035       0.00000026
Li       3.22065538       6.41387820      12.82775633       0.01889819       0.00000034       0.00000071
Li      12.81403912       3.20693904       9.62081724      -0.01889845      -0.00000006       0.00000003
Li       3.19322240       6.41387824       6.41387817      -0.01889769      -0.00000018       0.00000011
Li       3.20693889       0.01371648       3.20693907      -0.00000005       0.01889825       0.00000039
Li      -0.00000002       3.22065562       6.41387816      -0.00000036       0.01889880       0.00000024
Li       9.62081680      12.81404002       3.20693908      -0.00000078      -0.01889837       0.00000011
Li       6.41387780       3.19322257       6.41387815       0.00000014      -0.01889766       0.00000015
Li       9.62081677       9.62081739       6.40016166      -0.00000090       0.00000046      -0.01889875
Li       6.41387783      12.82775651       9.60710077      -0.00000018      -0.00000014      -0.01889782
Li       6.41387780       6.41387821       9.63453375       0.00000011      -0.00000062       0.01889798
Li       9.62081673       3.20693907       6.42759464      -0.00000062       0.00000027       0.01889813
Li       9.60710021       6.41387818      12.82775632      -0.01889904      -0.00000019       0.00000066
Li       9.63453325       6.41387821       6.41387815       0.01889861      -0.00000064       0.00000063
Li       9.62081673       6.40016168       9.62081726      -0.00000045      -0.01889841       0.00000010
Li       3.20693889       6.42759472       9.62081727       0.00000009       0.01889827       0.00000029
Li       6.42759436       9.62081742       3.20693908       0.01889890       0.00000047       0.00000024
Li       6.40016131       9.62081739       9.62081728      -0.01889757       0.00000046       0.00000011
Li       6.41387784       9.63453388       6.41387817      -0.00000004       0.01889815       0.00000076
Li      12.82775567       9.60710085       6.41387815      -0.00000010      -0.01889781       0.00000059
Li       1.56509345       4.84878466       7.97897172      -0.00277724       0.00277733      -0.00277789
Li      11.18591018       4.77203262      11.18591077      -0.00277711      -0.00277805      -0.00277777
Li      11.26266220       1.56509352       1.56509352       0.00277807      -0.00277783      -0.00277755
Li       1.64184543       1.64184553       4.77203263       0.00277754       0.00277738      -0.00277816
Li       1.56509348       7.97897185       4.84878463      -0.00277741      -0.00277757       0.00277696
Li      11.18591025       8.05572379       1.64184552      -0.00277675       0.00277659       0.00277722
Li      11.26266219      11.26266289      11.26266277       0.00277793       0.00277788       0.00277739
Li       1.64184545      11.18591096       8.05572371       0.00277734      -0.00277740       0.00277645
Li       7.97897129       1.56509352       4.84878460      -0.00277743      -0.00277745       0.00277725
Li      11.18591024      11.18591094       4.77203262      -0.00277694      -0.00277743      -0.00277816
Li       1.56509352      11.26266298       1.56509357      -0.00277737       0.00277777      -0.00277748
Li       4.77203238       1.64184553       1.64184552      -0.00277732       0.00277737       0.00277734
Li       4.84878433       1.56509351       7.97897171       0.00277724      -0.00277773      -0.00277721
Li       8.05572322       1.64184547      11.18591077       0.00277751       0.00277785      -0.00277846
Li       4.84878439       7.97897185       1.56509355       0.00277722      -0.00277788      -0.00277716
Li       4.77203237      11.18591092      11.18591080      -0.00277738      -0.00277755      -0.00277813
Li       1.56509341       1.56509351      11.26266277      -0.00277735      -0.00277736       0.00277701
Li       1.64184546       4.77203271       1.64184554       0.00277708      -0.00277713       0.00277745
Li       7.97897132       4.84878467       1.56509354      -0.00277803       0.00277776      -0.00277755
Li       4.84878438      11.26266294       4.84878463       0.00277750       0.00277758       0.00277755
Li       1.64184542       8.05572378      11.18591080       0.00277762       0.00277634      -0.00277809
Li       4.77203238       4.77203268       4.77203263      -0.00277719      -0.00277739      -0.00277783
Li       4.84878431       4.84878463      11.26266277       0.00277731       0.00277742       0.00277705
Li      11.18591019       1.64184547       8.05572365      -0.00277699       0.00277714       0.00277788
Li      11.26266220       4.84878463       4.84878460       0.00277816       0.00277773       0.00277755
Li       8.05572332      11.18591097       1.64184553       0.00277806      -0.00277778       0.00277758
Li       7.97897131      11.26266292       7.97897172      -0.00277792       0.00277741      -0.00277748
Li       8.05572328       8.05572378       4.77203264       0.00277789       0.00277714      -0.00277817
Li       8.05572325       4.77203265       8.05572367       0.00277742      -0.00277756       0.00277688
Li      11.26266220       7.97897178       7.97897170       0.00277841      -0.00277831      -0.00277779
Li       7.97897128       7.97897178      11.26266277      -0.00277749      -0.00277771       0.00277709
Li       4.77203239       8.05572377       8.05572368      -0.00277741       0.00277655       0.00277648
Li       1.60346941       1.60346952       8.01734770       0.00000035      -0.00000024       0.00000077
Li       1.60346941       4.81040866      11.22428677      -0.00000012       0.00000016      -0.00000083
Li      11.22428621       4.81040867       1.60346952       0.00000090       0.00000010      -0.00000008
Li      11.22428618       1.60346949       4.81040861       0.00000098       0.00000002      -0.00000019
Li       1.60346948      11.22428696       4.81040865      -0.00000020       0.00000003      -0.00000050
Li       1.60346949       8.01734785       1.60346955      -0.00000021      -0.00000083      -0.00000011
Li      11.22428617       8.01734775      11.22428675       0.00000111       0.00000067      -0.00000105
Li      11.22428620      11.22428689       8.01734770       0.00000081       0.00000026       0.00000082
Li       8.01734728       1.60346953       1.60346952      -0.00000004      -0.00000010       0.00000073
Li       4.81040842      11.22428696       1.60346955      -0.00000033       0.00000023      -0.00000036
Li       4.81040831       1.60346949      11.22428676       0.00000065      -0.00000041      -0.00000090
Li       8.01734728      11.22428689      11.22428676      -0.00000016      -0.00000038      -0.00000103
Li       4.81040839       8.01734782       4.81040864      -0.00000042      -0.00000100      -0.00000002
Li       4.81040835       4.81040867       8.01734769       0.00000090       0.00000071       0.00000034
Li       8.01734728       4.81040867       4.81040863      -0.00000013      -0.00000020      -0.00000023
Li       8.01734728       8.01734778       8.01734769      -0.00000016       0.00000088       0.00000085
Li      -0.00000002      12.82775651      12.82775636      -0.00000066      -0.00000027       0.00000041
Li       3.20693891       3.20693911       3.20693908       0.00000001      -0.00000054       0.00000056
Li      12.82775565       6.41387819       6.41387815      -0.00000049       0.00000015       0.00000009
Li       9.62081671       3.20693905       9.62081725      -0.00000065      -0.00000012       0.00000023
Li       3.20693890       9.62081740       9.62081729       0.00000011       0.00000051       0.00000002
Li       9.62081679       9.62081741       3.20693908      -0.00000082       0.00000041       0.00000042
Li       6.41387779      -0.00000005       6.41387815       0.00000020      -0.00000042       0.00000018
Li       6.41387778       6.41387819      12.82775633       0.00000014      -0.00000034       0.00000028
Ga       1.60346946       1.60346956       1.60346954       0.00000003      -0.00000016       0.00000019
Ga       1.60346946       4.81040870       4.81040864      -0.00000025       0.00000013      -0.00000008
Ga      11.22428617       4.81040864       8.01734768       0.00000054       0.00000018       0.00000046
Ga      11.22428614       1.60346946      11.22428674       0.00000006      -0.00000021      -0.00000034
Ga       1.60346944      11.22428692      11.22428679       0.00000010      -0.00000028      -0.00000076
Ga       1.60346945       8.01734781       8.01734771      -0.00000050       0.00000095       0.00000069
Ga      11.22428621       8.01734778       4.81040861       0.00000062       0.00000078      -0.00000009
Ga      11.22428625      11.22428693       1.60346953       0.00000085       0.00000028      -0.00000038
Ga       4.81040836       1.60346953       4.81040863      -0.00000057       0.00000003      -0.00000028
Ga       8.01734731      11.22428692       4.81040863       0.00000053      -0.00000002      -0.00000012
Ga       8.01734724       1.60346949       8.01734768       0.00000017      -0.00000022       0.00000038
Ga       4.81040839      11.22428693       8.01734771      -0.00000065       0.00000003       0.00000040
Ga       4.81040839       4.81040870       1.60346954      -0.00000066       0.00000041      -0.00000002
Ga       4.81040835       8.01734778      11.22428677      -0.00000001       0.00000108      -0.00000066
Ga       8.01734731       8.01734782       1.60346953       0.00000056      -0.00000056       0.00000044
Ga       8.01734724       4.81040864      11.22428675       0.00000028       0.00000025      -0.00000093
Ga      12.82775562      -0.00000008       6.41387813      -0.00000024      -0.00000030       0.00000016
Ga       3.20693887       3.20693908       9.62081726      -0.00000024      -0.00000007       0.00000011
Ga       0.00000003       6.41387829       0.00000002      -0.00000037      -0.00000000       0.00000073
Ga       9.62081675       3.20693908       3.20693906      -0.00000077       0.00000002       0.00000028
Ga       3.20693895       9.62081743       3.20693909       0.00000010       0.00000049       0.00000027
Ga       9.62081674       9.62081736       9.62081726      -0.00000068       0.00000023       0.00000006
Ga       6.41387783      -0.00000002      -0.00000001      -0.00000036       0.00000004       0.00000029
Ga       6.41387782       6.41387823       6.41387816      -0.00000057      -0.00000027       0.00000059
33
Lattice="4.502861553638601 -6.406609369847272e-09 -1.9876418099662757e-08 -2.2514307364913813 3.8995924620529028 1.0543969084241439e-07 1.3332167808043081e-08 -1.1350859551472763e-07 29.86541757788852" Properties=species:S:1:pos:R:3:forces:R:3 structure_index=4 total_energy=-80.94396209716797 stress="0.00552684161812067 -2.2206056371487648e-07 4.038515157844813e-07 -1.335327368678918e-07 0.005524509120732546 -3.549244524947426e-07 3.664797532110242e-07 -1.7982547717565467e-07 0.006632054224610329" pbc="T T T"
Li      -2.25143073       3.89959245       2.69582100       0.00000006       0.00000042      -0.01949002
Li       2.25143083       3.89959235      27.16959672      -0.00000010      -0.00000044       0.01948759
Li       2.25143080       1.29986410      12.65096011       0.00000004       0.00000050      -0.01949046
Li       2.25143079       1.29986412       7.25931833      -0.00000003      -0.00000030       0.01948948
Li       0.00000004       2.59972822      22.60609935       0.00000002       0.00000028      -0.01949184
Li       0.00000004       2.59972824      17.21445753       0.00000000      -0.00000057       0.01948733
Li       0.00000001      -0.00000002       5.34823607      -0.00000002       0.00000023       0.01336940
Li      -2.25143072       3.89959236      24.51718164      -0.00000036      -0.00000027      -0.01336729
Li       2.25143080       1.29986410      15.30337527       0.00000006       0.00000051       0.01336803
Li       2.25143079       1.29986413       4.60690315       0.00000007      -0.00000006      -0.01336884
Li       0.00000004       2.59972821      25.25851451       0.00000002       0.00000016       0.01336979
Li       0.00000004       2.59972825      14.56204239      -0.00000005      -0.00000040      -0.01336814
Li       2.25143082       3.89959242       8.09460730       0.00000008       0.00000070       0.04459799
Li       0.00000001      -0.00000008      21.77081038      -0.00000005      -0.00000020      -0.04459899
Li       2.25143080       1.29986408      18.04974645       0.00000003       0.00000048       0.04459968
Li       2.25143079       1.29986414       1.86053198      -0.00000008      -0.00000039      -0.04459825
Li       0.00000004       2.59972820      28.00488568       0.00000025       0.00000066       0.04459671
Li       0.00000003       2.59972826      11.81567122      -0.00000004      -0.00000043      -0.04459811
Li      -2.25143073       3.89959242      10.88097626      -0.00000006      -0.00000023       0.00699770
Li       2.25143082       3.89959238      18.98444148       0.00000001      -0.00000016      -0.00699732
Li       2.25143080       1.29986407      20.83611537      -0.00000002      -0.00000015       0.00699780
Li       2.25143080       1.29986404      28.93958069      -0.00000029      -0.00000039      -0.00699737
Li       0.00000003       2.59972830       0.92583701      -0.00000050       0.00000013       0.00699747
Li       0.00000003       2.59972827       9.02930231       0.00000004      -0.00000049      -0.00699761
Ga       2.25143082       3.89959240      13.62897245       0.00000006       0.00000015       0.03015584
Ga      -2.25143073       3.89959240      16.23644534      -0.00000007      -0.00000017      -0.03015400
Ga       2.25143080       1.29986406      23.58411159       0.00000024       0.00000015       0.03015271
Ga       2.25143080       1.29986405      26.19158440       0.00000004       0.00000003      -0.03015156
Ga       0.00000003       2.59972829       3.67383327       0.00000002      -0.00000018       0.03015607
Ga       0.00000003       2.59972829       6.28130605      -0.00000004      -0.00000026      -0.03015631
Ga       4.50286156      -0.00000012      29.86541756       0.00000060       0.00000010       0.00000105
Ga       2.25143079       1.29986411       9.95513922      -0.00000003       0.00000043       0.00000030
Ga       0.00000004       2.59972823      19.91027845       0.00000001       0.00000014       0.00000107
2
Lattice="3.1197724414515404 -2.9638002915733802e-08 -1.0412916493552745e-07 9.756810473998047e-08 3.1197725827798646 -2.316865391499256e-08 -7.810138682158522e-08 -1.0338224569780606e-08 4.353323186492275" Properties=species:S:1:pos:R:3:forces:R:3 structure_index=5 total_energy=-6.521955490112305 stress="-0.17471815645694733 3.531058325734193e-07 -5.044084616656619e-08 3.311747889256367e-07 -0.17471833527088165 -3.4364541079412447e-07 -8.80892372379094e-08 -2.9948310498184583e-07 0.11848561465740204" pbc="T T T"
Li      -0.00000009      -0.00000001       4.35332319       0.00000006      -0.00000012       0.00000009
Sn       1.55988624       1.55988627       2.17666153      -0.00000006       0.00000012      -0.00000009
8
Lattice="5.705367628451267 1.0473141918354784e-06 -2.290581467395463e-06 -2.8526843352671354 4.940992447450194 4.722291167746183e-06 1.03397645063028e-06 -1.4275597302881976e-06 4.629527817326988" Properties=species:S:1:pos:R:3:forces:R:3 structure_index=6 total_energy=-19.082469940185547 stress="0.0033796438947319984 -1.0239417633783887e-06 -2.0128304640820716e-06 -1.0759847555164015e-06 0.0033757933415472507 2.607324177006376e-06 -1.9809378954960266e-06 2.666197588041541e-06 0.003467078786343336" pbc="T T T"
Li      -0.00000041       1.70924036       1.15738342       0.00000086       0.01788943       0.00000007
Li       2.85268477       3.23175171       3.47214681      -0.00000074      -0.01788951       0.00000011
Li       4.22512255       0.85462000       3.47214508      -0.01549216       0.00894447      -0.00000044
Li      -1.37243820       4.08637209       1.15738513       0.01549234      -0.00894451       0.00000041
Li       1.37243749       4.08637294       1.15738482      -0.01549268      -0.00894494      -0.00000033
Li       1.48024686       0.85461907       3.47214549       0.01549239       0.00894587       0.00000026
Ga       0.00000051       3.29399423       3.47214938       0.00000062      -0.00000048      -0.00000069
Ga       2.85268382       1.64699787       1.15738086      -0.00000066      -0.00000030       0.00000059
21
Lattice="4.509265723753849 9.166340141641908e-08 1.7584018930161175e-07 -2.2546330060943047 3.905138781904328 4.68880948419328e-07 -1.4728803835026458e-07 -7.885930475554012e-07 18.818170057419163" Properties=species:S:1:pos:R:3:forces:R:3 structure_index=7 total_energy=-52.185333251953125 stress="-0.0010783587349578738 7.450966563737893e-07 -5.2388852367357686e-08 6.617280519094493e-07 -0.0010813743574544787 1.0215184147455147e-06 -5.043230899559603e-08 8.969875011644035e-07 -0.006418534088879824" pbc="T T T"
Li      -2.25463300       3.90513861       3.96236795      -0.00000060      -0.00000008       0.01135618
Li       2.25463256       3.90513822      14.85580323       0.00000059      -0.00000032      -0.01135812
Li       2.25463274       1.30171256      10.23509103       0.00000021      -0.00000017       0.01135601
Li       2.25463280       1.30171289       2.31035616       0.00000028       0.00000039      -0.01135648
Li      -0.00000023       2.60342519      16.50781469      -0.00000050      -0.00000045       0.01135707
Li      -0.00000016       2.60342553       8.58307957       0.00000044       0.00000028      -0.01135621
Li       4.50926563      -0.00000017       6.67440624       0.00000037       0.00000012      -0.04140064
Li      -0.00000011      -0.00000049      12.14376408       0.00000061      -0.00000002       0.04140091
Li       2.25463272       1.30171245      12.94712969      -0.00000030       0.00000030      -0.04140001
Li       2.25463267       1.30171222      18.41648771      -0.00000026       0.00000007       0.04139913
Li      -0.00000010       2.60342587       0.40168294      -0.00000009      -0.00000027      -0.04140106
Li      -0.00000015       2.60342564       5.87104102      -0.00000023      -0.00000046       0.04140088
Li      -0.00000005      -0.00000032       9.40908498      -0.00000074       0.00000013      -0.00000006
Li       2.25463269       1.30171233      15.68180857      -0.00000008       0.00000014       0.00000050
Li      -0.00000012       2.60342576       3.13636207       0.00000013      -0.00000031      -0.00000058
Ga      -2.25463299       3.90513873       1.29200938      -0.00000005       0.00000015      -0.00507782
Ga       2.25463254       3.90513813      17.52616169       0.00000078       0.00000020       0.00507935
Ga       2.25463276       1.30171267       7.56473274      -0.00000014      -0.00000025      -0.00507641
Ga       2.25463278       1.30171278       4.98071455       0.00000026       0.00000052       0.00507732
Ga      -0.00000021       2.60342531      13.83745615      -0.00000053       0.00000039      -0.00507540
Ga      -0.00000018       2.60342541      11.25343807      -0.00000013      -0.00000034       0.00507554
20
Lattice="7.846081679404072 5.3067164158160104e-08 -2.214509261346358 -5.032662133933837e-09 4.511976867074552 -2.472782478599546e-08 0.00042349603461642733 -5.018054233045397e-09 8.889410236114857" Properties=species:S:1:pos:R:3:forces:R:3 structure_index=8 total_energy=-50.1207160949707 stress="0.01680457778275013 -4.5897331801825203e-07 0.00013279121776577085 -6.706242743348412e-07 0.017112599685788155 1.6376404232687491e-07 0.00013241190754342824 3.413851246136801e-08 0.022153330966830254" pbc="T T T"
Li       0.00356231       3.38398272       1.14606730       0.01882880      -0.00000039      -0.00983648
Li       7.84294288       1.12799427       5.52883375      -0.01882880      -0.00000001       0.00983597
Li       0.06255180       3.38398274       5.51387210      -0.00242899      -0.00000032       0.01120669
Li       7.78395336       1.12799418       1.16102881       0.00242897       0.00000033      -0.01120662