# Thermal properties / unit cell (natom)

unit:
  temperature:   K
  free_energy:   kJ/mol
  entropy:       J/K/mol
  heat_capacity: J/K/mol

natom: 1    
cutoff_frequency: 0.00000
num_modes: 151620
num_integrated_modes: 145535

zero_point_energy:       0.9101335

thermal_properties:
- temperature:         0.0000000
  free_energy:         0.9101335
  entropy:             0.0000000
  heat_capacity:       0.0000000
  energy:              0.9101335

- temperature:        10.0000000
  free_energy:         0.9063782
  entropy:             1.2413738
  heat_capacity:       2.8527461
  energy:              0.9187919

- temperature:        20.0000000
  free_energy:         0.8755527
  entropy:             5.2283761
  heat_capacity:       9.4057698
  energy:              0.9801202

- temperature:        30.0000000
  free_energy:         0.7991280
  entropy:            10.0730994
  heat_capacity:      14.4673423
  energy:              1.1013210

- temperature:        40.0000000
  free_energy:         0.6748983
  entropy:            14.7009502
  heat_capacity:      17.5918966
  energy:              1.2629363

- temperature:        50.0000000
  free_energy:         0.5067397
  entropy:            18.8470440
  heat_capacity:      19.4867389
  energy:              1.4490919

- temperature:        60.0000000
  free_energy:         0.2995626
  entropy:            22.5131766
  heat_capacity:      20.6784015
  energy:              1.6503532

- temperature:        70.0000000
  free_energy:         0.0578618
  entropy:            25.7636314
  heat_capacity:      21.4625863
  energy:              1.8613160

- temperature:        80.0000000
  free_energy:        -0.2145537
  entropy:            28.6668323
  heat_capacity:      22.0009154
  energy:              2.0787929

- temperature:        90.0000000
  free_energy:        -0.5145144
  entropy:            31.2815131
  heat_capacity:      22.3842970
  energy:              2.3008218

- temperature:       100.0000000
  free_energy:        -0.8393818
  entropy:            33.6552400
  heat_capacity:      22.6660120
  energy:              2.5261422

- temperature:       110.0000000
  free_energy:        -1.1869434
  entropy:            35.8259660
  heat_capacity:      22.8786053
  energy:              2.7539129

- temperature:       120.0000000
  free_energy:        -1.5553261
  entropy:            37.8239968
  heat_capacity:      23.0427267
  energy:              2.9835535

- temperature:       130.0000000
  free_energy:        -1.9429294
  entropy:            39.6736992
  heat_capacity:      23.1719307
  energy:              3.2146515

- temperature:       140.0000000
  free_energy:        -2.3483720
  entropy:            41.3948469
  heat_capacity:      23.2753849
  energy:              3.4469066

- temperature:       150.0000000
  free_energy:        -2.7704521
  entropy:            43.0036462
  heat_capacity:      23.3594565
  energy:              3.6800948

- temperature:       160.0000000
  free_energy:        -3.2081154
  entropy:            44.5135106
  heat_capacity:      23.4286722
  energy:              3.9140463

- temperature:       170.0000000
  free_energy:        -3.6604301
  entropy:            45.9356463
  heat_capacity:      23.4863178
  energy:              4.1486298

- temperature:       180.0000000
  free_energy:        -4.1265675
  entropy:            47.2794988
  heat_capacity:      23.5348231
  energy:              4.3837423

- temperature:       190.0000000
  free_energy:        -4.6057860
  entropy:            48.5530943
  heat_capacity:      23.5760147
  energy:              4.6193019

- temperature:       200.0000000
  free_energy:        -5.0974182
  entropy:            49.7633054
  heat_capacity:      23.6112866
  energy:              4.8552428

- temperature:       210.0000000
  free_energy:        -5.6008607
  entropy:            50.9160581
  heat_capacity:      23.6417170
  energy:              5.0915115

- temperature:       220.0000000
  free_energy:        -6.1155651
  entropy:            52.0164953
  heat_capacity:      23.6681503
  energy:              5.3280639

- temperature:       230.0000000
  free_energy:        -6.6410312
  entropy:            53.0691073
  heat_capacity:      23.6912550
  energy:              5.5648634

- temperature:       240.0000000
  free_energy:        -7.1768010
  entropy:            54.0778362
  heat_capacity:      23.7115658
  energy:              5.8018797

- temperature:       250.0000000
  free_energy:        -7.7224533
  entropy:            55.0461609
  heat_capacity:      23.7295145
  energy:              6.0390869

- temperature:       260.0000000
  free_energy:        -8.2775999
  entropy:            55.9771660
  heat_capacity:      23.7454528
  energy:              6.2764633

- temperature:       270.0000000
  free_energy:        -8.8418814
  entropy:            56.8735987
  heat_capacity:      23.7596696
  energy:              6.5139902

- temperature:       280.0000000
  free_energy:        -9.4149648
  entropy:            57.7379163
  heat_capacity:      23.7724035
  energy:              6.7516517

- temperature:       290.0000000
  free_energy:        -9.9965401
  entropy:            58.5723245
  heat_capacity:      23.7838535
  energy:              6.9894340

- temperature:       300.0000000
  free_energy:       -10.5863183
  entropy:            59.3788111
  heat_capacity:      23.7941862
  energy:              7.2273251

- temperature:       310.0000000
  free_energy:       -11.1840292
  entropy:            60.1591733
  heat_capacity:      23.8035422
  energy:              7.4653145

- temperature:       320.0000000
  free_energy:       -11.7894201
  entropy:            60.9150411
  heat_capacity:      23.8120406
  energy:              7.7033931

- temperature:       330.0000000
  free_energy:       -12.4022534
  entropy:            61.6478974
  heat_capacity:      23.8197830
  energy:              7.9415528

- temperature:       340.0000000
  free_energy:       -13.0223059
  entropy:            62.3590952
  heat_capacity:      23.8268562
  energy:              8.1797865

- temperature:       350.0000000
  free_energy:       -13.6493672
  entropy:            63.0498719
  heat_capacity:      23.8333353
  energy:              8.4180879

- temperature:       360.0000000
  free_energy:       -14.2832390
  entropy:            63.7213624
  heat_capacity:      23.8392847
  energy:              8.6564514

- temperature:       370.0000000
  free_energy:       -14.9237337
  entropy:            64.3746100
  heat_capacity:      23.8447607
  energy:              8.8948720

- temperature:       380.0000000
  free_energy:       -15.5706736
  entropy:            65.0105760
  heat_capacity:      23.8498121
  energy:              9.1333452

- temperature:       390.0000000
  free_energy:       -16.2238906
  entropy:            65.6301476
  heat_capacity:      23.8544816
  energy:              9.3718670

- temperature:       400.0000000
  free_energy:       -16.8832247
  entropy:            66.2341460
  heat_capacity:      23.8588068
  energy:              9.6104337

- temperature:       410.0000000
  free_energy:       -17.5485241
  entropy:            66.8233322
  heat_capacity:      23.8628207
  energy:              9.8490421

- temperature:       420.0000000
  free_energy:       -18.2196443
  entropy:            67.3984131
  heat_capacity:      23.8665524
  energy:             10.0876892

- temperature:       430.0000000
  free_energy:       -18.8964475
  entropy:            67.9600461
  heat_capacity:      23.8700277
  energy:             10.3263723

- temperature:       440.0000000
  free_energy:       -19.5788024
  entropy:            68.5088441
  heat_capacity:      23.8732696
  energy:             10.5650890

- temperature:       450.0000000
  free_energy:       -20.2665836
  entropy:            69.0453790
  heat_capacity:      23.8762985
  energy:             10.8038370

- temperature:       460.0000000
  free_energy:       -20.9596709
  entropy:            69.5701853
  heat_capacity:      23.8791326
  energy:             11.0426143

- temperature:       470.0000000
  free_energy:       -21.6579498
  entropy:            70.0837636
  heat_capacity:      23.8817883
  energy:             11.2814190

- temperature:       480.0000000
  free_energy:       -22.3613103
  entropy:            70.5865830
  heat_capacity:      23.8842803
  energy:             11.5202495

- temperature:       490.0000000
  free_energy:       -23.0696471
  entropy:            71.0790842
  heat_capacity:      23.8866217
  energy:             11.7591041

- temperature:       500.0000000
  free_energy:       -23.7828590
  entropy:            71.5616810
  heat_capacity:      23.8888243
  energy:             11.9979815

- temperature:       510.0000000
  free_energy:       -24.5008490
  entropy:            72.0347632
  heat_capacity:      23.8908991
  energy:             12.2368802

- temperature:       520.0000000
  free_energy:       -25.2235238
  entropy:            72.4986978
  heat_capacity:      23.8928555
  energy:             12.4757991

- temperature:       530.0000000
  free_energy:       -25.9507936
  entropy:            72.9538313
  heat_capacity:      23.8947026
  energy:             12.7147369

- temperature:       540.0000000
  free_energy:       -26.6825722
  entropy:            73.4004907
  heat_capacity:      23.8964482
  energy:             12.9536928

- temperature:       550.0000000
  free_energy:       -27.4187762
  entropy:            73.8389851
  heat_capacity:      23.8980997
  energy:             13.1926656

- temperature:       560.0000000
  free_energy:       -28.1593256
  entropy:            74.2696074
  heat_capacity:      23.8996637
  energy:             13.4316545

- temperature:       570.0000000
  free_energy:       -28.9041431
  entropy:            74.6926345
  heat_capacity:      23.9011463
  energy:             13.6706586

- temperature:       580.0000000
  free_energy:       -29.6531539
  entropy:            75.1083294
  heat_capacity:      23.9025530
  energy:             13.9096772

- temperature:       590.0000000
  free_energy:       -30.4062860
  entropy:            75.5169415
  heat_capacity:      23.9038889
  energy:             14.1487094

- temperature:       600.0000000
  free_energy:       -31.1634699
  entropy:            75.9187077
  heat_capacity:      23.9051588
  energy:             14.3877547

- temperature:       610.0000000
  free_energy:       -31.9246381
  entropy:            76.3138533
  heat_capacity:      23.9063668
  energy:             14.6268124

- temperature:       620.0000000
  free_energy:       -32.6897256
  entropy:            76.7025927
  heat_capacity:      23.9075169
  energy:             14.8658819

- temperature:       630.0000000
  free_energy:       -33.4586693
  entropy:            77.0851299
  heat_capacity:      23.9086127
  energy:             15.1049626

- temperature:       640.0000000
  free_energy:       -34.2314082
  entropy:            77.4616596
  heat_capacity:      23.9096577
  energy:             15.3440539

- temperature:       650.0000000
  free_energy:       -35.0078831
  entropy:            77.8323671
  heat_capacity:      23.9106550
  energy:             15.5831555

- temperature:       660.0000000
  free_energy:       -35.7880367
  entropy:            78.1974297
  heat_capacity:      23.9116073
  energy:             15.8222669

- temperature:       670.0000000
  free_energy:       -36.5718134
  entropy:            78.5570164
  heat_capacity:      23.9125173
  energy:             16.0613876

- temperature:       680.0000000
  free_energy:       -37.3591593
  entropy:            78.9112889
  heat_capacity:      23.9133876
  energy:             16.3005171

- temperature:       690.0000000
  free_energy:       -38.1500220
  entropy:            79.2604017
  heat_capacity:      23.9142203
  energy:             16.5396552

- temperature:       700.0000000
  free_energy:       -38.9443507
  entropy:            79.6045029
  heat_capacity:      23.9150176
  energy:             16.7788014

- temperature:       710.0000000
  free_energy:       -39.7420958
  entropy:            79.9437342
  heat_capacity:      23.9157816
  energy:             17.0179554

- temperature:       720.0000000
  free_energy:       -40.5432096
  entropy:            80.2782312
  heat_capacity:      23.9165140
  energy:             17.2571169

- temperature:       730.0000000
  free_energy:       -41.3476451
  entropy:            80.6081243
  heat_capacity:      23.9172165
  energy:             17.4962856

- temperature:       740.0000000
  free_energy:       -42.1553571
  entropy:            80.9335382
  heat_capacity:      23.9178908
  energy:             17.7354612

- temperature:       750.0000000
  free_energy:       -42.9663014
  entropy:            81.2545929
  heat_capacity:      23.9185383
  energy:             17.9746433

- temperature:       760.0000000
  free_energy:       -43.7804348
  entropy:            81.5714035
  heat_capacity:      23.9191604
  energy:             18.2138318

- temperature:       770.0000000
  free_energy:       -44.5977157
  entropy:            81.8840807
  heat_capacity:      23.9197585
  energy:             18.4530265

- temperature:       780.0000000
  free_energy:       -45.4181030
  entropy:            82.1927307
  heat_capacity:      23.9203338
  energy:             18.6922269

- temperature:       790.0000000
  free_energy:       -46.2415572
  entropy:            82.4974560
  heat_capacity:      23.9208874
  energy:             18.9314331

- temperature:       800.0000000
  free_energy:       -47.0680394
  entropy:            82.7983550
  heat_capacity:      23.9214204
  energy:             19.1706446

- temperature:       810.0000000
  free_energy:       -47.8975118
  entropy:            83.0955225
  heat_capacity:      23.9219338
  energy:             19.4098614

- temperature:       820.0000000
  free_energy:       -48.7299377
  entropy:            83.3890499
  heat_capacity:      23.9224285
  energy:             19.6490832

- temperature:       830.0000000
  free_energy:       -49.5652810
  entropy:            83.6790252
  heat_capacity:      23.9229055
  energy:             19.8883099

- temperature:       840.0000000
  free_energy:       -50.4035067
  entropy:            83.9655333
  heat_capacity:      23.9233655
  energy:             20.1275413

- temperature:       850.0000000
  free_energy:       -51.2445804
  entropy:            84.2486559
  heat_capacity:      23.9238095
  energy:             20.3667772

- temperature:       860.0000000
  free_energy:       -52.0884687
  entropy:            84.5284723
  heat_capacity:      23.9242380
  energy:             20.6060174

- temperature:       870.0000000
  free_energy:       -52.9351391
  entropy:            84.8050586
  heat_capacity:      23.9246519
  energy:             20.8452619

- temperature:       880.0000000
  free_energy:       -53.7845594
  entropy:            85.0784884
  heat_capacity:      23.9250517
  energy:             21.0845104

- temperature:       890.0000000
  free_energy:       -54.6366985
  entropy:            85.3488331
  heat_capacity:      23.9254382
  energy:             21.3237629

- temperature:       900.0000000
  free_energy:       -55.4915260
  entropy:            85.6161613
  heat_capacity:      23.9258119
  energy:             21.5630191

- temperature:       910.0000000
  free_energy:       -56.3490119
  entropy:            85.8805396
  heat_capacity:      23.9261733
  energy:             21.8022791

- temperature:       920.0000000
  free_energy:       -57.2091272
  entropy:            86.1420323
  heat_capacity:      23.9265230
  energy:             22.0415426

- temperature:       930.0000000
  free_energy:       -58.0718432
  entropy:            86.4007018
  heat_capacity:      23.9268615
  energy:             22.2808095

- temperature:       940.0000000
  free_energy:       -58.9371320
  entropy:            86.6566083
  heat_capacity:      23.9271893
  energy:             22.5200798

- temperature:       950.0000000
  free_energy:       -59.8049663
  entropy:            86.9098101
  heat_capacity:      23.9275067
  energy:             22.7593532

- temperature:       960.0000000
  free_energy:       -60.6753194
  entropy:            87.1603638
  heat_capacity:      23.9278143
  energy:             22.9986299

- temperature:       970.0000000
  free_energy:       -61.5481650
  entropy:            87.4083242
  heat_capacity:      23.9281125
  energy:             23.2379095

- temperature:       980.0000000
  free_energy:       -62.4234774
  entropy:            87.6537444
  heat_capacity:      23.9284016
  energy:             23.4771921

- temperature:       990.0000000
  free_energy:       -63.3012315
  entropy:            87.8966758
  heat_capacity:      23.9286819
  energy:             23.7164775

- temperature:      1000.0000000
  free_energy:       -64.1814028
  entropy:            88.1371685
  heat_capacity:      23.9289540
  energy:             23.9557657
