# Tetrahedron method
       -1.1529798241        0.0000000000
       -1.1298687579        0.0000000000
       -1.1067576916        0.0000000000
       -1.0836466253        0.0000000000
       -1.0605355590        0.0000000000
       -1.0374244927        0.0000000000
       -1.0143134265        0.0000000000
       -0.9912023602        0.0000000000
       -0.9680912939        0.0000000000
       -0.9449802276        0.0000000000
       -0.9218691613        0.0000000000
       -0.8987580950        0.0000000000
       -0.8756470288        0.0000000000
       -0.8525359625        0.0000000000
       -0.8294248962        0.0000000000
       -0.8063138299        0.0000000000
       -0.7832027636        0.0000000000
       -0.7600916973        0.0180022363
       -0.7369806311        0.0814518621
       -0.7138695648        0.1209296746
       -0.6907584985        0.1577054696
       -0.6676474322        0.1737317233
       -0.6445363659        0.1844641960
       -0.6214252997        0.1893122111
       -0.5983142334        0.1965497718
       -0.5752031671        0.2015377944
       -0.5520921008        0.2069848517
       -0.5289810345        0.2216896841
       -0.5058699682        0.2434119129
       -0.4827589020        0.2362231561
       -0.4596478357        0.2272688562
       -0.4365367694        0.2183378996
       -0.4134257031        0.2066647121
       -0.3903146368        0.1922390292
       -0.3672035705        0.1796141995
       -0.3440925043        0.1689811715
       -0.3209814380        0.1585419884
       -0.2978703717        0.1479231342
       -0.2747593054        0.1369138021
       -0.2516482391        0.1279755602
       -0.2285371729        0.1197499868
       -0.2054261066        0.1137870689
       -0.1823150403        0.1094542753
       -0.1592039740        0.1063093996
       -0.1360929077        0.1035712652
       -0.1129818414        0.1021845982
       -0.0898707752        0.1022158648
       -0.0667597089        0.1027436608
       -0.0436486426        0.1036064599
       -0.0205375763        0.1046872637
        0.0025734900        0.1059363006
        0.0256845562        0.1074704344
        0.0487956225        0.1092254459
        0.0719066888        0.1111165419
        0.0950177551        0.1133133317
        0.1181288214        0.1163859236
        0.1412398877        0.1195703175
        0.1643509539        0.1233358460
        0.1874620202        0.1284019510
        0.2105730865        0.1353760740
        0.2336841528        0.1445421098
        0.2567952191        0.1570079648
        0.2799062854        0.1730036809
        0.3030173516        0.1901096343
        0.3261284179        0.2113647081
        0.3492394842        0.2378022394
        0.3723505505        0.2638007815
        0.3954616168        0.2901895618
        0.4185726830        0.3220624305
        0.4416837493        0.3553569565
        0.4647948156        0.3869197712
        0.4879058819        0.4212163536
        0.5110169482        0.4589233467
        0.5341280145        0.5016843830
        0.5572390807        0.5529290898
        0.5803501470        0.6116622333
        0.6034612133        0.7202650023
        0.6265722796        0.7892962527
        0.6496833459        0.8183918841
        0.6727944122        0.8636811766
        0.6959054784        0.8990787869
        0.7190165447        0.9451595518
        0.7421276110        0.9931695378
        0.7652386773        1.0426879438
        0.7883497436        1.0991412432
        0.8114608098        1.1706130875
        0.8345718761        1.2985048516
        0.8576829424        1.3357777213
        0.8807940087        1.3427655453
        0.9039050750        1.3521570469
        0.9270161413        1.3579195254
        0.9501272075        1.3710066231
        0.9732382738        1.3935042399
        0.9963493401        1.4208887084
        1.0194604064        1.4630616397
        1.0425714727        1.5103818889
        1.0656825390        1.5528349400
        1.0887936052        1.6252392672
        1.1119046715        1.6564592571
        1.1350157378        1.7802660434
        1.1581268041        1.7908430628
        1.1812378704        1.7405488639
        1.2043489366        1.6542997258
        1.2274600029        1.6594836841
        1.2505710692        1.6033700394
        1.2736821355        1.5609879858
        1.2967932018        1.5150173002
        1.3199042681        1.4798350558
        1.3430153343        1.4492244452
        1.3661264006        1.4199158566
        1.3892374669        1.4032697902
        1.4123485332        1.3798935616
        1.4354595995        1.3584507430
        1.4585706658        1.3403554802
        1.4816817320        1.3260662830
        1.5047927983        1.3091800330
        1.5279038646        1.3021563852
        1.5510149309        1.2927355298
        1.5741259972        1.2811064678
        1.5972370634        1.2715312761
        1.6203481297        1.2661287228
        1.6434591960        1.2625457137
        1.6665702623        1.2561501389
        1.6896813286        1.2512594243
        1.7127923949        1.2581587670
        1.7359034611        1.2491202299
        1.7590145274        1.2208221533
        1.7821255937        1.2128148016
        1.8052366600        1.2159948762
        1.8283477263        1.2194648671
        1.8514587926        1.2128800056
        1.8745698588        1.2332788140
        1.8976809251        1.2349982784
        1.9207919914        1.2795124921
        1.9439030577        1.2985474958
        1.9670141240        1.3985884528
        1.9901251902        1.2791711129
        2.0132362565        1.2718184850
        2.0363473228        1.2933329167
        2.0594583891        1.2990088191
        2.0825694554        1.3019313825
        2.1056805217        1.3227074139
        2.1287915879        1.3320248109
        2.1519026542        1.3485203264
        2.1750137205        1.3142386424
        2.1981247868        1.2902288310
        2.2212358531        1.2855812952
        2.2443469194        1.2820610281
        2.2674579856        1.2894567393
        2.2905690519        1.2876865318
        2.3136801182        1.2883502340
        2.3367911845        1.2936403721
        2.3599022508        1.2993131243
        2.3830133170        1.3080659851
        2.4061243833        1.3074206047
        2.4292354496        1.3358347248
        2.4523465159        1.3692780439
        2.4754575822        1.4221724897
        2.4985686485        1.3864966109
        2.5216797147        1.3251363827
        2.5447907810        1.3047941219
        2.5679018473        1.0413667499
        2.5910129136        0.7589700579
        2.6141239799        0.6216825327
        2.6372350461        0.5128391749
        2.6603461124        0.4028051886
        2.6834571787        0.2816113887
        2.7065682450        0.2684887129
        2.7296793113        0.2547075185
        2.7527903776        0.2422729080
        2.7759014438        0.2293563219
        2.7990125101        0.2169604843
        2.8221235764        0.2055073953
        2.8452346427        0.1916653820
        2.8683457090        0.1795016095
        2.8914567753        0.1684797175
        2.9145678415        0.1532602028
        2.9376789078        0.1417895762
        2.9607899741        0.1274126272
        2.9839010404        0.1128683403
        3.0070121067        0.0958329442
        3.0301231729        0.0789377771
        3.0532342392        0.0566659407
        3.0763453055        0.0188573269
        3.0994563718        0.0000000000
        3.1225674381        0.0000000000
        3.1456785044        0.0000000000
        3.1687895706        0.0000000000
        3.1919006369        0.0000000000
        3.2150117032        0.0000000000
        3.2381227695        0.0000000000
        3.2612338358        0.0000000000
        3.2843449021        0.0000000000
        3.3074559683        0.0000000000
        3.3305670346        0.0000000000
        3.3536781009        0.0000000000
        3.3767891672        0.0000000000
        3.3999002335        0.0000000000
        3.4230112997        0.0000000000
        3.4461223660        0.0000000000
        3.4692334323        0.0000000000
