phonopy:
  version: "2.37.1"
  frequency_unit_conversion_factor: 15.633302
  symmetry_tolerance: 1.00000e-05

space_group:
  type: "P1"
  number: 1
  Hall_symbol: "P 1"

primitive_matrix:
- [ -1.000000000000000, -1.000000000000000,  0.000000000000000 ]
- [  0.000000000000000, -1.000000000000000,  0.000000000000000 ]
- [  0.000000000000000,  0.000000000000000,  1.000000000000000 ]

supercell_matrix:
- [   2,   0,   0 ]
- [   0,   2,   0 ]
- [   0,   0,   1 ]

primitive_cell:
  lattice:
  - [    -5.657719415197722,     0.000000000000000,     0.000000000000000 ] # a
  - [    -2.828661186741081,    -4.899938001142307,     0.000000000000000 ] # b
  - [    -0.002874389370313,     0.001649102635206,    12.446275768420168 ] # c
  points:
  - symbol: Sn # 1
    coordinates: [  0.560014335097242,  0.149783990433172,  0.592272451185296 ]
    mass: 118.710000
  - symbol: Sn # 2
    coordinates: [  0.225327353447044,  0.817873575034410,  0.592218139349025 ]
    mass: 118.710000
  - symbol: Sn # 3
    coordinates: [  0.886932802933430,  0.488569269771100,  0.092732172052574 ]
    mass: 118.710000
  - symbol: Sn # 4
    coordinates: [  0.556205270445454,  0.152603916588629,  0.842705288536347 ]
    mass: 118.710000
  - symbol: Sn # 5
    coordinates: [  0.555316685705635,  0.155022463224835,  0.090954878487423 ]
    mass: 118.710000
  - symbol: Sn # 6
    coordinates: [  0.891703912830917,  0.485789200631007,  0.592755933533204 ]
    mass: 118.710000
  - symbol: Sn # 7
    coordinates: [  0.219379205664411,  0.822631709647331,  0.091840259560534 ]
    mass: 118.710000
  - symbol: Sn # 8
    coordinates: [  0.557105237920657,  0.154331056267563,  0.341940737761966 ]
    mass: 118.710000
  - symbol: Sn # 9
    coordinates: [  0.891776328450139,  0.485256444065115,  0.842002126419580 ]
    mass: 118.710000
  - symbol: Sn # 10
    coordinates: [  0.223021996741579,  0.820227142421795,  0.341967493899913 ]
    mass: 118.710000
  - symbol: Sn # 11
    coordinates: [  0.891885059542166,  0.486633033904319,  0.342039897368313 ]
    mass: 118.710000
  - symbol: Sn # 12
    coordinates: [  0.222924558823758,  0.820105316282774,  0.842039729440915 ]
    mass: 118.710000
  reciprocal_lattice: # without 2pi
  - [    -0.176749663002695,     0.102034946439880,    -0.000054338620177 ] # a*
  - [    -0.000000000000000,    -0.204084214895550,     0.000027040684527 ] # b*
  - [    -0.000000000000000,    -0.000000000000000,     0.080345319242989 ] # c*

unit_cell:
  lattice:
  - [     5.657719415197722,     0.000000000000000,     0.000000000000000 ] # a
  - [    -2.829058228456641,     4.899938001142307,     0.000000000000000 ] # b
  - [    -0.002874389370313,     0.001649102635206,    12.446275768420168 ] # c
  points:
  - symbol: Sn # 1
    coordinates: [  0.290201674469586,  0.850216009566828,  0.592272451185296 ]
    mass: 118.710000
    reduced_to: 1
  - symbol: Sn # 2
    coordinates: [  0.956799071518545,  0.182126424965590,  0.592218139349025 ]
    mass: 118.710000
    reduced_to: 2
  - symbol: Sn # 3
    coordinates: [  0.624497927295470,  0.511430730228900,  0.092732172052574 ]
    mass: 118.710000
    reduced_to: 3
  - symbol: Sn # 4
    coordinates: [  0.291190812965917,  0.847396083411371,  0.842705288536347 ]
    mass: 118.710000
    reduced_to: 4
  - symbol: Sn # 5
    coordinates: [  0.289660851069530,  0.844977536775165,  0.090954878487423 ]
    mass: 118.710000
    reduced_to: 5
  - symbol: Sn # 6
    coordinates: [  0.622506886538076,  0.514210799368993,  0.592755933533204 ]
    mass: 118.710000
    reduced_to: 6
  - symbol: Sn # 7
    coordinates: [  0.957989084688258,  0.177368290352669,  0.091840259560534 ]
    mass: 118.710000
    reduced_to: 7
  - symbol: Sn # 8
    coordinates: [  0.288563705811780,  0.845668943732437,  0.341940737761966 ]
    mass: 118.710000
    reduced_to: 8
  - symbol: Sn # 9
    coordinates: [  0.622967227484747,  0.514743555934885,  0.842002126419580 ]
    mass: 118.710000
    reduced_to: 9
  - symbol: Sn # 10
    coordinates: [  0.956750860836626,  0.179772857578205,  0.341967493899913 ]
    mass: 118.710000
    reduced_to: 10
  - symbol: Sn # 11
    coordinates: [  0.621481906553516,  0.513366966095681,  0.342039897368313 ]
    mass: 118.710000
    reduced_to: 11
  - symbol: Sn # 12
    coordinates: [  0.956970124893467,  0.179894683717226,  0.842039729440915 ]
    mass: 118.710000
    reduced_to: 12

supercell:
  lattice:
  - [    11.315438830395443,     0.000000000000000,     0.000000000000000 ] # a
  - [    -5.658116456913282,     9.799876002284615,     0.000000000000000 ] # b
  - [    -0.002874389370313,     0.001649102635206,    12.446275768420168 ] # c
  points:
  - symbol: Sn # 1
    coordinates: [  0.145100837234793,  0.425108004783414,  0.592272451185296 ]
    mass: 118.710000
    reduced_to: 1
  - symbol: Sn # 2
    coordinates: [  0.645100837234793,  0.425108004783414,  0.592272451185296 ]
    mass: 118.710000
    reduced_to: 1
  - symbol: Sn # 3
    coordinates: [  0.145100837234793,  0.925108004783414,  0.592272451185296 ]
    mass: 118.710000
    reduced_to: 1
  - symbol: Sn # 4
    coordinates: [  0.645100837234793,  0.925108004783414,  0.592272451185296 ]
    mass: 118.710000
    reduced_to: 1
  - symbol: Sn # 5
    coordinates: [  0.478399535759273,  0.091063212482795,  0.592218139349025 ]
    mass: 118.710000
    reduced_to: 5
  - symbol: Sn # 6
    coordinates: [  0.978399535759273,  0.091063212482795,  0.592218139349025 ]
    mass: 118.710000
    reduced_to: 5
  - symbol: Sn # 7
    coordinates: [  0.478399535759273,  0.591063212482795,  0.592218139349025 ]
    mass: 118.710000
    reduced_to: 5
  - symbol: Sn # 8
    coordinates: [  0.978399535759273,  0.591063212482795,  0.592218139349025 ]
    mass: 118.710000
    reduced_to: 5
  - symbol: Sn # 9
    coordinates: [  0.312248963647735,  0.255715365114450,  0.092732172052574 ]
    mass: 118.710000
    reduced_to: 9
  - symbol: Sn # 10
    coordinates: [  0.812248963647735,  0.255715365114450,  0.092732172052574 ]
    mass: 118.710000
    reduced_to: 9
  - symbol: Sn # 11
    coordinates: [  0.312248963647735,  0.755715365114450,  0.092732172052574 ]
    mass: 118.710000
    reduced_to: 9
  - symbol: Sn # 12
    coordinates: [  0.812248963647735,  0.755715365114450,  0.092732172052574 ]
    mass: 118.710000
    reduced_to: 9
  - symbol: Sn # 13
    coordinates: [  0.145595406482959,  0.423698041705686,  0.842705288536347 ]
    mass: 118.710000
    reduced_to: 13
  - symbol: Sn # 14
    coordinates: [  0.645595406482959,  0.423698041705686,  0.842705288536347 ]
    mass: 118.710000
    reduced_to: 13
  - symbol: Sn # 15
    coordinates: [  0.145595406482959,  0.923698041705686,  0.842705288536347 ]
    mass: 118.710000
    reduced_to: 13
  - symbol: Sn # 16
    coordinates: [  0.645595406482959,  0.923698041705686,  0.842705288536347 ]
    mass: 118.710000
    reduced_to: 13
  - symbol: Sn # 17
    coordinates: [  0.144830425534765,  0.422488768387582,  0.090954878487423 ]
    mass: 118.710000
    reduced_to: 17
  - symbol: Sn # 18
    coordinates: [  0.644830425534765,  0.422488768387582,  0.090954878487423 ]
    mass: 118.710000
    reduced_to: 17
  - symbol: Sn # 19
    coordinates: [  0.144830425534765,  0.922488768387582,  0.090954878487423 ]
    mass: 118.710000
    reduced_to: 17
  - symbol: Sn # 20
    coordinates: [  0.644830425534765,  0.922488768387582,  0.090954878487423 ]
    mass: 118.710000
    reduced_to: 17
  - symbol: Sn # 21
    coordinates: [  0.311253443269038,  0.257105399684496,  0.592755933533204 ]
    mass: 118.710000
    reduced_to: 21
  - symbol: Sn # 22
    coordinates: [  0.811253443269038,  0.257105399684496,  0.592755933533204 ]
    mass: 118.710000
    reduced_to: 21
  - symbol: Sn # 23
    coordinates: [  0.311253443269038,  0.757105399684496,  0.592755933533204 ]
    mass: 118.710000
    reduced_to: 21
  - symbol: Sn # 24
    coordinates: [  0.811253443269038,  0.757105399684496,  0.592755933533204 ]
    mass: 118.710000
    reduced_to: 21
  - symbol: Sn # 25
    coordinates: [  0.478994542344129,  0.088684145176335,  0.091840259560534 ]
    mass: 118.710000
    reduced_to: 25
  - symbol: Sn # 26
    coordinates: [  0.978994542344129,  0.088684145176335,  0.091840259560534 ]
    mass: 118.710000
    reduced_to: 25
  - symbol: Sn # 27
    coordinates: [  0.478994542344129,  0.588684145176335,  0.091840259560534 ]
    mass: 118.710000
    reduced_to: 25
  - symbol: Sn # 28
    coordinates: [  0.978994542344129,  0.588684145176335,  0.091840259560534 ]
    mass: 118.710000
    reduced_to: 25
  - symbol: Sn # 29
    coordinates: [  0.144281852905890,  0.422834471866218,  0.341940737761966 ]
    mass: 118.710000
    reduced_to: 29
  - symbol: Sn # 30
    coordinates: [  0.644281852905890,  0.422834471866218,  0.341940737761966 ]
    mass: 118.710000
    reduced_to: 29
  - symbol: Sn # 31
    coordinates: [  0.144281852905890,  0.922834471866218,  0.341940737761966 ]
    mass: 118.710000
    reduced_to: 29
  - symbol: Sn # 32
    coordinates: [  0.644281852905890,  0.922834471866218,  0.341940737761966 ]
    mass: 118.710000
    reduced_to: 29
  - symbol: Sn # 33
    coordinates: [  0.311483613742373,  0.257371777967443,  0.842002126419580 ]
    mass: 118.710000
    reduced_to: 33
  - symbol: Sn # 34
    coordinates: [  0.811483613742373,  0.257371777967443,  0.842002126419580 ]
    mass: 118.710000
    reduced_to: 33
  - symbol: Sn # 35
    coordinates: [  0.311483613742373,  0.757371777967443,  0.842002126419580 ]
    mass: 118.710000
    reduced_to: 33
  - symbol: Sn # 36
    coordinates: [  0.811483613742373,  0.757371777967443,  0.842002126419580 ]
    mass: 118.710000
    reduced_to: 33
  - symbol: Sn # 37
    coordinates: [  0.478375430418313,  0.089886428789103,  0.341967493899913 ]
    mass: 118.710000
    reduced_to: 37
  - symbol: Sn # 38
    coordinates: [  0.978375430418313,  0.089886428789103,  0.341967493899913 ]
    mass: 118.710000
    reduced_to: 37
  - symbol: Sn # 39
    coordinates: [  0.478375430418313,  0.589886428789102,  0.341967493899913 ]
    mass: 118.710000
    reduced_to: 37
  - symbol: Sn # 40
    coordinates: [  0.978375430418313,  0.589886428789102,  0.341967493899913 ]
    mass: 118.710000
    reduced_to: 37
  - symbol: Sn # 41
    coordinates: [  0.310740953276758,  0.256683483047841,  0.342039897368313 ]
    mass: 118.710000
    reduced_to: 41
  - symbol: Sn # 42
    coordinates: [  0.810740953276758,  0.256683483047841,  0.342039897368313 ]
    mass: 118.710000
    reduced_to: 41
  - symbol: Sn # 43
    coordinates: [  0.310740953276758,  0.756683483047841,  0.342039897368313 ]
    mass: 118.710000
    reduced_to: 41
  - symbol: Sn # 44
    coordinates: [  0.810740953276758,  0.756683483047841,  0.342039897368313 ]
    mass: 118.710000
    reduced_to: 41
  - symbol: Sn # 45
    coordinates: [  0.478485062446734,  0.089947341858613,  0.842039729440915 ]
    mass: 118.710000
    reduced_to: 45
  - symbol: Sn # 46
    coordinates: [  0.978485062446734,  0.089947341858613,  0.842039729440915 ]
    mass: 118.710000
    reduced_to: 45
  - symbol: Sn # 47
    coordinates: [  0.478485062446734,  0.589947341858613,  0.842039729440915 ]
    mass: 118.710000
    reduced_to: 45
  - symbol: Sn # 48
    coordinates: [  0.978485062446734,  0.589947341858613,  0.842039729440915 ]
    mass: 118.710000
    reduced_to: 45

displacements:
- atom:    1
  displacement:
    [   0.0100000000000000,  0.0000000000000000,  0.0000000000000000 ]
  forces:
  - [  -0.0121328514069319, -0.0180298704653978, -0.0062200780957937 ]
  - [   0.0072852764278650, -0.0180782936513424, -0.0062001058831811 ]
  - [   0.0049780444242060, -0.0194271598011255, -0.0062009333632886 ]
  - [   0.0049738194793463, -0.0167337693274021, -0.0061980392783880 ]
  - [  -0.0013498060870916, -0.0021472261287272, -0.0050322148017585 ]
  - [  -0.0043495884165168, -0.0021503542084247, -0.0050327521748841 ]
  - [  -0.0002775701286737,  0.0002142331795767, -0.0050356416031718 ]
  - [  -0.0003236836637370, -0.0044357432052493, -0.0050278692506254 ]
  - [  -0.0076420833356678,  0.0009511965326965, -0.0222003310918808 ]
  - [  -0.0076432451605797,  0.0009502375032753, -0.0222069770097733 ]
  - [  -0.0076390048488975,  0.0009507590439171, -0.0222009588032961 ]
  - [  -0.0076444605365396,  0.0009515463607386, -0.0222016721963882 ]
  - [  -0.0088903466239572, -0.0016697618411854, -0.0323202274739742 ]
  - [  -0.0094750989228487, -0.0016649055760354, -0.0323397070169449 ]
  - [  -0.0092702871188521, -0.0015519820153713, -0.0323345288634300 ]
  - [  -0.0092688947916031, -0.0017843600362539, -0.0323421545326710 ]
  - [   0.0121776228770614, -0.0011231169337407,  0.0450682714581490 ]
  - [   0.0121841672807932, -0.0011241344036534,  0.0450548455119133 ]
  - [   0.0121858492493629, -0.0011200000299141,  0.0450538285076618 ]
  - [   0.0121853165328503, -0.0011244337074459,  0.0450559221208096 ]
  - [   0.0048895021900535,  0.0092218238860369, -0.0183877423405647 ]
  - [   0.0047836247831583,  0.0136511418968439, -0.0184812471270561 ]
  - [   0.0009245669934899,  0.0114836264401674, -0.0184365268796682 ]
  - [   0.0040318779647350,  0.0114937741309404, -0.0184366144239902 ]
  - [  -0.0151808885857463,  0.0094710215926170,  0.0058008115738630 ]
  - [  -0.0151774631813169,  0.0094721913337708,  0.0058012586086988 ]
  - [  -0.0151783972978592,  0.0094691878184676,  0.0058012465015054 ]
  - [  -0.0151814920827746,  0.0094712022691965,  0.0057984883897007 ]
  - [   0.0034522002097219,  0.0069758724421263, -0.0005309174302965 ]
  - [   0.0028131513390690,  0.0069827390834689, -0.0005214663688093 ]
  - [   0.0030104643665254,  0.0070954710245132, -0.0005258717574179 ]
  - [   0.0030173116829246,  0.0068637635558844, -0.0005188565701246 ]
  - [   0.0145088527351618, -0.0088035864755511,  0.0173856988549232 ]
  - [   0.0145243424922228, -0.0085777202621102,  0.0172212049365044 ]
  - [   0.0143113853409886, -0.0086922608315945,  0.0173056162893772 ]
  - [   0.0141002666205168, -0.0086897844448686,  0.0173052102327347 ]
  - [  -0.0122854188084602, -0.0012115304125473,  0.0020208023488522 ]
  - [  -0.0120690725743771, -0.0012088341172785,  0.0020208694040775 ]
  - [  -0.0118732871487737, -0.0010972633026540,  0.0019628824666142 ]
  - [  -0.0118746943771839, -0.0013306497130543,  0.0020997438114136 ]
  - [   0.0149112083017826, -0.0038571278564632,  0.0131253004074097 ]
  - [   0.0149161936715245, -0.0036397976800799,  0.0133325401693583 ]
  - [   0.0147204529494047, -0.0037454194389284,  0.0132298804819584 ]
  - [   0.0145095409825444, -0.0037457803264260,  0.0132287610322237 ]
  - [  -0.0039278268814087,  0.0077712927013636,  0.0013192549813539 ]
  - [  -0.0037194481119514,  0.0077768955379725,  0.0013198512606323 ]
  - [  -0.0035135354846716,  0.0078939879313111,  0.0013754698447883 ]
  - [  -0.0035065882839262,  0.0076529006473720,  0.0012456822441891 ]
- atom:    1
  displacement:
    [  -0.0100000000000000,  0.0000000000000000,  0.0000000000000000 ]
  forces:
  - [   0.0226668454706669, -0.0181286409497261, -0.0061749583110213 ]
  - [   0.0032483024988323, -0.0180758293718100, -0.0061977989971638 ]
  - [   0.0055557806044817, -0.0167274922132492, -0.0061975470744073 ]
  - [   0.0055609392002225, -0.0194216258823872, -0.0062014949508011 ]
  - [  -0.0051396889612079, -0.0021689925342798, -0.0050327233038843 ]
  - [  -0.0021345312707126, -0.0021694621536881, -0.0050337025895715 ]
  - [  -0.0060290596447885, -0.0043566878885031, -0.0050293290987611 ]
  - [  -0.0063497014343739,  0.0003007252817042, -0.0050368113443255 ]
  - [  -0.0076442309655249,  0.0009504326153547, -0.0222039762884378 ]
  - [  -0.0076405825093389,  0.0009528589434922, -0.0221982859075069 ]
  - [  -0.0076431706547737,  0.0009496929123998, -0.0221999194473028 ]
  - [  -0.0076400595717132,  0.0009507720824331, -0.0222017802298069 ]
  - [  -0.0096518658101559, -0.0016647218726575, -0.0324190258979797 ]
  - [  -0.0090669048950076, -0.0016688626492396, -0.0323422700166702 ]
  - [  -0.0092665748670697, -0.0017839625943452, -0.0323420986533165 ]
  - [  -0.0092724096029997, -0.0015536481514573, -0.0323358401656151 ]
  - [   0.0121954679489136, -0.0011225094785914,  0.0450388528406620 ]
  - [   0.0121904015541077, -0.0011236475547776,  0.0450529754161835 ]
  - [   0.0121847093105316, -0.0011232108809054,  0.0450557954609394 ]
  - [   0.0121863372623920, -0.0011218491708860,  0.0450539626181126 ]
  - [  -0.0005743275396526,  0.0136022362858057, -0.0184799917042255 ]
  - [  -0.0008176397532225,  0.0091716451570392, -0.0183867961168289 ]
  - [   0.0032146447338164,  0.0115144299343228, -0.0184381976723671 ]
  - [   0.0001089123543352,  0.0115045774728060, -0.0184367205947638 ]
  - [  -0.0151796294376254,  0.0094722071662545,  0.0058011128567159 ]
  - [  -0.0151788219809532,  0.0094716697931290,  0.0058021582663059 ]
  - [  -0.0151816485449672,  0.0094723468646407,  0.0058004036545753 ]
  - [  -0.0151780880987644,  0.0094667598605156,  0.0058028437197208 ]
  - [   0.0025765548925847,  0.0069835092872381, -0.0004496544133872 ]
  - [   0.0032147634774446,  0.0069768158718944, -0.0005168626084924 ]
  - [   0.0030150148086250,  0.0068635027855635, -0.0005195327103138 ]
  - [   0.0030126711353660,  0.0070943487808108, -0.0005242049228400 ]
  - [   0.0138950143009424, -0.0085773849859834,  0.0171992294490337 ]
  - [   0.0138845881447196, -0.0088027045130730,  0.0173604805022478 ]
  - [   0.0140939019620419, -0.0086951497942209,  0.0173001587390900 ]
  - [   0.0143008902668953, -0.0086905825883150,  0.0173015184700489 ]
  - [  -0.0120849125087261, -0.0012093260884285,  0.0020179990679026 ]
  - [  -0.0122997835278511, -0.0012058381689712,  0.0020228426437825 ]
  - [  -0.0125022334977984, -0.0013275381643325,  0.0021016504615545 ]
  - [  -0.0124883428215981, -0.0010951049625874,  0.0019699367694557 ]
  - [   0.0143086127936840, -0.0036346111446619,  0.0133568514138460 ]
  - [   0.0143038099631667, -0.0038532679900527,  0.0131495352834463 ]
  - [   0.0144995860755444, -0.0037539456970990,  0.0132345054298639 ]
  - [   0.0147136300802231, -0.0037438881117851,  0.0132336402311921 ]
  - [  -0.0037331217899919,  0.0077746575698256,  0.0013222253182903 ]
  - [  -0.0039402721449733,  0.0077765798196197,  0.0013173883780837 ]
  - [  -0.0041503505781293,  0.0076568685472012,  0.0012395509984344 ]
  - [  -0.0041434201411903,  0.0078938454389572,  0.0013638974633068 ]
- atom:    1
  displacement:
    [  -0.0050001030013510,  0.0086601945691699,  0.0000000000000000 ]
  forces:
  - [   0.0140121467411518, -0.0333850570023060, -0.0062023671343923 ]
  - [   0.0042561166919768, -0.0190026406198740, -0.0061960387974977 ]
  - [   0.0042422441765666, -0.0162939280271530, -0.0061998534947634 ]
  - [   0.0065779439173639, -0.0176483262330294, -0.0062030018307269 ]
  - [  -0.0041682734154165, -0.0004609979223460, -0.0050325253978372 ]
  - [  -0.0027001746930182,  0.0012204530648887, -0.0050291907973588 ]
  - [  -0.0026213682722300, -0.0030776588246226, -0.0050325253978372 ]
  - [  -0.0069717573933303, -0.0006880036089569, -0.0050365319475532 ]
  - [  -0.0076453634537756,  0.0009515588171780, -0.0222044847905636 ]
  - [  -0.0076403683051467,  0.0009536836296320, -0.0222028456628323 ]
  - [  -0.0076412661001086,  0.0009474791586399, -0.0221984330564737 ]
  - [  -0.0076407007873058,  0.0009505912894383, -0.0222014822065830 ]
  - [  -0.0094638690352440, -0.0013364250771701, -0.0324790924787521 ]
  - [  -0.0091690253466368, -0.0016093231970444, -0.0323396697640419 ]
  - [  -0.0091625303030014, -0.0018447849433869, -0.0323464237153530 ]
  - [  -0.0093737570568919, -0.0017277311999351, -0.0323416292667389 ]
  - [   0.0121904732659459, -0.0011306864907965,  0.0450583994388580 ]
  - [   0.0121884634718299, -0.0011227084323764,  0.0450537055730820 ]
  - [   0.0121865281835198, -0.0011243077460676,  0.0450550988316536 ]
  - [   0.0121849598363042, -0.0011239786399528,  0.0450556315481663 ]
  - [  -0.0010918900370598,  0.0126645630225539, -0.0184786915779114 ]
  - [   0.0025789653882384,  0.0104950983077288, -0.0184353981167078 ]
  - [   0.0026636403053999,  0.0155987059697509, -0.0183864515274763 ]
  - [   0.0010699821868911,  0.0131102940067649, -0.0184373073279858 ]
  - [  -0.0151808969676495,  0.0094693750143051,  0.0058009978383780 ]
  - [  -0.0151799265295267,  0.0094734504818916,  0.0057990793138742 ]
  - [  -0.0151824587956071,  0.0094713838770986,  0.0058007249608636 ]
  - [  -0.0151751236990094,  0.0094685181975365,  0.0058025876060128 ]
  - [   0.0027921092696488,  0.0073634167201817, -0.0003718857187778 ]
  - [   0.0031141426879913,  0.0070372903719544, -0.0005198596045375 ]
  - [   0.0031179562211037,  0.0068020885810256, -0.0005145452450961 ]
  - [   0.0029134755022824,  0.0069211409427226, -0.0005197292193770 ]
  - [   0.0139445671811700, -0.0084757972508669,  0.0171969421207905 ]
  - [   0.0141582190990448, -0.0085866041481495,  0.0172984376549721 ]
  - [   0.0141414823010564, -0.0083626052364707,  0.0173229947686195 ]
  - [   0.0142515106126666, -0.0087774507701397,  0.0173068828880787 ]
  - [  -0.0121361818164587, -0.0013015448348597,  0.0020230831578374 ]
  - [  -0.0122482124716043, -0.0009052094537765,  0.0021391420159489 ]
  - [  -0.0122536206617951, -0.0011182727757841,  0.0020342508796602 ]
  - [  -0.0124273840337992, -0.0009996674489230,  0.0019817857537419 ]
  - [   0.0143632031977177, -0.0035332790575922,  0.0133593827486038 ]
  - [   0.0145640391856432, -0.0036424533464015,  0.0132370572537184 ]
  - [   0.0145479422062635, -0.0034239492379129,  0.0131813101470470 ]
  - [   0.0146620478481054, -0.0038309837691486,  0.0132278185337782 ]
  - [  -0.0037837913259864,  0.0076842266134918,  0.0013172146864235 ]
  - [  -0.0038872028235346,  0.0081012677401304,  0.0011989376507699 ]
  - [  -0.0038950333837420,  0.0078656589612365,  0.0013065766543150 ]
  - [  -0.0040819905698299,  0.0079841315746307,  0.0013519164640456 ]
- atom:    1
  displacement:
    [   0.0050001030013510, -0.0086601945691699,  0.0000000000000000 ]
  forces:
  - [  -0.0034731780178845, -0.0027759433723986, -0.0061942632310092 ]
  - [   0.0062774256803095, -0.0171523820608854, -0.0062016835436225 ]
  - [   0.0062918979674578, -0.0198613926768303, -0.0061989566311240 ]
  - [   0.0039563192985952, -0.0185071658343077, -0.0061969300732017 ]
  - [  -0.0022920956835151, -0.0038039886858314, -0.0050315828993917 ]
  - [  -0.0038139533717185, -0.0057266680523753, -0.0050372760742903 ]
  - [  -0.0038352152332664, -0.0011863637482747, -0.0050327591598034 ]
  - [   0.0002652441326063, -0.0035016355104744, -0.0050287288613617 ]
  - [  -0.0076415501534939,  0.0009492083918303, -0.0221993960440159 ]
  - [  -0.0076429350301623,  0.0009487583301961, -0.0222019553184509 ]
  - [  -0.0076411776244640,  0.0009536251891404, -0.0222021471709013 ]
  - [  -0.0076429909095168,  0.0009528435766697, -0.0222019292414188 ]
  - [  -0.0090784970670938, -0.0019982308149338, -0.0322627425193787 ]
  - [  -0.0093729645013809, -0.0017246094066650, -0.0323398187756538 ]
  - [  -0.0093743475154042, -0.0014910250902176, -0.0323325097560883 ]
  - [  -0.0091669671237469, -0.0016103838570416, -0.0323364436626434 ]
  - [   0.0121828205883503, -0.0011150201316923,  0.0450485497713089 ]
  - [   0.0121857738122344, -0.0011252112453803,  0.0450544357299805 ]
  - [   0.0121840229257941, -0.0011189987417310,  0.0450542978942394 ]
  - [   0.0121868439018726, -0.0011219586012885,  0.0450543351471424 ]
  - [   0.0054378202185035,  0.0102112181484699, -0.0183891523629427 ]
  - [   0.0015300856903195,  0.0124464398249984, -0.0184358507394791 ]
  - [   0.0015079750446603,  0.0076092230156064, -0.0184853188693523 ]
  - [   0.0030409684404731,  0.0098405815660954, -0.0184359382838011 ]
  - [  -0.0151805300265551,  0.0094726234674454,  0.0058008236810565 ]
  - [  -0.0151757989078760,  0.0094702215865254,  0.0058038383722305 ]
  - [  -0.0151788778603077,  0.0094701927155256,  0.0058011636137962 ]
  - [  -0.0151837812736630,  0.0094701182097197,  0.0057989405468106 ]
  - [   0.0032366497907788,  0.0065962914377451, -0.0006080099847168 ]
  - [   0.0029139462858438,  0.0069222403690219, -0.0005211182869971 ]
  - [   0.0029078559018672,  0.0071569951251149, -0.0005282131023705 ]
  - [   0.0031165517866611,  0.0070372596383095, -0.0005232896655798 ]
  - [   0.0144599881023169, -0.0089041106402874,  0.0173879154026508 ]
  - [   0.0142543818801641, -0.0087908646091819,  0.0173058807849884 ]
  - [   0.0142642892897129, -0.0090229362249374,  0.0172549486160278 ]
  - [   0.0141506092622876, -0.0086009027436376,  0.0172999799251556 ]
  - [  -0.0122343301773071, -0.0011200862936676,  0.0020161925349385 ]
  - [  -0.0121217947453260, -0.0015196886379272,  0.0019211131148040 ]
  - [  -0.0121268918737769, -0.0013104681856930,  0.0020101405680180 ]
  - [  -0.0119362659752369, -0.0014275514986366,  0.0020889118313789 ]
  - [   0.0148571189492941, -0.0039572287350893,  0.0131216477602720 ]
  - [   0.0146630341187119, -0.0038465857505798,  0.0132275894284248 ]
  - [   0.0146727617830038, -0.0040747262537479,  0.0133092161267996 ]
  - [   0.0145615525543690, -0.0036577009595931,  0.0132340993732214 ]
  - [  -0.0038778737653047,  0.0078602125868201,  0.0013237766688690 ]
  - [  -0.0037735288497061,  0.0074418755248189,  0.0014212372479960 ]
  - [  -0.0037721071857959,  0.0076827597804368,  0.0013306713663042 ]
  - [  -0.0035682937595993,  0.0075611392967403,  0.0012563187628984 ]
- atom:    1
  displacement:
    [  -0.0000023094372340,  0.0000013249767299,  0.0099999996455468 ]
  forces:
  - [   0.0052358927205205, -0.0180699378252029, -0.0328374393284321 ]
  - [   0.0052649858407676, -0.0180740430951118, -0.0061067799106240 ]
  - [   0.0052649443969131, -0.0180778428912163, -0.0061070360243320 ]
  - [   0.0052690841257572, -0.0180799793452024, -0.0061081536114216 ]
  - [  -0.0032455921173096, -0.0021429057233036, -0.0050413524731994 ]
  - [  -0.0032412186264992, -0.0021258969791234, -0.0045244959183037 ]
  - [  -0.0032596497330815, -0.0021501041483134, -0.0045268968679011 ]
  - [  -0.0032276622951031, -0.0021479676943272, -0.0045310193672776 ]
  - [  -0.0076384367421269,  0.0009490405209363, -0.0224478282034397 ]
  - [  -0.0076444381847978,  0.0009501022286713, -0.0224385689944029 ]
  - [  -0.0076401880942285,  0.0009564368519932, -0.0224298760294914 ]
  - [  -0.0076425159350038,  0.0009513713885099, -0.0222312062978745 ]
  - [  -0.0092085320502520, -0.0016955147730187, -0.0235338583588600 ]
  - [  -0.0092668319121003, -0.0016673115314916, -0.0323384441435337 ]
  - [  -0.0092692840844393, -0.0016687768511474, -0.0323366820812225 ]
  - [  -0.0092691201716661, -0.0016658406239003, -0.0323375016450882 ]
  - [   0.0121713764965534, -0.0011340961791575,  0.0494251511991024 ]
  - [   0.0121859228238463, -0.0011229863157496,  0.0449812710285187 ]
  - [   0.0121852383017540, -0.0011217716382816,  0.0449818857014179 ]
  - [   0.0121858324855566, -0.0011246468639001,  0.0449825376272202 ]
  - [   0.0020530824549496,  0.0114921703934669, -0.0179267264902592 ]
  - [   0.0020849993452430,  0.0114890038967133, -0.0179275013506413 ]
  - [   0.0020703871268779,  0.0114611312747002, -0.0179396700114012 ]
  - [   0.0020697005093098,  0.0114811845123768, -0.0184457264840603 ]
  - [  -0.0151811875402927,  0.0094708846881986,  0.0057712937705219 ]
  - [  -0.0151777444407344,  0.0094646597281098,  0.0055555109865963 ]
  - [  -0.0151725988835096,  0.0094751343131065,  0.0055621238425374 ]
  - [  -0.0151866003870964,  0.0094734234735370,  0.0055730883032084 ]
  - [   0.0030118359718472,  0.0070504709146917,  0.0077030085958540 ]
  - [   0.0030155605636537,  0.0069801919162273, -0.0005216982681304 ]
  - [   0.0030125742778182,  0.0069802403450012, -0.0005238354206085 ]
  - [   0.0030158185400069,  0.0069811660796404, -0.0005225704517215 ]
  - [   0.0142705962061882, -0.0087282815948129,  0.0176075547933578 ]
  - [   0.0140692330896854, -0.0087622152641416,  0.0176120009273291 ]
  - [   0.0141986906528473, -0.0085311941802502,  0.0176087804138660 ]
  - [   0.0142032038420439, -0.0086854314431548,  0.0173026230186224 ]
  - [  -0.0121885566040874, -0.0012077025603503,  0.0020199276041240 ]
  - [  -0.0121984500437975, -0.0011581986909732,  0.0023029521107674 ]
  - [  -0.0122987274080515, -0.0012635325547308,  0.0023256901185960 ]
  - [  -0.0121552171185613, -0.0012304254341871,  0.0023308405652642 ]
  - [   0.0145963383838534, -0.0037283357232809,  0.0135307079181075 ]
  - [   0.0146976253017783, -0.0036988588981330,  0.0135311949998140 ]
  - [   0.0146205313503742, -0.0038399114273489,  0.0135451117530465 ]
  - [   0.0146177001297474, -0.0037431954406202,  0.0132320951670408 ]
  - [  -0.0038225960452110,  0.0077707739546895,  0.0013206237927079 ]
  - [  -0.0038186430465430,  0.0076192542910576,  0.0016213017515838 ]
  - [  -0.0037064787466079,  0.0078309159725904,  0.0016280501149595 ]
  - [  -0.0039108842611313,  0.0078193489462137,  0.0016295512905344 ]
- atom:    1
  displacement:
    [   0.0000023094372340, -0.0000013249767299, -0.0099999996455468 ]
  forces:
  - [   0.0052756578661501, -0.0180315729230642,  0.0204684697091579 ]
  - [   0.0052683423273265, -0.0180794000625610, -0.0062908628024161 ]
  - [   0.0052685020491481, -0.0180764049291611, -0.0062914416193962 ]
  - [   0.0052652619779110, -0.0180744975805283, -0.0062918858602643 ]
  - [  -0.0032428135164082, -0.0021419161930680, -0.0050227032043040 ]
  - [  -0.0032428849954158, -0.0020929675083607, -0.0055422317236662 ]
  - [  -0.0032849526032805, -0.0021639305632561, -0.0055381683632731 ]
  - [  -0.0031953179277480, -0.0021676416508853, -0.0055340351536870 ]
  - [  -0.0076461886055768,  0.0009514037519693, -0.0219563022255898 ]
  - [  -0.0076413503848016,  0.0009514437988400, -0.0219666175544262 ]
  - [  -0.0076415380463004,  0.0009466665796936, -0.0219707172363997 ]
  - [  -0.0076415874063969,  0.0009519016603008, -0.0221722777932882 ]