phonopy:
  version: "2.37.1"
  frequency_unit_conversion_factor: 15.633302
  symmetry_tolerance: 1.00000e-05

space_group:
  type: "P4/mmm"
  number: 123
  Hall_symbol: "-P 4 2"

primitive_matrix:
- [  1.000000000000000,  0.000000000000000,  0.000000000000000 ]
- [  0.000000000000000,  1.000000000000000,  0.000000000000000 ]
- [  0.000000000000000,  0.000000000000000,  1.000000000000000 ]

supercell_matrix:
- [   3,   0,   0 ]
- [   0,   3,   0 ]
- [   0,   0,   3 ]

primitive_cell:
  lattice:
  - [     4.657970430661171,     0.000000000000000,     0.000000000000000 ] # a
  - [    -0.000000012218734,     4.657969019127251,     0.000000000000000 ] # b
  - [     0.000000040782188,     0.000000001415190,     4.625468886543501 ] # c
  points:
  - symbol: Li # 1
    coordinates: [  0.000000001015418,  0.999999999410017,  0.000000000313882 ]
    mass: 6.940000
  - symbol: Sn # 2
    coordinates: [  0.500000000087963,  0.000000000968313,  0.500000000789344 ]
    mass: 118.710000
  - symbol: Sn # 3
    coordinates: [  0.499999999285676,  0.500000000501519,  0.000000000100087 ]
    mass: 118.710000
  - symbol: Sn # 4
    coordinates: [  0.999999999760011,  0.499999999044686,  0.499999998864213 ]
    mass: 118.710000
  reciprocal_lattice: # without 2pi
  - [     0.214685776753215,     0.000000000563161,    -0.000000001892858 ] # a*
  - [     0.000000000000000,     0.214685841810809,    -0.000000000065684 ] # b*
  - [     0.000000000000000,     0.000000000000000,     0.216194298249247 ] # c*

unit_cell:
  lattice:
  - [     4.657970430661171,     0.000000000000000,     0.000000000000000 ] # a
  - [    -0.000000012218734,     4.657969019127250,     0.000000000000000 ] # b
  - [     0.000000040782188,     0.000000001415190,     4.625468886543501 ] # c
  points:
  - symbol: Li # 1
    coordinates: [  0.000000001015418,  0.999999999410017,  0.000000000313882 ]
    mass: 6.940000
    reduced_to: 1
  - symbol: Sn # 2
    coordinates: [  0.500000000087963,  0.000000000968313,  0.500000000789344 ]
    mass: 118.710000
    reduced_to: 2
  - symbol: Sn # 3
    coordinates: [  0.499999999285676,  0.500000000501519,  0.000000000100087 ]
    mass: 118.710000
    reduced_to: 3
  - symbol: Sn # 4
    coordinates: [  0.999999999760011,  0.499999999044686,  0.499999998864213 ]
    mass: 118.710000
    reduced_to: 4

supercell:
  lattice:
  - [    13.973911291983514,     0.000000000000000,     0.000000000000000 ] # a
  - [    -0.000000036656202,    13.973907057381751,     0.000000000000000 ] # b
  - [     0.000000122346565,     0.000000004245570,    13.876406659630501 ] # c
  points:
  - symbol: Li # 1
    coordinates: [  0.000000000338473,  0.333333333136672,  0.000000000104627 ]
    mass: 6.940000
    reduced_to: 1
  - symbol: Li # 2
    coordinates: [  0.333333333671806,  0.333333333136672,  0.000000000104627 ]
    mass: 6.940000
    reduced_to: 1
  - symbol: Li # 3
    coordinates: [  0.666666667005139,  0.333333333136672,  0.000000000104627 ]
    mass: 6.940000
    reduced_to: 1
  - symbol: Li # 4
    coordinates: [  0.000000000338473,  0.666666666470006,  0.000000000104627 ]
    mass: 6.940000
    reduced_to: 1
  - symbol: Li # 5
    coordinates: [  0.333333333671806,  0.666666666470006,  0.000000000104627 ]
    mass: 6.940000
    reduced_to: 1
  - symbol: Li # 6
    coordinates: [  0.666666667005139,  0.666666666470006,  0.000000000104627 ]
    mass: 6.940000
    reduced_to: 1
  - symbol: Li # 7
    coordinates: [  0.000000000338473,  0.999999999803339,  0.000000000104627 ]
    mass: 6.940000
    reduced_to: 1
  - symbol: Li # 8
    coordinates: [  0.333333333671806,  0.999999999803339,  0.000000000104627 ]
    mass: 6.940000
    reduced_to: 1
  - symbol: Li # 9
    coordinates: [  0.666666667005139,  0.999999999803339,  0.000000000104627 ]
    mass: 6.940000
    reduced_to: 1
  - symbol: Li # 10
    coordinates: [  0.000000000338473,  0.333333333136672,  0.333333333437961 ]
    mass: 6.940000
    reduced_to: 1
  - symbol: Li # 11
    coordinates: [  0.333333333671806,  0.333333333136672,  0.333333333437961 ]
    mass: 6.940000
    reduced_to: 1
  - symbol: Li # 12
    coordinates: [  0.666666667005139,  0.333333333136672,  0.333333333437961 ]
    mass: 6.940000
    reduced_to: 1
  - symbol: Li # 13
    coordinates: [  0.000000000338473,  0.666666666470006,  0.333333333437961 ]
    mass: 6.940000
    reduced_to: 1
  - symbol: Li # 14
    coordinates: [  0.333333333671806,  0.666666666470006,  0.333333333437961 ]
    mass: 6.940000
    reduced_to: 1
  - symbol: Li # 15
    coordinates: [  0.666666667005139,  0.666666666470006,  0.333333333437961 ]
    mass: 6.940000
    reduced_to: 1
  - symbol: Li # 16
    coordinates: [  0.000000000338473,  0.999999999803339,  0.333333333437961 ]
    mass: 6.940000
    reduced_to: 1
  - symbol: Li # 17
    coordinates: [  0.333333333671806,  0.999999999803339,  0.333333333437961 ]
    mass: 6.940000
    reduced_to: 1
  - symbol: Li # 18
    coordinates: [  0.666666667005139,  0.999999999803339,  0.333333333437961 ]
    mass: 6.940000
    reduced_to: 1
  - symbol: Li # 19
    coordinates: [  0.000000000338473,  0.333333333136672,  0.666666666771294 ]
    mass: 6.940000
    reduced_to: 1
  - symbol: Li # 20
    coordinates: [  0.333333333671806,  0.333333333136672,  0.666666666771294 ]
    mass: 6.940000
    reduced_to: 1
  - symbol: Li # 21
    coordinates: [  0.666666667005139,  0.333333333136672,  0.666666666771294 ]
    mass: 6.940000
    reduced_to: 1
  - symbol: Li # 22
    coordinates: [  0.000000000338473,  0.666666666470006,  0.666666666771294 ]
    mass: 6.940000
    reduced_to: 1
  - symbol: Li # 23
    coordinates: [  0.333333333671806,  0.666666666470006,  0.666666666771294 ]
    mass: 6.940000
    reduced_to: 1
  - symbol: Li # 24
    coordinates: [  0.666666667005139,  0.666666666470006,  0.666666666771294 ]
    mass: 6.940000
    reduced_to: 1
  - symbol: Li # 25
    coordinates: [  0.000000000338473,  0.999999999803339,  0.666666666771294 ]
    mass: 6.940000
    reduced_to: 1
  - symbol: Li # 26
    coordinates: [  0.333333333671806,  0.999999999803339,  0.666666666771294 ]
    mass: 6.940000
    reduced_to: 1
  - symbol: Li # 27
    coordinates: [  0.666666667005139,  0.999999999803339,  0.666666666771294 ]
    mass: 6.940000
    reduced_to: 1
  - symbol: Sn # 28
    coordinates: [  0.166666666695988,  0.000000000322771,  0.166666666929781 ]
    mass: 118.710000
    reduced_to: 28
  - symbol: Sn # 29
    coordinates: [  0.500000000029321,  0.000000000322771,  0.166666666929781 ]
    mass: 118.710000
    reduced_to: 28
  - symbol: Sn # 30
    coordinates: [  0.833333333362654,  0.000000000322771,  0.166666666929781 ]
    mass: 118.710000
    reduced_to: 28
  - symbol: Sn # 31
    coordinates: [  0.166666666695988,  0.333333333656104,  0.166666666929781 ]
    mass: 118.710000
    reduced_to: 28
  - symbol: Sn # 32
    coordinates: [  0.500000000029321,  0.333333333656104,  0.166666666929781 ]
    mass: 118.710000
    reduced_to: 28
  - symbol: Sn # 33
    coordinates: [  0.833333333362654,  0.333333333656104,  0.166666666929781 ]
    mass: 118.710000
    reduced_to: 28
  - symbol: Sn # 34
    coordinates: [  0.166666666695988,  0.666666666989438,  0.166666666929781 ]
    mass: 118.710000
    reduced_to: 28
  - symbol: Sn # 35
    coordinates: [  0.500000000029321,  0.666666666989438,  0.166666666929781 ]
    mass: 118.710000
    reduced_to: 28
  - symbol: Sn # 36
    coordinates: [  0.833333333362654,  0.666666666989438,  0.166666666929781 ]
    mass: 118.710000
    reduced_to: 28
  - symbol: Sn # 37
    coordinates: [  0.166666666695988,  0.000000000322771,  0.500000000263115 ]
    mass: 118.710000
    reduced_to: 28
  - symbol: Sn # 38
    coordinates: [  0.500000000029321,  0.000000000322771,  0.500000000263115 ]
    mass: 118.710000
    reduced_to: 28
  - symbol: Sn # 39
    coordinates: [  0.833333333362654,  0.000000000322771,  0.500000000263115 ]
    mass: 118.710000
    reduced_to: 28
  - symbol: Sn # 40
    coordinates: [  0.166666666695988,  0.333333333656104,  0.500000000263115 ]
    mass: 118.710000
    reduced_to: 28
  - symbol: Sn # 41
    coordinates: [  0.500000000029321,  0.333333333656104,  0.500000000263115 ]
    mass: 118.710000
    reduced_to: 28
  - symbol: Sn # 42
    coordinates: [  0.833333333362654,  0.333333333656104,  0.500000000263115 ]
    mass: 118.710000
    reduced_to: 28
  - symbol: Sn # 43
    coordinates: [  0.166666666695988,  0.666666666989438,  0.500000000263115 ]
    mass: 118.710000
    reduced_to: 28
  - symbol: Sn # 44
    coordinates: [  0.500000000029321,  0.666666666989438,  0.500000000263115 ]
    mass: 118.710000
    reduced_to: 28
  - symbol: Sn # 45
    coordinates: [  0.833333333362654,  0.666666666989438,  0.500000000263115 ]
    mass: 118.710000
    reduced_to: 28
  - symbol: Sn # 46
    coordinates: [  0.166666666695988,  0.000000000322771,  0.833333333596448 ]
    mass: 118.710000
    reduced_to: 28
  - symbol: Sn # 47
    coordinates: [  0.500000000029321,  0.000000000322771,  0.833333333596448 ]
    mass: 118.710000
    reduced_to: 28
  - symbol: Sn # 48
    coordinates: [  0.833333333362654,  0.000000000322771,  0.833333333596448 ]
    mass: 118.710000
    reduced_to: 28
  - symbol: Sn # 49
    coordinates: [  0.166666666695988,  0.333333333656104,  0.833333333596448 ]
    mass: 118.710000
    reduced_to: 28
  - symbol: Sn # 50
    coordinates: [  0.500000000029321,  0.333333333656104,  0.833333333596448 ]
    mass: 118.710000
    reduced_to: 28
  - symbol: Sn # 51
    coordinates: [  0.833333333362654,  0.333333333656104,  0.833333333596448 ]
    mass: 118.710000
    reduced_to: 28
  - symbol: Sn # 52
    coordinates: [  0.166666666695988,  0.666666666989438,  0.833333333596448 ]
    mass: 118.710000
    reduced_to: 28
  - symbol: Sn # 53
    coordinates: [  0.500000000029321,  0.666666666989438,  0.833333333596448 ]
    mass: 118.710000
    reduced_to: 28
  - symbol: Sn # 54
    coordinates: [  0.833333333362654,  0.666666666989438,  0.833333333596448 ]
    mass: 118.710000
    reduced_to: 28
  - symbol: Sn # 55
    coordinates: [  0.166666666428559,  0.166666666833840,  0.000000000033362 ]
    mass: 118.710000
    reduced_to: 55
  - symbol: Sn # 56
    coordinates: [  0.499999999761892,  0.166666666833840,  0.000000000033362 ]
    mass: 118.710000
    reduced_to: 55
  - symbol: Sn # 57
    coordinates: [  0.833333333095225,  0.166666666833840,  0.000000000033362 ]
    mass: 118.710000
    reduced_to: 55
  - symbol: Sn # 58
    coordinates: [  0.166666666428559,  0.500000000167173,  0.000000000033362 ]
    mass: 118.710000
    reduced_to: 55
  - symbol: Sn # 59
    coordinates: [  0.499999999761892,  0.500000000167173,  0.000000000033362 ]
    mass: 118.710000
    reduced_to: 55
  - symbol: Sn # 60
    coordinates: [  0.833333333095225,  0.500000000167173,  0.000000000033362 ]
    mass: 118.710000
    reduced_to: 55
  - symbol: Sn # 61
    coordinates: [  0.166666666428559,  0.833333333500506,  0.000000000033362 ]
    mass: 118.710000
    reduced_to: 55
  - symbol: Sn # 62
    coordinates: [  0.499999999761892,  0.833333333500506,  0.000000000033362 ]
    mass: 118.710000
    reduced_to: 55
  - symbol: Sn # 63
    coordinates: [  0.833333333095225,  0.833333333500506,  0.000000000033362 ]
    mass: 118.710000
    reduced_to: 55
  - symbol: Sn # 64
    coordinates: [  0.166666666428559,  0.166666666833840,  0.333333333366696 ]
    mass: 118.710000
    reduced_to: 55
  - symbol: Sn # 65
    coordinates: [  0.499999999761892,  0.166666666833840,  0.333333333366696 ]
    mass: 118.710000
    reduced_to: 55
  - symbol: Sn # 66
    coordinates: [  0.833333333095225,  0.166666666833840,  0.333333333366696 ]
    mass: 118.710000
    reduced_to: 55
  - symbol: Sn # 67
    coordinates: [  0.166666666428559,  0.500000000167173,  0.333333333366696 ]
    mass: 118.710000
    reduced_to: 55
  - symbol: Sn # 68
    coordinates: [  0.499999999761892,  0.500000000167173,  0.333333333366696 ]
    mass: 118.710000
    reduced_to: 55
  - symbol: Sn # 69
    coordinates: [  0.833333333095225,  0.500000000167173,  0.333333333366696 ]
    mass: 118.710000
    reduced_to: 55
  - symbol: Sn # 70
    coordinates: [  0.166666666428559,  0.833333333500506,  0.333333333366696 ]
    mass: 118.710000
    reduced_to: 55
  - symbol: Sn # 71
    coordinates: [  0.499999999761892,  0.833333333500506,  0.333333333366696 ]
    mass: 118.710000
    reduced_to: 55
  - symbol: Sn # 72
    coordinates: [  0.833333333095225,  0.833333333500506,  0.333333333366696 ]
    mass: 118.710000
    reduced_to: 55
  - symbol: Sn # 73
    coordinates: [  0.166666666428559,  0.166666666833840,  0.666666666700029 ]
    mass: 118.710000
    reduced_to: 55
  - symbol: Sn # 74
    coordinates: [  0.499999999761892,  0.166666666833840,  0.666666666700029 ]
    mass: 118.710000
    reduced_to: 55
  - symbol: Sn # 75
    coordinates: [  0.833333333095225,  0.166666666833840,  0.666666666700029 ]
    mass: 118.710000
    reduced_to: 55
  - symbol: Sn # 76
    coordinates: [  0.166666666428559,  0.500000000167173,  0.666666666700029 ]
    mass: 118.710000
    reduced_to: 55
  - symbol: Sn # 77
    coordinates: [  0.499999999761892,  0.500000000167173,  0.666666666700029 ]
    mass: 118.710000
    reduced_to: 55
  - symbol: Sn # 78
    coordinates: [  0.833333333095225,  0.500000000167173,  0.666666666700029 ]
    mass: 118.710000
    reduced_to: 55
  - symbol: Sn # 79
    coordinates: [  0.166666666428559,  0.833333333500506,  0.666666666700029 ]
    mass: 118.710000
    reduced_to: 55
  - symbol: Sn # 80
    coordinates: [  0.499999999761892,  0.833333333500506,  0.666666666700029 ]
    mass: 118.710000
    reduced_to: 55
  - symbol: Sn # 81
    coordinates: [  0.833333333095225,  0.833333333500506,  0.666666666700029 ]
    mass: 118.710000
    reduced_to: 55
  - symbol: Sn # 82
    coordinates: [  0.333333333253337,  0.166666666348229,  0.166666666288071 ]
    mass: 118.710000
    reduced_to: 82
  - symbol: Sn # 83
    coordinates: [  0.666666666586670,  0.166666666348229,  0.166666666288071 ]
    mass: 118.710000
    reduced_to: 82
  - symbol: Sn # 84
    coordinates: [  0.999999999920004,  0.166666666348229,  0.166666666288071 ]
    mass: 118.710000
    reduced_to: 82
  - symbol: Sn # 85
    coordinates: [  0.333333333253337,  0.499999999681562,  0.166666666288071 ]
    mass: 118.710000
    reduced_to: 82
  - symbol: Sn # 86
    coordinates: [  0.666666666586670,  0.499999999681562,  0.166666666288071 ]
    mass: 118.710000
    reduced_to: 82
  - symbol: Sn # 87
    coordinates: [  0.999999999920004,  0.499999999681562,  0.166666666288071 ]
    mass: 118.710000
    reduced_to: 82
  - symbol: Sn # 88
    coordinates: [  0.333333333253337,  0.833333333014895,  0.166666666288071 ]
    mass: 118.710000
    reduced_to: 82
  - symbol: Sn # 89
    coordinates: [  0.666666666586670,  0.833333333014895,  0.166666666288071 ]
    mass: 118.710000
    reduced_to: 82
  - symbol: Sn # 90
    coordinates: [  0.999999999920004,  0.833333333014895,  0.166666666288071 ]
    mass: 118.710000
    reduced_to: 82
  - symbol: Sn # 91
    coordinates: [  0.333333333253337,  0.166666666348229,  0.499999999621404 ]
    mass: 118.710000
    reduced_to: 82
  - symbol: Sn # 92
    coordinates: [  0.666666666586670,  0.166666666348229,  0.499999999621404 ]
    mass: 118.710000
    reduced_to: 82
  - symbol: Sn # 93
    coordinates: [  0.999999999920004,  0.166666666348229,  0.499999999621404 ]
    mass: 118.710000
    reduced_to: 82
  - symbol: Sn # 94
    coordinates: [  0.333333333253337,  0.499999999681562,  0.499999999621404 ]
    mass: 118.710000
    reduced_to: 82
  - symbol: Sn # 95
    coordinates: [  0.666666666586670,  0.499999999681562,  0.499999999621404 ]
    mass: 118.710000
    reduced_to: 82
  - symbol: Sn # 96
    coordinates: [  0.999999999920004,  0.499999999681562,  0.499999999621404 ]
    mass: 118.710000
    reduced_to: 82
  - symbol: Sn # 97
    coordinates: [  0.333333333253337,  0.833333333014895,  0.499999999621404 ]
    mass: 118.710000
    reduced_to: 82
  - symbol: Sn # 98
    coordinates: [  0.666666666586670,  0.833333333014895,  0.499999999621404 ]
    mass: 118.710000
    reduced_to: 82
  - symbol: Sn # 99
    coordinates: [  0.999999999920004,  0.833333333014895,  0.499999999621404 ]
    mass: 118.710000
    reduced_to: 82
  - symbol: Sn # 100
    coordinates: [  0.333333333253337,  0.166666666348229,  0.833333332954738 ]
    mass: 118.710000
    reduced_to: 82
  - symbol: Sn # 101
    coordinates: [  0.666666666586670,  0.166666666348229,  0.833333332954738 ]
    mass: 118.710000
    reduced_to: 82
  - symbol: Sn # 102
    coordinates: [  0.999999999920004,  0.166666666348229,  0.833333332954738 ]
    mass: 118.710000
    reduced_to: 82
  - symbol: Sn # 103
    coordinates: [  0.333333333253337,  0.499999999681562,  0.833333332954738 ]
    mass: 118.710000
    reduced_to: 82
  - symbol: Sn # 104
    coordinates: [  0.666666666586670,  0.499999999681562,  0.833333332954738 ]
    mass: 118.710000
    reduced_to: 82
  - symbol: Sn # 105
    coordinates: [  0.999999999920004,  0.499999999681562,  0.833333332954738 ]
    mass: 118.710000
    reduced_to: 82
  - symbol: Sn # 106
    coordinates: [  0.333333333253337,  0.833333333014895,  0.833333332954738 ]
    mass: 118.710000
    reduced_to: 82
  - symbol: Sn # 107
    coordinates: [  0.666666666586670,  0.833333333014895,  0.833333332954738 ]
    mass: 118.710000
    reduced_to: 82
  - symbol: Sn # 108
    coordinates: [  0.999999999920004,  0.833333333014895,  0.833333332954738 ]
    mass: 118.710000
    reduced_to: 82

displacements:
- atom:    1
  displacement:
    [   0.0070957803340715,  0.0000000000021558,  0.0070462686189645 ]
  forces:
  - [  -0.0073356055654585, -0.0000000102445483, -0.0074155190959573 ]
  - [   0.0002038704114966,  0.0000004740431905, -0.0001961020607268 ]
  - [   0.0002003041445278,  0.0000004069879651, -0.0001911258004839 ]
  - [  -0.0001837154559325,  0.0000003250315785, -0.0001924661919475 ]
  - [  -0.0001830654509831, -0.0001683551818132, -0.0000065183076003 ]
  - [  -0.0001807766384445,  0.0001657819375396, -0.0000066677484938 ]
  - [  -0.0001837119343691,  0.0000003958120942, -0.0001928238198161 ]
  - [  -0.0001831197296269,  0.0001685163006186, -0.0000065644835558 ]
  - [  -0.0001809298410080, -0.0001657074317336, -0.0000068496865424 ]
  - [  -0.0001988502917811,  0.0000004852190614,  0.0002076290547848 ]
  - [  -0.0003843249287456,  0.0000004284083843, -0.0003807166940533 ]
  - [  -0.0000190907157958,  0.0000004274770617, -0.0000114471331472 ]
  - [  -0.0000060623524405, -0.0001815538853407, -0.0001950049772859 ]
  - [   0.0000175214081537,  0.0000242488458753,  0.0000181117065949 ]
  - [  -0.0000072526454460, -0.0000004414469004, -0.0000067702858360 ]
  - [  -0.0000060833326643,  0.0001814691349864, -0.0001947777345777 ]
  - [   0.0000175224558916, -0.0000243755057454,  0.0000182517615031 ]
  - [  -0.0000072411785368,  0.0000003231689334, -0.0000066909051384 ]
  - [  -0.0001938522764249,  0.0000005625188351,  0.0002023866400123 ]
  - [  -0.0000173649168573,  0.0000005988404155, -0.0000134057918331 ]
  - [  -0.0003719123778865,  0.0000006174668670, -0.0003688055730890 ]
  - [  -0.0000064042974373,  0.0001788130030036, -0.0001927670091391 ]
  - [  -0.0000072568072937,  0.0000002933666110, -0.0000071898903116 ]
  - [   0.0000176434987225, -0.0000246344134212,  0.0000179314665729 ]
  - [  -0.0000063807156039, -0.0001784237101674, -0.0001930724829435 ]
  - [  -0.0000071108515840,  0.0000003501772881, -0.0000072744223871 ]
  - [   0.0000176042376552,  0.0000253245234489,  0.0000179110138561 ]
  - [  -0.0000106450170279,  0.0000281613356492, -0.0000098605232779 ]
  - [   0.0000259336084127, -0.0000248459891736,  0.0000013464887161 ]
  - [  -0.0000212611630559,  0.0000037252930269, -0.0000243833346758 ]
  - [   0.0026683323085308, -0.0000003054738045,  0.0026423884555697 ]
  - [   0.0000019324943423, -0.0000001452863216,  0.0000034038966987 ]
  - [  -0.0000752750784159, -0.0000001899898052, -0.0001290906220675 ]
  - [  -0.0000106655061245, -0.0000287052243948, -0.0000098147720564 ]
  - [   0.0000260444357991,  0.0000243745744228,  0.0000013413082343 ]
  - [  -0.0000212201848626, -0.0000042803585529, -0.0000243810063694 ]
  - [   0.0000013150274754, -0.0000254493170360,  0.0000253479520325 ]
  - [  -0.0000032009556890, -0.0000001308493438, -0.0000026815687306 ]
  - [   0.0000019371509552,  0.0000242069399974,  0.0000244240509346 ]
  - [   0.0000036414712667,  0.0000001732259989,  0.0000049330992624 ]
  - [  -0.0000077737495303,  0.0000003296881914, -0.0000071589311119 ]
  - [   0.0000041797757149,  0.0000002235174179,  0.0000033711257856 ]
  - [   0.0000012554228306,  0.0000251848250628,  0.0000260644301306 ]
  - [  -0.0000030836090446,  0.0000000372529030, -0.0000021198939066 ]
  - [   0.0000017145648599, -0.0000243559479713,  0.0000250134326052 ]
  - [  -0.0000225091353059, -0.0000049471827879, -0.0000235410989262 ]
  - [   0.0000253068283200,  0.0000233270639001,  0.0000018722494133 ]
  - [  -0.0000086612999439, -0.0000289250128844, -0.0000079448218457 ]
  - [  -0.0000856723636389,  0.0000005997717381, -0.0001192507334054 ]
  - [   0.0000006705522537,  0.0000007003545761,  0.0000040676095523 ]
  - [   0.0025768056511879,  0.0000008586794138,  0.0025517090689391 ]
  - [  -0.0000224094837904,  0.0000053066760302, -0.0000235311454162 ]
  - [   0.0000253096222878, -0.0000230148434639,  0.0000016549602151 ]
  - [  -0.0000088028609753,  0.0000292267650366, -0.0000081266916823 ]
  - [   0.0012073814868927, -0.0013052371796221, -0.0001787450164557 ]
  - [  -0.0000006211921573,  0.0000001974403858, -0.0000006218519957 ]
  - [   0.0011977311223745,  0.0012870763894171, -0.0001713819801807 ]
  - [   0.0012074597179890,  0.0013049277476966, -0.0001785829663277 ]
  - [  -0.0000005867332220, -0.0000005762558430, -0.0000004736020855 ]
  - [   0.0011972868815064, -0.0012874195817858, -0.0001713223755360 ]
  - [   0.0000042598694563, -0.0000000974978320, -0.0000002235174179 ]
  - [  -0.0000085858628154, -0.0000001875159796,  0.0000146318971019 ]
  - [   0.0000046063214540, -0.0000000282307155, -0.0000007133930922 ]
  - [  -0.0000063516199589, -0.0000186308752745,  0.0000119842588902 ]
  - [   0.0000249193981290,  0.0000022827880457,  0.0000000912696123 ]
  - [  -0.0000259326770902, -0.0000009625509847,  0.0000309422612190 ]
  - [  -0.0000062789767981,  0.0000179343041964,  0.0000124890357256 ]
  - [   0.0000250777229667, -0.0000031132076401,  0.0000004153698683 ]
  - [  -0.0000260425731540,  0.0000001704611350,  0.0000313483178616 ]
  - [  -0.0000007003545761, -0.0000001617299858,  0.0000237543135881 ]
  - [  -0.0000034477561712, -0.0000001988955773, -0.0000079572200775 ]
  - [   0.0000041965395212, -0.0000001514854375, -0.0000236220657825 ]
  - [  -0.0000271350145340,  0.0000018668361008,  0.0000306162983179 ]
  - [   0.0000250628218055, -0.0000022844760679,  0.0000002793967724 ]
  - [  -0.0000052228569984,  0.0000206672120839,  0.0000123810023069 ]
  - [  -0.0000270921736956, -0.0000020897423383,  0.0000311210751534 ]
  - [   0.0000251634046435,  0.0000018664286472,  0.0000006053596735 ]
  - [  -0.0000052582472563, -0.0000210496946238,  0.0000129323452711 ]
  - [   0.0000039078295231, -0.0000003053573892, -0.0000238567590714 ]
  - [  -0.0000033285468817, -0.0000001392036211, -0.0000068712979555 ]
  - [  -0.0000004321336746, -0.0000003373424988,  0.0000242777168751 ]
  - [  -0.0000025946646929, -0.0000093718990684, -0.0000128207029775 ]
  - [   0.0000300407409668, -0.0000018989667296, -0.0000208959681913 ]
  - [  -0.0001935902982950, -0.0013609277084470,  0.0012413384392858 ]
  - [  -0.0000027343630791,  0.0000083735212684, -0.0000128104584292 ]
  - [   0.0000300295650959,  0.0000012228265405, -0.0000209323479794 ]
  - [  -0.0001937355846167,  0.0013600206002593,  0.0012411361094564 ]
  - [   0.0000252183526754,  0.0000013631652109, -0.0000009443610907 ]
  - [  -0.0000232234597206,  0.0000012122909538,  0.0000043008476496 ]
  - [  -0.0000020377337933,  0.0000013182288967,  0.0000036582350731 ]
  - [   0.0000004991889000,  0.0000021765008569,  0.0000240721274167 ]
  - [   0.0000003185123205, -0.0000025751069188,  0.0000240665976889 ]
  - [  -0.0000008717179298, -0.0000000689178705,  0.0000033481628634 ]
  - [   0.0000003185123205, -0.0000036573037505,  0.0000234173494391 ]
  - [   0.0000003091990948,  0.0000012349337339,  0.0000233181053773 ]
  - [  -0.0000007711350918, -0.0000013913959265,  0.0000027666683309 ]
  - [  -0.0000070929527283,  0.0000014766119421, -0.0000032987445593 ]
  - [  -0.0000071171671152,  0.0000012100208551, -0.0000033043324947 ]
  - [   0.0000144131481647,  0.0000016368576325, -0.0000076480209827 ]
  - [   0.0000309944152832,  0.0000022584572434, -0.0000200406066142 ]
  - [  -0.0000026784837246,  0.0000105910003185, -0.0000119832693599 ]
  - [  -0.0001857485622168,  0.0013411212712526,  0.0012304171686992 ]
  - [   0.0000308584421873, -0.0000045215710998, -0.0000202756491490 ]
  - [  -0.0000024754554033, -0.0000131195411086, -0.0000121329212561 ]
  - [  -0.0001857466995716, -0.0013429680839181,  0.0012296726927161 ]
  - [  -0.0000225808471441,  0.0000011905212887,  0.0000044088810682 ]
  - [   0.0000248178839684,  0.0000012220698409, -0.0000010766088963 ]
  - [  -0.0000024102628231,  0.0000013185781427,  0.0000040568411350 ]
- atom:   28
  displacement:
    [   0.0057869315908003,  0.0057869298034220,  0.0057465525503265 ]
  forces:
  - [   0.0000030970304579,  0.0000052303075790,  0.0000043651089072 ]
  - [  -0.0000291791511700,  0.0000109989196062, -0.0000045828510338 ]
  - [   0.0000211150036193,  0.0000037495046854, -0.0000191380549950 ]
  - [  -0.0000158267685038,  0.0000197272747755, -0.0000208681449294 ]
  - [  -0.0000099781609606,  0.0000124480575323, -0.0000314318349410 ]
  - [   0.0000208303390536, -0.0000014733523130,  0.0000210176422115 ]
  - [   0.0021045070607215, -0.0001472774893045,  0.0020845495164394 ]
  - [  -0.0000637832563370, -0.0001543546095490, -0.0001033822554746 ]
  - [   0.0000013023964129, -0.0000013001263142,  0.0000030431203868 ]
  - [  -0.0000078323537309,  0.0000107269734144, -0.0000319229438901 ]
  - [  -0.0000177706242539,  0.0000166455283761, -0.0000226995907724 ]
  - [   0.0000210175639950, -0.0000008912757039,  0.0000215214604395 ]
  - [  -0.0000283709487121,  0.0000120569020510, -0.0000058533623815 ]
  - [   0.0000030517403502,  0.0000045252963901,  0.0000049040900194 ]
  - [   0.0000207595876418,  0.0000025248154998, -0.0000184414166142 ]
  - [  -0.0000668219872750, -0.0001540351659060, -0.0001000333577394 ]
  - [   0.0021725909318775, -0.0001614438369870,  0.0021519919391721 ]
  - [   0.0000009250361472, -0.0000012684613466,  0.0000033187025110 ]
  - [  -0.0000188134126802,  0.0000029020011425,  0.0000201556831598 ]
  - [   0.0000214719329961, -0.0000009685754776,  0.0000202228111448 ]
  - [  -0.0000026428606361, -0.0000051502138376, -0.0000025292611099 ]
  - [   0.0000214372194023, -0.0000014426186681,  0.0000195000320673 ]
  - [  -0.0000189102429431,  0.0000023525208235,  0.0000196222608793 ]
  - [  -0.0000026259222068, -0.0000056084245443, -0.0000027773930924 ]
  - [   0.0000030264866382, -0.0000002570450306,  0.0000029997900128 ]
  - [   0.0000033217365853, -0.0000001378357410,  0.0000026817069738 ]
  - [  -0.0000064049381763,  0.0000120038166642, -0.0000064739797381 ]
  - [  -0.0087273865938187, -0.0112456083297729, -0.0090192183852196 ]
  - [   0.0000105509534478,  0.0000023858847271,  0.0000325518776663 ]
  - [   0.0000203903764486, -0.0000015409350453,  0.0000308700655296 ]
  - [  -0.0000414177775383, -0.0000429749488831, -0.0000238635238929 ]
  - [   0.0004529012367129,  0.0004292428493500,  0.0000224371324293 ]
  - [   0.0000046016648412, -0.0000205636024475,  0.0000219696194108 ]
  - [  -0.0000471547245979, -0.0000323317945004, -0.0000293740304187 ]
  - [   0.0000040503218770, -0.0000195149332285,  0.0000219283974729 ]
  - [   0.0004475470632315,  0.0004224572330713,  0.0000217843917198 ]
  - [   0.0000358503311872,  0.0000120140648505,  0.0000729855673853 ]
  - [  -0.0001330142840743, -0.0000126190407173, -0.0001322915486526 ]
  - [  -0.0000114273279905, -0.0000120215090647, -0.0000099485914689 ]
  - [   0.0000223573297262,  0.0004348419606686,  0.0004502524971031 ]
  - [  -0.0000299569219351, -0.0000100787729025, -0.0000307469454128 ]
  - [   0.0000133141875267,  0.0000049490481615, -0.0000028156791814 ]
  - [   0.0000218190252781, -0.0000166352838278, -0.0000040226441342 ]
  - [  -0.0000144504010677,  0.0000218972563744, -0.0000133680878207 ]
  - [  -0.0000019324943423,  0.0000063497573137,  0.0000146857055370 ]
  - [   0.0000343918800354,  0.0000082998631115,  0.0000578823674005 ]
  - [  -0.0000114990398288, -0.0000123347908811, -0.0000106900406536 ]
  - [  -0.0001285951584578, -0.0000116024139061, -0.0001282115990762 ]
  - [   0.0000219922512770, -0.0000171363353729, -0.0000044880434871 ]
  - [  -0.0000024586915970,  0.0000068545341492,  0.0000139525218401 ]
  - [  -0.0000140760093927,  0.0000218525528908, -0.0000136246089824 ]
  - [   0.0000214464962482,  0.0004282277077436,  0.0004437916213647 ]
  - [   0.0000132825225592,  0.0000057555735111, -0.0000026070047170 ]
  - [  -0.0000295061618090, -0.0000099334865808, -0.0000304172572214 ]
  - [  -0.0004896149039268,  0.0001295936817769, -0.0004625488072634 ]
  - [   0.0002211164683104, -0.0000588475959376, -0.0001595997164259 ]
  - [   0.0000199005007744, -0.0000002922606654, -0.0000213570892811 ]
  - [   0.0000139735639095, -0.0001324347686023, -0.0000041350722313 ]
  - [  -0.0000041928142309, -0.0000069299421739, -0.0000033070637073 ]
  - [  -0.0000095097348094, -0.0000073263363447,  0.0000035353004932 ]
  - [  -0.0004743207246065,  0.0026199251879007,  0.0031388998031616 ]
  - [   0.0000807158648968,  0.0000371424248442, -0.0000015969808373 ]