# Thermal properties / unit cell (natom)

unit:
  temperature:   K
  free_energy:   kJ/mol
  entropy:       J/K/mol
  heat_capacity: J/K/mol

natom: 7    
cutoff_frequency: 0.00000
num_modes: 154350
num_integrated_modes: 154347

zero_point_energy:      23.5006184

thermal_properties:
- temperature:         0.0000000
  free_energy:        23.5006184
  entropy:             0.0000000
  heat_capacity:       0.0000000
  energy:             23.5006184

- temperature:        10.0000000
  free_energy:        23.4989542
  entropy:             0.6958733
  heat_capacity:       2.2435921
  energy:             23.5059130

- temperature:        20.0000000
  free_energy:        23.4711663
  entropy:             5.8445210
  heat_capacity:      15.9560894
  energy:             23.5880567

- temperature:        30.0000000
  free_energy:        23.3663539
  entropy:            15.6167113
  heat_capacity:      32.9949388
  energy:             23.8348552

- temperature:        40.0000000
  free_energy:        23.1535449
  entropy:            27.0448680
  heat_capacity:      46.4997472
  energy:             24.2353396

- temperature:        50.0000000
  free_energy:        22.8250958
  entropy:            38.6166664
  heat_capacity:      57.3244923
  energy:             24.7559291

- temperature:        60.0000000
  free_energy:        22.3820940
  entropy:            49.9337191
  heat_capacity:      67.0018263
  energy:             25.3781171

- temperature:        70.0000000
  free_energy:        21.8274038
  entropy:            60.9573779
  heat_capacity:      76.1969875
  energy:             26.0944203

- temperature:        80.0000000
  free_energy:        21.1638417
  entropy:            71.7118411
  heat_capacity:      85.0060181
  energy:             26.9007890

- temperature:        90.0000000
  free_energy:        20.3940197
  entropy:            82.2099065
  heat_capacity:      93.3263098
  energy:             27.7929113

- temperature:       100.0000000
  free_energy:        19.5205098
  entropy:            92.4478597
  heat_capacity:     101.0425481
  energy:             28.7652958

- temperature:       110.0000000
  free_energy:        18.5459683
  entropy:           102.4140738
  heat_capacity:     108.0868086
  energy:             29.8115164

- temperature:       120.0000000
  free_energy:        17.4731753
  entropy:           112.0963151
  heat_capacity:     114.4426886
  energy:             30.9247331

- temperature:       130.0000000
  free_energy:        16.3050191
  entropy:           121.4855863
  heat_capacity:     120.1318503
  energy:             32.0981453

- temperature:       140.0000000
  free_energy:        15.0444555
  entropy:           130.5774270
  heat_capacity:     125.1989219
  energy:             33.3252953

- temperature:       150.0000000
  free_energy:        13.6944624
  entropy:           139.3718225
  heat_capacity:     129.6997177
  energy:             34.6002358

- temperature:       160.0000000
  free_energy:        12.2579984
  entropy:           147.8725058
  heat_capacity:     133.6933685
  energy:             35.9175994

- temperature:       170.0000000
  free_energy:        10.7379695
  entropy:           156.0860943
  heat_capacity:     137.2375951
  energy:             37.2726056

- temperature:       180.0000000
  free_energy:         9.1372047
  entropy:           164.0212680
  heat_capacity:     140.3861658
  energy:             38.6610330

- temperature:       190.0000000
  free_energy:         7.4584388
  entropy:           171.6880739
  heat_capacity:     143.1877497
  energy:             40.0791729

- temperature:       200.0000000
  free_energy:         5.7043017
  entropy:           179.0973724
  heat_capacity:     145.6856046
  energy:             41.5237761

- temperature:       210.0000000
  free_energy:         3.8773122
  entropy:           186.2604167
  heat_capacity:     147.9177334
  energy:             42.9919997

- temperature:       220.0000000
  free_energy:         1.9798764
  entropy:           193.1885438
  heat_capacity:     149.9172776
  energy:             44.4813560

- temperature:       230.0000000
  free_energy:         0.0142870
  entropy:           199.8929535
  heat_capacity:     151.7130118
  energy:             45.9896664

- temperature:       240.0000000
  free_energy:        -2.0172734
  entropy:           206.3845572
  heat_capacity:     153.3298584
  energy:             47.5150203

- temperature:       250.0000000
  free_energy:        -4.1127299
  entropy:           212.6738772
  heat_capacity:     154.7893830
  energy:             49.0557394

- temperature:       260.0000000
  free_energy:        -6.2701103
  entropy:           218.7709860
  heat_capacity:     156.1102472
  energy:             50.6103461

- temperature:       270.0000000
  free_energy:        -8.4875409
  entropy:           224.6854711
  heat_capacity:     157.3086121
  energy:             52.1775363

- temperature:       280.0000000
  free_energy:       -10.7632413
  entropy:           230.4264222
  heat_capacity:     158.3984923
  energy:             53.7561569

- temperature:       290.0000000
  free_energy:       -13.0955196
  entropy:           236.0024306
  heat_capacity:     159.3920608
  energy:             55.3451853

- temperature:       300.0000000
  free_energy:       -15.4827672
  entropy:           241.4215991
  heat_capacity:     160.2999123
  energy:             56.9437125

- temperature:       310.0000000
  free_energy:       -17.9234543
  entropy:           246.6915580
  heat_capacity:     161.1312869
  energy:             58.5509287

- temperature:       320.0000000
  free_energy:       -20.4161250
  entropy:           251.8194854
  heat_capacity:     161.8942621
  energy:             60.1661104

- temperature:       330.0000000
  free_energy:       -22.9593931
  entropy:           256.8121295
  heat_capacity:     162.5959150
  energy:             61.7886097

- temperature:       340.0000000
  free_energy:       -25.5519378
  entropy:           261.6758319
  heat_capacity:     163.2424613
  energy:             63.4178451

- temperature:       350.0000000
  free_energy:       -28.1924998
  entropy:           266.4165523
  heat_capacity:     163.8393731
  energy:             65.0532935

- temperature:       360.0000000
  free_energy:       -30.8798776
  entropy:           271.0398912
  heat_capacity:     164.3914789
  energy:             66.6944832

- temperature:       370.0000000
  free_energy:       -33.6129239
  entropy:           275.5511134
  heat_capacity:     164.9030501
  energy:             68.3409880

- temperature:       380.0000000
  free_energy:       -36.3905427
  entropy:           279.9551697
  heat_capacity:     165.3778734
  energy:             69.9924218

- temperature:       390.0000000
  free_energy:       -39.2116857
  entropy:           284.2567178
  heat_capacity:     165.8193139
  energy:             71.6484343

- temperature:       400.0000000
  free_energy:       -42.0753500
  entropy:           288.4601420
  heat_capacity:     166.2303683
  energy:             73.3087068

- temperature:       410.0000000
  free_energy:       -44.9805752
  entropy:           292.5695720
  heat_capacity:     166.6137117
  energy:             74.9729493

- temperature:       420.0000000
  free_energy:       -47.9264411
  entropy:           296.5888995
  heat_capacity:     166.9717366
  energy:             76.6408967

- temperature:       430.0000000
  free_energy:       -50.9120651
  entropy:           300.5217952
  heat_capacity:     167.3065877
  energy:             78.3123068

- temperature:       440.0000000
  free_energy:       -53.9366005
  entropy:           304.3717230
  heat_capacity:     167.6201911
  energy:             79.9869576

- temperature:       450.0000000
  free_energy:       -56.9992340
  entropy:           308.1419545
  heat_capacity:     167.9142803
  energy:             81.6646456

- temperature:       460.0000000
  free_energy:       -60.0991842
  entropy:           311.8355819
  heat_capacity:     168.1904182
  energy:             83.3451834

- temperature:       470.0000000
  free_energy:       -63.2357000
  entropy:           315.4555294
  heat_capacity:     168.4500166
  energy:             85.0283988

- temperature:       480.0000000
  free_energy:       -66.4080585
  entropy:           319.0045653
  heat_capacity:     168.6943534
  energy:             86.7141329

- temperature:       490.0000000
  free_energy:       -69.6155637
  entropy:           322.4853114
  heat_capacity:     168.9245869
  energy:             88.4022389

- temperature:       500.0000000
  free_energy:       -72.8575454
  entropy:           325.9002530
  heat_capacity:     169.1417688
  energy:             90.0925811

- temperature:       510.0000000
  free_energy:       -76.1333573
  entropy:           329.2517476
  heat_capacity:     169.3468562
  energy:             91.7850340

- temperature:       520.0000000
  free_energy:       -79.4423763
  entropy:           332.5420330
  heat_capacity:     169.5407207
  energy:             93.4794809

- temperature:       530.0000000
  free_energy:       -82.7840010
  entropy:           335.7732352
  heat_capacity:     169.7241578
  energy:             95.1758136

- temperature:       540.0000000
  free_energy:       -86.1576508
  entropy:           338.9473750
  heat_capacity:     169.8978946
  energy:             96.8739317

- temperature:       550.0000000
  free_energy:       -89.5627647
  entropy:           342.0663748
  heat_capacity:     170.0625964
  energy:             98.5737414

- temperature:       560.0000000
  free_energy:       -92.9988006
  entropy:           345.1320645
  heat_capacity:     170.2188732
  energy:            100.2751555

- temperature:       570.0000000
  free_energy:       -96.4652341
  entropy:           348.1461874
  heat_capacity:     170.3672846
  energy:            101.9780927

- temperature:       580.0000000
  free_energy:       -99.9615580
  entropy:           351.1104047
  heat_capacity:     170.5083452
  energy:            103.6824767

- temperature:       590.0000000
  free_energy:      -103.4872812
  entropy:           354.0263014
  heat_capacity:     170.6425284
  energy:            105.3882366

- temperature:       600.0000000
  free_energy:      -107.0419280
  entropy:           356.8953898
  heat_capacity:     170.7702704
  energy:            107.0953058

- temperature:       610.0000000
  free_energy:      -110.6250378
  entropy:           359.7191142
  heat_capacity:     170.8919738
  energy:            108.8036219

- temperature:       620.0000000
  free_energy:      -114.2361637
  entropy:           362.4988550
  heat_capacity:     171.0080103
  energy:            110.5131264

- temperature:       630.0000000
  free_energy:      -117.8748726
  entropy:           365.2359318
  heat_capacity:     171.1187239
  energy:            112.2237644

- temperature:       640.0000000
  free_energy:      -121.5407443
  entropy:           367.9316071
  heat_capacity:     171.2244327
  energy:            113.9354842

- temperature:       650.0000000
  free_energy:      -125.2333708
  entropy:           370.5870895
  heat_capacity:     171.3254320
  energy:            115.6482374

- temperature:       660.0000000
  free_energy:      -128.9523560
  entropy:           373.2035365
  heat_capacity:     171.4219955
  energy:            117.3619781

- temperature:       670.0000000
  free_energy:      -132.6973151
  entropy:           375.7820574
  heat_capacity:     171.5143775
  energy:            119.0766633

- temperature:       680.0000000
  free_energy:      -136.4678743
  entropy:           378.3237158
  heat_capacity:     171.6028144
  energy:            120.7922525

- temperature:       690.0000000
  free_energy:      -140.2636700
  entropy:           380.8295321
  heat_capacity:     171.6875265
  energy:            122.5087072

- temperature:       700.0000000
  free_energy:      -144.0843487
  entropy:           383.3004857
  heat_capacity:     171.7687186
  energy:            124.2259913

- temperature:       710.0000000
  free_energy:      -147.9295666
  entropy:           385.7375170
  heat_capacity:     171.8465821
  energy:            125.9440705

- temperature:       720.0000000
  free_energy:      -151.7989890
  entropy:           388.1415298
  heat_capacity:     171.9212953
  energy:            127.6629124

- temperature:       730.0000000
  free_energy:      -155.6922901
  entropy:           390.5133925
  heat_capacity:     171.9930251
  energy:            129.3824864

- temperature:       740.0000000
  free_energy:      -159.6091525
  entropy:           392.8539405
  heat_capacity:     172.0619274
  energy:            131.1027635

- temperature:       750.0000000
  free_energy:      -163.5492672
  entropy:           395.1639776
  heat_capacity:     172.1281481
  energy:            132.8237161

- temperature:       760.0000000
  free_energy:      -167.5123329
  entropy:           397.4442775
  heat_capacity:     172.1918238
  energy:            134.5453180

- temperature:       770.0000000
  free_energy:      -171.4980561
  entropy:           399.6955851
  heat_capacity:     172.2530827
  energy:            136.2675445

- temperature:       780.0000000
  free_energy:      -175.5061504
  entropy:           401.9186184
  heat_capacity:     172.3120449
  energy:            137.9903720

- temperature:       790.0000000
  free_energy:      -179.5363365
  entropy:           404.1140691
  heat_capacity:     172.3688234
  energy:            139.7137781

- temperature:       800.0000000
  free_energy:      -183.5883420
  entropy:           406.2826044
  heat_capacity:     172.4235241
  energy:            141.4377415

- temperature:       810.0000000
  free_energy:      -187.6619010
  entropy:           408.4248679
  heat_capacity:     172.4762468
  energy:            143.1622420

- temperature:       820.0000000
  free_energy:      -191.7567539
  entropy:           410.5414806
  heat_capacity:     172.5270852
  energy:            144.8872602

- temperature:       830.0000000
  free_energy:      -195.8726471
  entropy:           412.6330420
  heat_capacity:     172.5761278
  energy:            146.6127777

- temperature:       840.0000000
  free_energy:      -200.0093332
  entropy:           414.7001312
  heat_capacity:     172.6234578
  energy:            148.3387770

- temperature:       850.0000000
  free_energy:      -204.1665701
  entropy:           416.7433076
  heat_capacity:     172.6691537
  energy:            150.0652414

- temperature:       860.0000000
  free_energy:      -208.3441214
  entropy:           418.7631120
  heat_capacity:     172.7132895
  energy:            151.7921549

- temperature:       870.0000000
  free_energy:      -212.5417561
  entropy:           420.7600671
  heat_capacity:     172.7559352
  energy:            153.5195022

- temperature:       880.0000000
  free_energy:      -216.7592483
  entropy:           422.7346786
  heat_capacity:     172.7971569
  energy:            155.2472689

- temperature:       890.0000000
  free_energy:      -220.9963769
  entropy:           424.6874356
  heat_capacity:     172.8370171
  energy:            156.9754408

- temperature:       900.0000000
  free_energy:      -225.2529257
  entropy:           426.6188117
  heat_capacity:     172.8755748
  energy:            158.7040049

- temperature:       910.0000000
  free_energy:      -229.5286833
  entropy:           428.5292654
  heat_capacity:     172.9128860
  energy:            160.4329482

- temperature:       920.0000000
  free_energy:      -233.8234428
  entropy:           430.4192406
  heat_capacity:     172.9490037
  energy:            162.1622586

- temperature:       930.0000000
  free_energy:      -238.1370013
  entropy:           432.2891675
  heat_capacity:     172.9839780
  energy:            163.8919244

- temperature:       940.0000000
  free_energy:      -242.4691607
  entropy:           434.1394630
  heat_capacity:     173.0178566
  energy:            165.6219345

- temperature:       950.0000000
  free_energy:      -246.8197265
  entropy:           435.9705311
  heat_capacity:     173.0506846
  energy:            167.3522781

- temperature:       960.0000000
  free_energy:      -251.1885085
  entropy:           437.7827639
  heat_capacity:     173.0825048
  energy:            169.0829448

- temperature:       970.0000000
  free_energy:      -255.5753203
  entropy:           439.5765415
  heat_capacity:     173.1133581
  energy:            170.8139249

- temperature:       980.0000000
  free_energy:      -259.9799791
  entropy:           441.3522326
  heat_capacity:     173.1432829
  energy:            172.5452089

- temperature:       990.0000000
  free_energy:      -264.4023058
  entropy:           443.1101954
  heat_capacity:     173.1723162
  energy:            174.2767876

- temperature:      1000.0000000
  free_energy:      -268.8421250
  entropy:           444.8507774
  heat_capacity:     173.2004928
  energy:            176.0086524
