# Thermal properties / unit cell (natom)

unit:
  temperature:   K
  free_energy:   kJ/mol
  entropy:       J/K/mol
  heat_capacity: J/K/mol

natom: 11   
cutoff_frequency: 0.00000
num_modes: 137280
num_integrated_modes: 133639

zero_point_energy:      27.8530933

thermal_properties:
- temperature:         0.0000000
  free_energy:        27.8530933
  entropy:             0.0000000
  heat_capacity:       0.0000000
  energy:             27.8530933

- temperature:        10.0000000
  free_energy:        27.8479320
  entropy:             1.9732183
  heat_capacity:       5.8053861
  energy:             27.8676642

- temperature:        20.0000000
  free_energy:        27.7804725
  entropy:            13.3255579
  heat_capacity:      32.8479411
  energy:             28.0469836

- temperature:        30.0000000
  free_energy:        27.5539062
  entropy:            32.8590528
  heat_capacity:      65.1115660
  energy:             28.5396778

- temperature:        40.0000000
  free_energy:        27.1136127
  entropy:            55.4037132
  heat_capacity:      91.8814973
  energy:             29.3297613

- temperature:        50.0000000
  free_energy:        26.4448361
  entropy:            78.3029446
  heat_capacity:     113.4736708
  energy:             30.3599833

- temperature:        60.0000000
  free_energy:        25.5494681
  entropy:           100.6470143
  heat_capacity:     131.7466728
  energy:             31.5882889

- temperature:        70.0000000
  free_energy:        24.4346110
  entropy:           122.1818470
  heat_capacity:     147.7260346
  energy:             32.9873403

- temperature:        80.0000000
  free_energy:        23.1087342
  entropy:           142.8471589
  heat_capacity:     161.8081705
  energy:             34.5365069

- temperature:        90.0000000
  free_energy:        21.5805939
  entropy:           162.6351496
  heat_capacity:     174.1658219
  energy:             36.2177574

- temperature:       100.0000000
  free_energy:        19.8589224
  entropy:           181.5561224
  heat_capacity:     184.9375426
  energy:             38.0145347

- temperature:       110.0000000
  free_energy:        17.9522918
  entropy:           199.6312738
  heat_capacity:     194.2768110
  energy:             39.9117320

- temperature:       120.0000000
  free_energy:        15.8690182
  entropy:           216.8902573
  heat_capacity:     202.3495060
  energy:             41.8958491

- temperature:       130.0000000
  free_energy:        13.6170881
  entropy:           233.3689587
  heat_capacity:     209.3210128
  energy:             43.9550527

- temperature:       140.0000000
  free_energy:        11.2041074
  entropy:           249.1072060
  heat_capacity:     215.3460426
  energy:             46.0791163

- temperature:       150.0000000
  free_energy:         8.6372731
  entropy:           264.1467311
  heat_capacity:     220.5632155
  energy:             48.2592827

- temperature:       160.0000000
  free_energy:         5.9233617
  entropy:           278.5295661
  heat_capacity:     225.0933082
  energy:             50.4880923

- temperature:       170.0000000
  free_energy:         3.0687332
  entropy:           292.2968926
  heat_capacity:     229.0397055
  energy:             52.7592050

- temperature:       180.0000000
  free_energy:         0.0793434
  entropy:           305.4882816
  heat_capacity:     232.4899542
  energy:             55.0672341

- temperature:       190.0000000
  free_energy:        -3.0392379
  entropy:           318.1412370
  heat_capacity:     235.5177359
  energy:             57.4075972

- temperature:       200.0000000
  free_energy:        -6.2818042
  entropy:           330.2909598
  heat_capacity:     238.1848793
  energy:             59.7763878

- temperature:       210.0000000
  free_energy:        -9.6434893
  entropy:           341.9702649
  heat_capacity:     240.5432264
  energy:             62.1702664

- temperature:       220.0000000
  free_energy:       -13.1197432
  entropy:           353.2095996
  heat_capacity:     242.6362756
  energy:             64.5863687

- temperature:       230.0000000
  free_energy:       -16.7063088
  entropy:           364.0371255
  heat_capacity:     244.5005882
  energy:             67.0222300

- temperature:       240.0000000
  free_energy:       -20.3991999
  entropy:           374.4788380
  heat_capacity:     246.1669688
  energy:             69.4757213

- temperature:       250.0000000
  free_energy:       -24.1946796
  entropy:           384.5587059
  heat_capacity:     247.6614469
  energy:             71.9449969

- temperature:       260.0000000
  free_energy:       -28.0892416
  entropy:           394.2988183
  heat_capacity:     249.0060873
  energy:             74.4284511

- temperature:       270.0000000
  free_energy:       -32.0795915
  entropy:           403.7195315
  heat_capacity:     250.2196570
  energy:             76.9246820

- temperature:       280.0000000
  free_energy:       -36.1626303
  entropy:           412.8396118
  heat_capacity:     251.3181732
  energy:             79.4324610

- temperature:       290.0000000
  free_energy:       -40.3354395
  entropy:           421.6763703
  heat_capacity:     252.3153543
  energy:             81.9507079

- temperature:       300.0000000
  free_energy:       -44.5952667
  entropy:           430.2457884
  heat_capacity:     253.2229908
  energy:             84.4784698

- temperature:       310.0000000
  free_energy:       -48.9395135
  entropy:           438.5626347
  heat_capacity:     254.0512513
  energy:             87.0149033

- temperature:       320.0000000
  free_energy:       -53.3657232
  entropy:           446.6405714
  heat_capacity:     254.8089352
  energy:             89.5592597

- temperature:       330.0000000
  free_energy:       -57.8715708
  entropy:           454.4922518
  heat_capacity:     255.5036824
  energy:             92.1108723

- temperature:       340.0000000
  free_energy:       -62.4548532
  entropy:           462.1294089
  heat_capacity:     256.1421476
  energy:             94.6691458

- temperature:       350.0000000
  free_energy:       -67.1134803
  entropy:           469.5629355
  heat_capacity:     256.7301453
  energy:             97.2335471

- temperature:       360.0000000
  free_energy:       -71.8454670
  entropy:           476.8029571
  heat_capacity:     257.2727717
  energy:             99.8035975

- temperature:       370.0000000
  free_energy:       -76.6489259
  entropy:           483.8588979
  heat_capacity:     257.7745063
  energy:            102.3788663

- temperature:       380.0000000
  free_energy:       -81.5220607
  entropy:           490.7395402
  heat_capacity:     258.2392976
  energy:            104.9589646

- temperature:       390.0000000
  free_energy:       -86.4631598
  entropy:           497.4530783
  heat_capacity:     258.6706362
  energy:            107.5435408

- temperature:       400.0000000
  free_energy:       -91.4705908
  entropy:           504.0071674
  heat_capacity:     259.0716154
  energy:            110.1322761

- temperature:       410.0000000
  free_energy:       -96.5427955
  entropy:           510.4089674
  heat_capacity:     259.4449840
  energy:            112.7248811

- temperature:       420.0000000
  free_energy:      -101.6782849
  entropy:           516.6651831
  heat_capacity:     259.7931904
  energy:            115.3210920

- temperature:       430.0000000
  free_energy:      -106.8756349
  entropy:           522.7821006
  heat_capacity:     260.1184207
  energy:            117.9206683

- temperature:       440.0000000
  free_energy:      -112.1334823
  entropy:           528.7656197
  heat_capacity:     260.4226313
  energy:            120.5233903

- temperature:       450.0000000
  free_energy:      -117.4505212
  entropy:           534.6212843
  heat_capacity:     260.7075771
  energy:            123.1290568

- temperature:       460.0000000
  free_energy:      -122.8254992
  entropy:           540.3543091
  heat_capacity:     260.9748353
  energy:            125.7374829

- temperature:       470.0000000
  free_energy:      -128.2572149
  entropy:           545.9696047
  heat_capacity:     261.2258266
  energy:            128.3484993

- temperature:       480.0000000
  free_energy:      -133.7445144
  entropy:           551.4717998
  heat_capacity:     261.4618333
  energy:            130.9619495

- temperature:       490.0000000
  free_energy:      -139.2862885
  entropy:           556.8652620
  heat_capacity:     261.6840146
  energy:            133.5776899

- temperature:       500.0000000
  free_energy:      -144.8814709
  entropy:           562.1541164
  heat_capacity:     261.8934210
  energy:            136.1955873

- temperature:       510.0000000
  free_energy:      -150.5290352
  entropy:           567.3422629
  heat_capacity:     262.0910058
  energy:            138.8155189

- temperature:       520.0000000
  free_energy:      -156.2279928
  entropy:           572.4333917
  heat_capacity:     262.2776356
  energy:            141.4373709

- temperature:       530.0000000
  free_energy:      -161.9773913
  entropy:           577.4309981
  heat_capacity:     262.4540998
  energy:            144.0610377

- temperature:       540.0000000
  free_energy:      -167.7763121
  entropy:           582.3383953
  heat_capacity:     262.6211184
  energy:            146.6864214

- temperature:       550.0000000
  free_energy:      -173.6238690
  entropy:           587.1587269
  heat_capacity:     262.7793492
  energy:            149.3134308

- temperature:       560.0000000
  free_energy:      -179.5192064
  entropy:           591.8949776
  heat_capacity:     262.9293940
  energy:            151.9419811

- temperature:       570.0000000
  free_energy:      -185.4614977
  entropy:           596.5499842
  heat_capacity:     263.0718044
  energy:            154.5719932

- temperature:       580.0000000
  free_energy:      -191.4499443
  entropy:           601.1264443
  heat_capacity:     263.2070866
  energy:            157.2033934

- temperature:       590.0000000
  free_energy:      -197.4837734
  entropy:           605.6269257
  heat_capacity:     263.3357058
  energy:            159.8361128

- temperature:       600.0000000
  free_energy:      -203.5622377
  entropy:           610.0538741
  heat_capacity:     263.4580900
  energy:            162.4700868

- temperature:       610.0000000
  free_energy:      -209.6846135
  entropy:           614.4096207
  heat_capacity:     263.5746335
  energy:            165.1052551

- temperature:       620.0000000
  free_energy:      -215.8502002
  entropy:           618.6963893
  heat_capacity:     263.6857004
  energy:            167.7415612

- temperature:       630.0000000
  free_energy:      -222.0583185
  entropy:           622.9163023
  heat_capacity:     263.7916267
  energy:            170.3789520

- temperature:       640.0000000
  free_energy:      -228.3083101
  entropy:           627.0713871
  heat_capacity:     263.8927232
  energy:            173.0173776

- temperature:       650.0000000
  free_energy:      -234.5995366
  entropy:           631.1635814
  heat_capacity:     263.9892778
  energy:            175.6567913

- temperature:       660.0000000
  free_energy:      -240.9313783
  entropy:           635.1947382
  heat_capacity:     264.0815572
  energy:            178.2971489

- temperature:       670.0000000
  free_energy:      -247.3032338
  entropy:           639.1666311
  heat_capacity:     264.1698091
  energy:            180.9384090

- temperature:       680.0000000
  free_energy:      -253.7145191
  entropy:           643.0809581
  heat_capacity:     264.2542635
  energy:            183.5805324

- temperature:       690.0000000
  free_energy:      -260.1646665
  entropy:           646.9393462
  heat_capacity:     264.3351342
  energy:            186.2234823

- temperature:       700.0000000
  free_energy:      -266.6531247
  entropy:           650.7433551
  heat_capacity:     264.4126203
  energy:            188.8672239

- temperature:       710.0000000
  free_energy:      -273.1793574
  entropy:           654.4944809
  heat_capacity:     264.4869074
  energy:            191.5117241

- temperature:       720.0000000
  free_energy:      -279.7428429
  entropy:           658.1941594
  heat_capacity:     264.5581684
  energy:            194.1569519

- temperature:       730.0000000
  free_energy:      -286.3430737
  entropy:           661.8437693
  heat_capacity:     264.6265649
  energy:            196.8028779

- temperature:       740.0000000
  free_energy:      -292.9795558
  entropy:           665.4446351
  heat_capacity:     264.6922479
  energy:            199.4494742

- temperature:       750.0000000
  free_energy:      -299.6518081
  entropy:           668.9980299
  heat_capacity:     264.7553584
  energy:            202.0967143

- temperature:       760.0000000
  free_energy:      -306.3593622
  entropy:           672.5051782
  heat_capacity:     264.8160287
  energy:            204.7445732

- temperature:       770.0000000
  free_energy:      -313.1017615
  entropy:           675.9672579
  heat_capacity:     264.8743825
  energy:            207.3930271

- temperature:       780.0000000
  free_energy:      -319.8785609
  entropy:           679.3854031
  heat_capacity:     264.9305358
  energy:            210.0420535

- temperature:       790.0000000
  free_energy:      -326.6893267
  entropy:           682.7607058
  heat_capacity:     264.9845976
  energy:            212.6916309

- temperature:       800.0000000
  free_energy:      -333.5336358
  entropy:           686.0942182
  heat_capacity:     265.0366701
  energy:            215.3417388

- temperature:       810.0000000
  free_energy:      -340.4110752
  entropy:           689.3869545
  heat_capacity:     265.0868495
  energy:            217.9923580

- temperature:       820.0000000
  free_energy:      -347.3212422
  entropy:           692.6398927
  heat_capacity:     265.1352261
  energy:            220.6434698

- temperature:       830.0000000
  free_energy:      -354.2637435
  entropy:           695.8539763
  heat_capacity:     265.1818851
  energy:            223.2950568

- temperature:       840.0000000
  free_energy:      -361.2381952
  entropy:           699.0301158
  heat_capacity:     265.2269065
  energy:            225.9471021

- temperature:       850.0000000
  free_energy:      -368.2442223
  entropy:           702.1691906
  heat_capacity:     265.2703659
  energy:            228.5995897

- temperature:       860.0000000
  free_energy:      -375.2814583
  entropy:           705.2720497
  heat_capacity:     265.3123346
  energy:            231.2525044

- temperature:       870.0000000
  free_energy:      -382.3495453
  entropy:           708.3395137
  heat_capacity:     265.3528797
  energy:            233.9058316

- temperature:       880.0000000
  free_energy:      -389.4481333
  entropy:           711.3723758
  heat_capacity:     265.3920647
  energy:            236.5595575

- temperature:       890.0000000
  free_energy:      -396.5768800
  entropy:           714.3714030
  heat_capacity:     265.4299498
  energy:            239.2136686

- temperature:       900.0000000
  free_energy:      -403.7354510
  entropy:           717.3373371
  heat_capacity:     265.4665915
  energy:            241.8681523

- temperature:       910.0000000
  free_energy:      -410.9235189
  entropy:           720.2708960
  heat_capacity:     265.5020436
  energy:            244.5229965

- temperature:       920.0000000
  free_energy:      -418.1407633
  entropy:           723.1727747
  heat_capacity:     265.5363568
  energy:            247.1781894

- temperature:       930.0000000
  free_energy:      -425.3868710
  entropy:           726.0436462
  heat_capacity:     265.5695795
  energy:            249.8337200

- temperature:       940.0000000
  free_energy:      -432.6615351
  entropy:           728.8841623
  heat_capacity:     265.6017571
  energy:            252.4895775

- temperature:       950.0000000
  free_energy:      -439.9644552
  entropy:           731.6949547
  heat_capacity:     265.6329329
  energy:            255.1457518

- temperature:       960.0000000
  free_energy:      -447.2953371
  entropy:           734.4766355
  heat_capacity:     265.6631481
  energy:            257.8022330

- temperature:       970.0000000
  free_energy:      -454.6538928
  entropy:           737.2297985
  heat_capacity:     265.6924416
  energy:            260.4590117

- temperature:       980.0000000
  free_energy:      -462.0398400
  entropy:           739.9550192
  heat_capacity:     265.7208504
  energy:            263.1160789

- temperature:       990.0000000
  free_energy:      -469.4529019
  entropy:           742.6528564
  heat_capacity:     265.7484098
  energy:            265.7734258

- temperature:      1000.0000000
  free_energy:      -476.8928076
  entropy:           745.3238520
  heat_capacity:     265.7751531
  energy:            268.4310443
