16
Lattice="4.157869574935746 -0.015372758547467162 -0.00585077433469241 -2.0587217322966547 4.9653329499203185 0.10970031133360296 0.023180468895426715 2.738359806853811 15.696938877508346" Properties=species:S:1:pos:R:3:forces:R:3 structure_index=0 total_energy=-49.35826873779297 stress="-0.01583724282681942 0.0013774558901786804 -0.0024908902123570442 0.0013774026883766055 -0.0022860949393361807 -6.286405550781637e-05 -0.0024908105842769146 -6.30047798040323e-05 -0.01007925346493721" pbc="T T T"
Li      -1.21410920       5.06280703       8.81458690      -0.00026187       0.00494983      -0.02599198
Li       2.94682257       3.20657892      12.40892540      -0.00214641       0.02990111      -0.01375259
Li       0.84406244       0.72380138       1.71089628       0.00046874       0.00761674       0.00003342
Li       0.84600708       1.85051768       4.80104047       0.00091239      -0.03771721       0.03651476
Li       0.86637941       4.15115133      10.60162393      -0.00107125      -0.00021165       0.01770618
Li       0.86241377       5.94152543       6.83057000       0.00400090      -0.03844258       0.02421771
Li      -1.19321566       7.27872744      14.40230493      -0.00150270       0.02849079      -0.04770489
Ga       2.95313747       4.31989316      15.34311363       0.00019734       0.03377189       0.00704585
Ga       0.85669953       4.81816658       3.88714036       0.00046972      -0.03523359       0.00892907
Ga      -1.20221503       6.18438544      11.58574370      -0.00295451       0.01934529      -0.02053871
Sn       0.85769780       3.69440266       0.71294765      -0.00163137       0.02897220       0.02207186
Sn       2.93319068       3.96612682       5.83645288       0.00207153      -0.03199403       0.00413939
Sn       2.93045738       2.70371091       2.81189726       0.00033980      -0.02044400      -0.00845539
Sn       0.85369355       3.01748483       7.73856452       0.00233020      -0.01960403      -0.01032855
Sn       2.93308931       2.09232798       9.63588807       0.00156186       0.00404860       0.00068772
Sn       0.87699354       5.20833127      13.39145578      -0.00278443       0.02655061       0.00542612
12
Lattice="3.8662794295613416 -0.0017637964140408342 1.0533991268854166 1.2357832324361337 6.909149951465088 3.098254483247448 0.022554560951887737 -0.04109040602608842 7.538872840925448" Properties=species:S:1:pos:R:3:forces:R:3 structure_index=1 total_energy=-33.42148208618164 stress="0.01328518707305193 0.0006423018057830632 0.003934410400688648 0.0006422426667995751 -0.0035163694992661476 -0.003823754144832492 0.003934655804187059 -0.003823730628937483 -0.0036281191278249025" pbc="T T T"
Li       1.06903636       1.67475491       5.13239452       0.00750778       0.01043181      -0.02619279
Li       3.16266600       6.22586994       5.07762476       0.00056292       0.03172961      -0.00177190
Li       2.56696914       2.93894012       7.25808635      -0.00017719      -0.01510584       0.00092312
Li       1.69070066       5.14975759       2.85557229      -0.00776665      -0.00549116       0.03204080
Li       3.42325971       0.47819550       4.11342307       0.00564861      -0.00709930      -0.02420041
Li       1.79278407       2.40714583       2.47858520      -0.00403671      -0.00579163       0.01284719
Ga       3.29878342       3.43992198       4.57205197      -0.00053483       0.03743914       0.00334571
Ga       2.44313549       5.72371440       7.71936168       0.00127798       0.00184888      -0.00649125
Ga       2.71605113      -0.05192559       6.70803733       0.00170445      -0.02533796      -0.00895712
Ga       4.05992940       4.08421491       9.40347626      -0.00748395      -0.03685737       0.02552957
Ga       0.95979799       4.52226472       5.53558163      -0.00777314       0.01557823       0.03497935
Sn       0.31835675       1.08935609       7.88782069       0.01107074      -0.00134441      -0.04205229
6
Lattice="3.868079245532293 -0.0006677151401917718 -1.3031469363048387 0.0007630897995901392 4.5752797591372785 -9.413931161026247e-05 0.01586345962103017 0.0005961508088267338 6.437375970770989" Properties=species:S:1:pos:R:3:forces:R:3 structure_index=2 total_energy=-18.239986419677734 stress="0.038738757371902466 4.63896976725664e-05 -0.0014677690342068672 4.636663288692944e-05 0.030029503628611565 0.00012397582759149373 -0.0014678396983072162 0.00012395538215059787 0.032900433987379074" pbc="T T T"
Li       0.84850861       1.27322779       1.75051792      -0.01102416      -0.00227748      -0.02714010
Li       3.45184998       1.27214306       3.08963723       0.01244261       0.00017851       0.03229412
Li       2.15905928       1.27216613       5.64070869      -0.00113875       0.00075938      -0.00188082
Ga       0.22495230       3.56061457       6.29181584      -0.00071863      -0.00001862       0.00079571
Sn       1.52144697       3.56052400       3.75113214      -0.01076039      -0.00068806      -0.04658895
Sn       2.78050151       3.55914481       1.09308692       0.01119930       0.00204626       0.04252004
6
Lattice="4.535471692310429 -0.277819371170036 2.772264985378375 1.2476607043560144 5.039551954538938 0.7641393747940673 -0.020252948471556904 -0.13971264418277676 5.124932023863172" Properties=species:S:1:pos:R:3:forces:R:3 structure_index=3 total_energy=-18.032386779785156 stress="-0.02582036703824997 -0.0021642378997057676 0.011154597625136375 -0.0021642239298671484 -0.008527257479727268 -0.005302300211042166 0.011154647916555405 -0.00530224246904254 -0.04930749163031578" pbc="T T T"
Li       1.58910651       2.77128669       1.29801616       0.01434646       0.00061835      -0.02207078
Li       3.23588305       0.11338975       2.29485550      -0.01030401      -0.00070825       0.02053944
Li       3.08243168       2.63045113       3.95323417       0.01043759       0.00210322      -0.02033204
Ga       0.21178530       0.25043962       2.14915993      -0.01452124       0.00076037       0.01874643
Sn       4.59343153       2.49362774       6.57255009       0.01144074      -0.00009167      -0.01852673
Sn       1.71444166       0.11279441       4.78149762      -0.01139953      -0.00268201       0.02164369
7
Lattice="3.1517905232841215 -0.00010181509871423056 -0.46853182111387914 -0.11208974128882358 3.9547332402081157 -0.7553136763008023 -0.03645805495595641 -0.029173153407437917 10.591773115035299" Properties=species:S:1:pos:R:3:forces:R:3 structure_index=4 total_energy=-20.411962509155273 stress="0.02591365948319435 0.0009324594284407794 0.004179119598120451 0.0009325555874966085 0.03181806951761246 0.005249268840998411 0.004179065581411123 0.005249334033578634 0.05588093400001526" pbc="T T T"
Li       1.28501263       3.78751815       8.19825311      -0.00415720      -0.00502655      -0.02482698
Li       0.48492160       2.73714593       2.83347148       0.00525988       0.00810922       0.03271317
Ga       2.71577267       1.54793035       6.99476616       0.00193321       0.00047601       0.01106102
Ga       0.88154444       3.26086794       5.50253381      -0.00184271      -0.00242400      -0.01424314
Ga       1.90776945       0.48465979       1.55906275       0.00722472       0.00988419       0.04900618
Ga       2.30940195       1.01514932       4.27701212      -0.00129022      -0.00284911      -0.01295928
Sn       0.05198243       2.16679052      -0.10057914      -0.00712765      -0.00816977      -0.04075100
6
Lattice="4.5631240049499615 -0.0014579019262684018 0.0007068266974447859 -2.2800239052540827 3.9528547844766817 0.00074482879128063 -0.0008927918507326398 -0.0023003225797009314 7.468970172313095" Properties=species:S:1:pos:R:3:forces:R:3 structure_index=5 total_energy=-18.662839889526367 stress="0.03124879114329815 0.0002021350373979658 7.871332491049543e-05 0.00020199365098960698 0.031554266810417175 -0.00013055725139565766 7.866181840654463e-05 -0.00013057386968284845 0.02066931314766407" pbc="T T T"
Li       0.35657561       1.53097599       6.37727437      -0.00026534       0.00029424       0.03581969
Li       0.35616911       1.53354361       2.64366804       0.00020977      -0.00056246       0.03492104
Ga       2.63731947       0.21472630       3.45910549       0.00011518       0.00017531      -0.02161462
Ga       2.63832269       2.84766807       7.19403255      -0.00056684       0.00065929      -0.01817528
Sn       2.63783678       0.21520816       0.63420580       0.00068950      -0.00063742      -0.01154841
Sn       2.63832715       2.84910719       4.37037950      -0.00018228       0.00007104      -0.01940241
16
Lattice="4.361616119675165 0.0048447953705365405 0.0008541456734459981 -2.1862553870305375 4.814517493168532 -0.2189938093727059 -0.0036283360204960326 1.1221420451749435 15.948544558259107" Properties=species:S:1:pos:R:3:forces:R:3 structure_index=6 total_energy=-49.14510726928711 stress="0.016056176275014877 -1.0783154721138999e-05 9.388501354123946e-08 -1.0856258995772805e-05 0.011987910605967045 -0.0032558878883719444 1.775602953557609e-08 -0.0032558166421949863 0.011613993905484676" pbc="T T T"
Li      -0.25234255       2.26109544       2.11933588       0.00000575      -0.01461781       0.00633527
Li      -0.25357514       1.54771512       9.14996601       0.00010352       0.00067199      -0.00471424
Li      -0.25413359       2.97952170      15.05566534      -0.00025825       0.01469563      -0.00647710
Li      -0.25475799       3.18850767       5.12072981       0.00015666      -0.00423952       0.00530978
Ga       1.92875939       1.34577243      13.75693808      -0.00025005       0.02059530       0.04178054
Ga      -0.25805408       5.47352523      10.82157751       0.00006827      -0.00208070       0.03468640
Ga      -0.25660384       4.35375292       7.97234551       0.00015385       0.00167685      -0.00594398
Ga       1.92355424       5.18112562       5.96934423       0.00015913       0.00120632      -0.00944937
Ga       1.92781334       3.46968576       0.53101696      -0.00006341      -0.01603736      -0.04057131
Ga       1.92572275       4.08355893       3.24359029       0.00001480      -0.00913525      -0.02700755
Ga      -0.25385624       2.42241939      12.10479141      -0.00009575       0.00521289      -0.00043221
Sn       1.92887067       1.15839497       4.01722212       0.00010618      -0.00932800       0.02608012
Sn       1.92653878       2.35050065       7.09211587       0.00016122       0.00179567       0.00014157
Sn       1.93123397       0.47157066       0.73840202      -0.00006602      -0.01560129       0.03777308
Sn       1.92500215       3.56314141      10.15935851       0.00001465       0.00181772      -0.02081912
Sn       1.92539600       4.31903435      13.40354850      -0.00021057       0.02336759      -0.03669186
11
Lattice="4.376579890170924 0.0012879848347376285 -1.3951252132894407 -0.9744785064117893 6.167746340364811 -3.053919503684303 -0.023332657230025214 -0.2070951530402045 7.491280625146385" Properties=species:S:1:pos:R:3:forces:R:3 structure_index=7 total_energy=-28.936983108520508 stress="-0.003978406544774771 0.0020486367866396904 0.0017823464004322886 0.002048666588962078 -0.00820772722363472 0.006418866105377674 0.0017825592076405883 0.006418806035071611 0.002713825786486268" pbc="T T T"
Li      -0.38219563       3.82223066       0.50023152      -0.00721524       0.03655251      -0.02553616
Li       2.29341796       4.69505660       1.32976601      -0.00782649       0.01942800      -0.02132108
Li       0.42469728       3.03353417       3.03084735      -0.00951446      -0.01440758      -0.03086212
Li       2.84776157       1.20952924       3.06934986       0.00180536      -0.02781036       0.00395733
Li       1.30982881       3.00334440      -1.75773059      -0.00193124       0.02751349      -0.00382387
Li       0.16308508       0.39006905       2.20747912       0.00690410      -0.03846750       0.02209079
Li       3.73223354       1.17935076      -1.72096264       0.01112793       0.01592657       0.03455716
Li       0.88986799       5.68568167      -3.07200536       0.00740678      -0.02063425       0.02183523
Ga       2.07923321       2.10612088       0.65585611      -0.00076302       0.00108592      -0.00049413
Sn       1.02788775       0.12897200       4.92122493       0.01380675       0.02379623       0.04257759
Sn       3.10650875       3.87650899       3.88197409      -0.01380047      -0.02298302      -0.04298075
10
Lattice="4.279118687161555 -0.0012129652782625596 0.0014165245837114528 0.0018854906815015569 7.275741203892031 0.005995117465110498 -0.0029311283190899366 -0.005450623285524457 7.274333449161124" Properties=species:S:1:pos:R:3:forces:R:3 structure_index=8 total_energy=-31.367502212524414 stress="0.03389085456728935 3.378804831299931e-05 -6.455824041040614e-05 3.379957706783898e-05 0.0004594333586283028 0.00047660034033469856 -6.451442459365353e-05 0.000476629298646003 -0.0032821923960000277" pbc="T T T"
Li       1.35253615       6.59357668       3.78207067       0.00001759       0.00106719      -0.00013760
Li       1.35390636       2.95838083       0.14221517       0.00000075       0.00192141      -0.00157235
Ga       1.35415422       5.62317958       1.11698325      -0.00039310       0.01885860      -0.02018195
Ga       1.35078475       0.29000649       6.44083131      -0.00163669      -0.02266531       0.02141784
Ga       1.35158625       3.92810292       4.75189228       0.00152584      -0.01988224      -0.01564405
Ga       1.35250747       1.98404882       2.80485087      -0.00050114       0.01801110       0.02078183
Sn       3.49286584       4.18571541       2.55351703      -0.00053712      -0.02700352       0.02609654
Sn       3.49175557       5.36238860       6.19092345      -0.00084610       0.02819385       0.02711638
Sn       3.49043537       1.72469758       5.00713551       0.00122439       0.02943579      -0.02946847
Sn       3.49179036       0.54786058       1.36958636       0.00114560      -0.02793686      -0.02840818
10
Lattice="3.3026109627258995 0.00014064037818263872 -0.000448937029183322 -0.00018438769739862008 3.30262088213873 -0.0006294506557157748 0.003368360456275479 0.0034104187365437805 17.881425073585962" Properties=species:S:1:pos:R:3:forces:R:3 structure_index=9 total_energy=-30.937931060791016 stress="-0.002728512277826667 -0.00016164279077202082 2.519400186429266e-05 -0.00016176137432921678 -0.0026242444291710854 -1.145439273386728e-05 2.516378299333155e-05 -1.1344606718921568e-05 -0.034644052386283875" pbc="T T T"
Li       3.26367433       0.05200403       1.02110818      -0.00117742      -0.00064867       0.00501082
Li       3.26407262       0.05355390      11.42924605       0.00043661       0.00043516      -0.00422255
Li       3.26355374       0.05350094       4.73389340      -0.00137357      -0.00047362       0.04070313
Li       3.26524492       0.05356309      15.16120968       0.00015866       0.00056116       0.00469471
Li       3.26241063       0.05364320       7.71918919       0.00155107       0.00045748      -0.04227301
Ga       1.61140541       1.70506712       6.22485235       0.00050915      -0.00068745       0.00302144
Sn       1.61454033       1.70533931      17.01406457       0.00034090       0.00051172       0.01550675
Sn       1.61251867       1.70507997       9.55770534      -0.00105361      -0.00032314      -0.00105296
Sn       1.61158118       1.70362367       2.89594441       0.00088975       0.00059773      -0.00456288
Sn       1.61340628       1.70511355      13.31379121      -0.00028154      -0.00043037      -0.01682545
16
Lattice="4.436573683368634 -0.0018582171318342045 -0.00010193922523182966 -2.2157607953760676 5.194866025614525 0.000999812892723972 -0.00019648888494363934 -0.0071782828177977005 14.442052235273174" Properties=species:S:1:pos:R:3:forces:R:3 structure_index=10 total_energy=-47.30756759643555 stress="0.012332934886217117 1.6477632016176358e-05 -3.268038926762529e-05 1.6525147657375783e-05 0.01003585010766983 -5.876883369637653e-05 -3.26404842780903e-05 -5.904727368033491e-05 0.01936705783009529" pbc="T T T"
Li      -1.03424535       5.08513458       8.28813175       0.00011217       0.00608189       0.04646887
Li      -1.03234280       3.65230920      11.50971002      -0.00023884       0.01943684      -0.04195648
Li      -1.03194553       3.52560233       1.06664238      -0.00035939      -0.00513661       0.04625332
Li       1.18191739       2.29911015       6.23437060       0.00036508      -0.04736368       0.00082612
Li      -1.03400325       4.95854532       4.29298604      -0.00013144      -0.02094325      -0.04398049
Li       3.40361531       1.10741021      13.45091725      -0.00034278       0.04912287       0.00393679
Ga       3.40113271       1.92563478       8.29748949       0.00032890      -0.01623792       0.00664189
Ga       3.40019812       2.03322939       4.26602360       0.00017942      -0.01094247      -0.01061731
Ga       1.18507170       1.38241877      11.48033244      -0.00020779       0.00895760      -0.00659024
Ga       1.18469723       1.48617915       1.07356248      -0.00001444       0.01801381       0.00863827
Ga       3.40282109       0.46207362      10.55156720      -0.00009336      -0.01401447       0.03570771
Ga       1.18239414       2.94967156       3.33067768       0.00051394       0.01393859       0.03449627
Sn       1.18611889       3.30335782      13.47855367      -0.00031187       0.03614605      -0.00672417
Sn       3.39972656       0.10467974       6.25738254       0.00046106      -0.03578121      -0.00587379
Sn       1.18361498       3.20369759       9.27012011       0.00018855       0.01567829      -0.03267073
Sn       3.40233081       0.21338465       2.05359329      -0.00044919      -0.01695634      -0.03455603
12
Lattice="4.298880944979684 0.0012066134172073544 0.0015607697528592383 -0.0018300195897645512 6.4274156293255436 0.19205349617364847 -0.003405993208445254 0.18145611189283836 9.390852334616582" Properties=species:S:1:pos:R:3:forces:R:3 structure_index=11 total_energy=-37.82951736450195 stress="-0.0060751792043447495 3.2801706311147427e-06 3.035858753719367e-05 3.3372782581864158e-06 0.017590653151273727 -0.012279674410820007 3.0265662644524127e-05 -0.012279709801077843 0.011830287985503674" pbc="T T T"
Li       3.34936593       0.40218312       0.09274547      -0.00036974       0.00976875      -0.01554179
Li       1.19598975       5.17649773       4.96140854       0.00040185      -0.00495124      -0.00730718
Li       1.19684461       1.98848970       5.01340464       0.00035687      -0.02060103       0.01862128
Li       3.34826992       3.60766435       0.26517279      -0.00022171       0.01254507       0.00087389
Ga       1.19882429       1.99513260       1.70838858      -0.00035858       0.01085341       0.00522888
Ga       3.34537727       3.65252839       6.51889264       0.00033256      -0.03705246       0.00646839
Ga       1.19497439       5.29549784       8.10757991       0.00002454       0.02798505      -0.00103559
Sn       3.34795359       0.44065935       3.24289868      -0.00017007       0.00756038      -0.01122623
Sn       3.34678612       3.55540101       3.43601729       0.00002136       0.00324732       0.01380745
Sn       1.19790700       5.19400990       1.72736364      -0.00029817       0.00002359      -0.00824437
Sn       3.34623701       0.26248228       6.45284219       0.00028311      -0.01947004      -0.02041371
Sn       1.19605162       2.27538454       8.06249245      -0.00000204       0.01009120       0.01876898
8
Lattice="4.736178487169641 0.0014088985566110517 0.00015553184622216847 -0.001851340714320829 5.015456138805784 -2.8913203710824265 -0.00040719497694999436 -0.000867452186108953 5.79006450412036" Properties=species:S:1:pos:R:3:forces:R:3 structure_index=12 total_energy=-20.484054565429688 stress="0.05399637296795845 -0.0008174465037882328 0.00014850482693873346 -0.0008177543641068041 0.04551946371793747 0.00028116567409597337 0.0001484539097873494 0.00028129207203164697 0.04545946046710014" pbc="T T T"
Li       4.62898260       2.71453482       3.05779048      -0.00110854       0.04223074      -0.00133349
Li       2.26001994       3.57796215       1.55175415       0.00065667      -0.01937006      -0.04109432
Li       4.62948872       0.29760849       4.44866230      -0.00006949      -0.02082512       0.03838516
Li       2.26162374       1.16802042       0.15894003      -0.00097768       0.04615495      -0.00439942
Li       4.62905465       0.29752750       1.66053677       0.00118001      -0.02026255      -0.03855456
Li       2.26020571       3.57964811      -1.23209842       0.00023438      -0.02508419       0.04222647
Ga       4.62867938       2.77509687       0.16331638       0.00005088      -0.00009564      -0.00248481
Sn       2.26107820       1.10388377       3.05183893       0.00003371      -0.00274811       0.00725495
9
Lattice="4.221401141591579 0.0032688691931800438 -0.0025746779531800085 -2.1149341778196926 4.585178693010171 -0.832644003765453 0.006162806790821345 -1.0412971510619622 8.742508058971477" Properties=species:S:1:pos:R:3:forces:R:3 structure_index=13 total_energy=-25.745223999023438 stress="0.029941370710730553 -0.00023068512382451445 -0.00016605389828328043 -0.00023051348398439586 0.011470679193735123 0.02134646661579609 -0.0001661764399614185 0.021346336230635643 0.016370432451367378" pbc="T T T"
Li       1.46721027       3.41582960       2.78586974      -0.00023736       0.01283949       0.00668017
Li       1.47219687      -0.24146110       8.18347497       0.00117399      -0.03286093       0.00063473
Li       1.46344239       3.82821080      -0.17268776       0.00137865      -0.00340003      -0.02147914
Li      -0.63890959       1.35645819       6.92565755      -0.00077407       0.01160184       0.01688324
Li      -0.64049125       1.78232281       4.00616087      -0.00102846       0.02675002       0.02869544
Ga       1.46810768       0.48864503       2.36426840       0.00100756      -0.00551734       0.00944635
Ga       1.47039634       3.04620312       5.76891998      -0.00141585      -0.01315137       0.00411621
Sn       1.47233925       0.13681128       5.29996868      -0.00096798      -0.00449485      -0.04611705
Sn      -0.64479456       2.13781390       1.07214084       0.00086351       0.00823316       0.00114008
10
Lattice="2.8234093960437328 -0.0001666782927668752 0.000139989924205711 0.00016610387203045204 2.823409295356683 -3.9804712656416356e-05 -0.0010681523051825942 0.00030566190507238725 21.18869643029844" Properties=species:S:1:pos:R:3:forces:R:3 structure_index=14 total_energy=-28.35662841796875 stress="-0.033315036445856094 -7.052663931972347e-06 1.8806534853865742e-06 -7.129376172088087e-06 -0.033311549574136734 -7.684427600906929e-07 1.6896400438781711e-06 -9.583018254488707e-07 -0.02820725366473198" pbc="T T T"
Li       0.24625417       0.51302813       3.73403207       0.00002615       0.00001886      -0.02664610
Li       0.24578543       0.51325742      16.09058905      -0.00001038      -0.00001335      -0.01794499
Li       0.24608410       0.51319942       7.83890360      -0.00000143      -0.00002246       0.01788474
Li       0.24594374       0.51327194      11.96470907      -0.00000288      -0.00001204       0.00002293
Li       0.24555287       0.51320657      20.19543037      -0.00000961       0.00003333       0.02665999
Ga       1.65747352       1.92484039      18.14025187      -0.00002613       0.00001431       0.02872794
Ga       1.65793981       1.92473632       5.78933042       0.00002442      -0.00000653      -0.02874652
Ga       1.65780384       1.92487004       9.89385646      -0.00000370      -0.00001521       0.01339187
Ga       1.65765478       1.92489705      14.03568877      -0.00000147      -0.00001389      -0.01336259
Sn       1.65822161       1.92457150       1.37043133       0.00000502       0.00001697       0.00001272
12
Lattice="3.744021734513594 -0.0020774838104812587 -2.4106044131691178 -0.7466368290736406 6.30585576953385 -1.164807534248694 -0.0317235402716592 -0.0031327132356526073 8.173451575227093" Properties=species:S:1:pos:R:3:forces:R:3 structure_index=15 total_energy=-31.575023651123047 stress="-0.008180493488907814 0.0030637343879789114 -0.002065560780465603 0.0030634677968919277 -0.009910639375448227 0.004667867906391621 -0.0020654588006436825 0.0046679917722940445 -0.011355793103575706" pbc="T T T"
Li       0.81745054       1.33459600       5.25327424       0.00158430       0.00462720      -0.00314885
Li       2.20429677       0.32805163      -0.81382777      -0.00903107      -0.03399180      -0.02075983
Li       1.84908991       3.38388533      -1.36607420      -0.00745085       0.00525829      -0.02482915
Li       2.10590371       6.15749711       3.13604840       0.00066423      -0.02961088      -0.00011028
Li       2.55088430       2.80468603       3.82773096       0.00500174       0.02922940       0.01304223
Li       1.17036418       3.96610189       1.68116251       0.00713684       0.00692862       0.01468789
Li       3.16943268       2.30431176       0.67388380       0.00102536      -0.02269063       0.00558953
Li      -0.24566995       4.99012947      -0.51336665      -0.00411837       0.02583303       0.00018817
Ga       2.75174021       5.58077542       0.02473662       0.02325826       0.00864550       0.03490864
Ga       0.20018176       1.86164734       0.18237452       0.00121710      -0.00108900       0.00796628
Ga       1.50254212       0.81336427       2.20106688      -0.01376478      -0.00984033      -0.02261491
Sn       0.42775759       4.44710553       4.64167706      -0.00552281       0.01670059      -0.00491972
13
Lattice="4.818546664235506 0.011880575187828632 -1.6540650665476402 -1.9866463322389518 6.355956340976709 -0.5004636849411203 0.13556135581260603 0.0005031754419488481 7.863598282373042" Properties=species:S:1:pos:R:3:forces:R:3 structure_index=16 total_energy=-37.904884338378906 stress="0.028673959895968437 0.0021987282671034336 0.015788597986102104 0.0021985226776450872 0.028479933738708496 0.006461137905716896 0.015788564458489418 0.006461296230554581 0.012043794617056847" pbc="T T T"
Li       0.24458421       0.38674069       5.21402087       0.00092926      -0.01528328       0.00223999
Li       0.56821954       6.12578700       6.39965991      -0.02607544       0.01716874       0.01222023
Li       2.57281687       2.88179967      -0.44393233      -0.04398775      -0.01613884       0.00475981
Li       2.85006563       3.88843437       2.55550757       0.01034265      -0.00150000      -0.00745773
Ga       0.51119223       5.32324036       3.64549609       0.02744143       0.00318897      -0.00662098
Ga       0.35479474       2.56235293       2.99946710       0.02175478      -0.01625513      -0.01311968
Ga       0.35065645       3.36278398       5.76755085      -0.00325061      -0.00020994       0.01093818
Ga       2.91203771       4.68085251       5.24392442      -0.01840531       0.01724225       0.01220781
Ga       0.40384345       4.28530348       0.79314124       0.01769353       0.00020950       0.00824252
Ga       2.98027212       5.55646680       0.24559817       0.00285699       0.00718787      -0.02418459
Ga       2.55202584       1.88094561       4.70157429       0.00936407       0.00206213       0.00364207
Sn       0.03179742       1.30423501       0.15419602      -0.01200362       0.00709311       0.01460332
Sn       2.76283513       0.95551985       1.85438446       0.01334000      -0.00476536      -0.01747097
4
Lattice="4.033819623354848 7.060581879505408e-05 2.329026190823278 1.3440973992403709 3.803236328295409 2.328646949841051 -3.3436207583714476e-05 -1.6898564014151338e-05 4.657955636578708" Properties=species:S:1:pos:R:3:forces:R:3 structure_index=17 total_energy=-11.74655532836914 stress="0.08611121773719788 -0.0006536905420944095 0.0002068142348434776 -0.0006537599838338792 0.08442674577236176 -3.2215833925874904e-05 0.00020692803082056344 -3.232232484151609e-05 0.08490942418575287" pbc="T T T"
Li       3.03524755       2.32649652       3.12858903      -0.00010936      -0.00006233      -0.00049013
Li       0.34601121       0.42433955       3.12795537       0.00041869       0.00108526       0.00126241
Ga       4.37875457       3.27646942       5.45592455       0.00185544       0.00147122       0.00269275
Sn       1.69123518       1.37617508       5.45826783      -0.00216477      -0.00249416      -0.00346504
6
Lattice="2.994980321244969 0.0012558668123896595 0.001241539771027916 -0.0012865082212044228 5.349862479631942 -2.393930633254087 -0.0026265075030285647 0.13546989264891496 7.505667443468261" Properties=species:S:1:pos:R:3:forces:R:3 structure_index=18 total_energy=-18.308452606201172 stress="-0.03313768655061722 2.6269139198120683e-05 -4.016609818791039e-05 2.6304873244953342e-05 -0.0009551750845275819 0.025122331455349922 -4.009163967566565e-05 0.02512234076857567 0.044596925377845764" pbc="T T T"
Li       1.71472750       2.45105908       1.89681265       0.00052542       0.01620596      -0.00927536
Li       1.71403145       5.17362773       0.67515667       0.00057910      -0.01560591       0.00981414
Ga       0.21517569       1.92947578       4.25625282       0.00069036      -0.00315599      -0.01149551
Ga       0.21901884       0.34448682       0.70864265      -0.00035050       0.00277038       0.01120781
Sn       0.21867969       2.93631215      -0.67222648      -0.00051084      -0.01224582      -0.02556834
Sn       0.21788043       4.68747986       3.24317614      -0.00093352       0.01203138       0.02531727
6