phonopy:
  version: "2.37.1"
  frequency_unit_conversion_factor: 15.633302
  symmetry_tolerance: 1.00000e-05

space_group:
  type: "P1"
  number: 1
  Hall_symbol: "P 1"

primitive_matrix:
- [  1.000000000000000,  1.000000000000000,  0.000000000000000 ]
- [  0.000000000000000, -1.000000000000000, -0.000000000000000 ]
- [  0.000000000000000,  0.000000000000000, -1.000000000000000 ]

supercell_matrix:
- [   3,   0,   0 ]
- [   0,   2,   0 ]
- [   0,   0,   2 ]

primitive_cell:
  lattice:
  - [     4.485623009627465,     0.000000000000000,     0.000000000000000 ] # a
  - [     2.240073648919560,    -4.913908471930914,     0.000000000000000 ] # b
  - [     0.010929392474888,    -1.783631702898472,    -6.046279941833014 ] # c
  points:
  - symbol: Li # 1
    coordinates: [  0.694561691573131,  0.178559036725125,  0.022608506982793 ]
    mass: 6.940000
  - symbol: Li # 2
    coordinates: [  0.015277836741333,  0.532944118547818,  0.674761322489316 ]
    mass: 6.940000
  - symbol: Ga # 3
    coordinates: [  0.355085036714540,  0.855917985081041,  0.348224692567653 ]
    mass: 69.723000
  - symbol: Sn # 4
    coordinates: [  0.024382344265234,  0.518290122753897,  0.179050906792139 ]
    mass: 118.710000
  - symbol: Sn # 5
    coordinates: [  0.354910322635555,  0.855838119063985,  0.848761647007663 ]
    mass: 118.710000
  - symbol: Sn # 6
    coordinates: [  0.686566847568821,  0.193288275033665,  0.518049113847889 ]
    mass: 118.710000
  reciprocal_lattice: # without 2pi
  - [     0.222934472614775,     0.101627785782486,    -0.029576864450542 ] # a*
  - [     0.000000000000000,    -0.203503993961664,     0.060032975447452 ] # b*
  - [     0.000000000000000,    -0.000000000000000,    -0.165390952721391 ] # c*

unit_cell:
  lattice:
  - [     4.485623009627466,     0.000000000000000,     0.000000000000000 ] # a
  - [     2.245549360707906,     4.913908471930914,     0.000000000000000 ] # b
  - [    -0.010929392474888,     1.783631702898473,     6.046279941833015 ] # c
  points:
  - symbol: Li # 1
    coordinates: [  0.873120728298256,  0.821440963274875,  0.977391493017207 ]
    mass: 6.940000
    reduced_to: 1
  - symbol: Li # 2
    coordinates: [  0.548221955289151,  0.467055881452182,  0.325238677510684 ]
    mass: 6.940000
    reduced_to: 2
  - symbol: Ga # 3
    coordinates: [  0.211003021795581,  0.144082014918959,  0.651775307432346 ]
    mass: 69.723000
    reduced_to: 3
  - symbol: Sn # 4
    coordinates: [  0.542672467019131,  0.481709877246103,  0.820949093207861 ]
    mass: 118.710000
    reduced_to: 4
  - symbol: Sn # 5
    coordinates: [  0.210748441699541,  0.144161880936015,  0.151238352992337 ]
    mass: 118.710000
    reduced_to: 5
  - symbol: Sn # 6
    coordinates: [  0.879855122602486,  0.806711724966335,  0.481950886152111 ]
    mass: 118.710000
    reduced_to: 6

supercell:
  lattice:
  - [    13.456869028882398,     0.000000000000000,     0.000000000000000 ] # a
  - [     4.491098721415812,     9.827816943861828,     0.000000000000000 ] # b
  - [    -0.021858784949776,     3.567263405796945,    12.092559883666031 ] # c
  points:
  - symbol: Li # 1
    coordinates: [  0.291040242766085,  0.410720481637438,  0.488695746508603 ]
    mass: 6.940000
    reduced_to: 1
  - symbol: Li # 2
    coordinates: [  0.624373576099418,  0.410720481637438,  0.488695746508603 ]
    mass: 6.940000
    reduced_to: 1
  - symbol: Li # 3
    coordinates: [  0.957706909432752,  0.410720481637438,  0.488695746508603 ]
    mass: 6.940000
    reduced_to: 1
  - symbol: Li # 4
    coordinates: [  0.291040242766085,  0.910720481637438,  0.488695746508603 ]
    mass: 6.940000
    reduced_to: 1
  - symbol: Li # 5
    coordinates: [  0.624373576099418,  0.910720481637438,  0.488695746508603 ]
    mass: 6.940000
    reduced_to: 1
  - symbol: Li # 6
    coordinates: [  0.957706909432752,  0.910720481637438,  0.488695746508603 ]
    mass: 6.940000
    reduced_to: 1
  - symbol: Li # 7
    coordinates: [  0.291040242766085,  0.410720481637438,  0.988695746508603 ]
    mass: 6.940000
    reduced_to: 1
  - symbol: Li # 8
    coordinates: [  0.624373576099418,  0.410720481637438,  0.988695746508603 ]
    mass: 6.940000
    reduced_to: 1
  - symbol: Li # 9
    coordinates: [  0.957706909432752,  0.410720481637438,  0.988695746508603 ]
    mass: 6.940000
    reduced_to: 1
  - symbol: Li # 10
    coordinates: [  0.291040242766085,  0.910720481637438,  0.988695746508603 ]
    mass: 6.940000
    reduced_to: 1
  - symbol: Li # 11
    coordinates: [  0.624373576099418,  0.910720481637438,  0.988695746508603 ]
    mass: 6.940000
    reduced_to: 1
  - symbol: Li # 12
    coordinates: [  0.957706909432752,  0.910720481637438,  0.988695746508603 ]
    mass: 6.940000
    reduced_to: 1
  - symbol: Li # 13
    coordinates: [  0.182740651763050,  0.233527940726091,  0.162619338755342 ]
    mass: 6.940000
    reduced_to: 13
  - symbol: Li # 14
    coordinates: [  0.516073985096384,  0.233527940726091,  0.162619338755342 ]
    mass: 6.940000
    reduced_to: 13
  - symbol: Li # 15
    coordinates: [  0.849407318429717,  0.233527940726091,  0.162619338755342 ]
    mass: 6.940000
    reduced_to: 13
  - symbol: Li # 16
    coordinates: [  0.182740651763050,  0.733527940726091,  0.162619338755342 ]
    mass: 6.940000
    reduced_to: 13
  - symbol: Li # 17
    coordinates: [  0.516073985096384,  0.733527940726091,  0.162619338755342 ]
    mass: 6.940000
    reduced_to: 13
  - symbol: Li # 18
    coordinates: [  0.849407318429717,  0.733527940726091,  0.162619338755342 ]
    mass: 6.940000
    reduced_to: 13
  - symbol: Li # 19
    coordinates: [  0.182740651763050,  0.233527940726091,  0.662619338755342 ]
    mass: 6.940000
    reduced_to: 13
  - symbol: Li # 20
    coordinates: [  0.516073985096384,  0.233527940726091,  0.662619338755342 ]
    mass: 6.940000
    reduced_to: 13
  - symbol: Li # 21
    coordinates: [  0.849407318429717,  0.233527940726091,  0.662619338755342 ]
    mass: 6.940000
    reduced_to: 13
  - symbol: Li # 22
    coordinates: [  0.182740651763050,  0.733527940726091,  0.662619338755342 ]
    mass: 6.940000
    reduced_to: 13
  - symbol: Li # 23
    coordinates: [  0.516073985096384,  0.733527940726091,  0.662619338755342 ]
    mass: 6.940000
    reduced_to: 13
  - symbol: Li # 24
    coordinates: [  0.849407318429717,  0.733527940726091,  0.662619338755342 ]
    mass: 6.940000
    reduced_to: 13
  - symbol: Ga # 25
    coordinates: [  0.070334340598527,  0.072041007459480,  0.325887653716173 ]
    mass: 69.723000
    reduced_to: 25
  - symbol: Ga # 26
    coordinates: [  0.403667673931860,  0.072041007459480,  0.325887653716173 ]
    mass: 69.723000
    reduced_to: 25
  - symbol: Ga # 27
    coordinates: [  0.737001007265194,  0.072041007459480,  0.325887653716173 ]
    mass: 69.723000
    reduced_to: 25
  - symbol: Ga # 28
    coordinates: [  0.070334340598527,  0.572041007459480,  0.325887653716173 ]
    mass: 69.723000
    reduced_to: 25
  - symbol: Ga # 29
    coordinates: [  0.403667673931860,  0.572041007459480,  0.325887653716173 ]
    mass: 69.723000
    reduced_to: 25
  - symbol: Ga # 30
    coordinates: [  0.737001007265194,  0.572041007459480,  0.325887653716173 ]
    mass: 69.723000
    reduced_to: 25
  - symbol: Ga # 31
    coordinates: [  0.070334340598527,  0.072041007459480,  0.825887653716173 ]
    mass: 69.723000
    reduced_to: 25
  - symbol: Ga # 32
    coordinates: [  0.403667673931860,  0.072041007459480,  0.825887653716173 ]
    mass: 69.723000
    reduced_to: 25
  - symbol: Ga # 33
    coordinates: [  0.737001007265194,  0.072041007459480,  0.825887653716173 ]
    mass: 69.723000
    reduced_to: 25
  - symbol: Ga # 34
    coordinates: [  0.070334340598527,  0.572041007459480,  0.825887653716173 ]
    mass: 69.723000
    reduced_to: 25
  - symbol: Ga # 35
    coordinates: [  0.403667673931860,  0.572041007459480,  0.825887653716173 ]
    mass: 69.723000
    reduced_to: 25
  - symbol: Ga # 36
    coordinates: [  0.737001007265194,  0.572041007459480,  0.825887653716173 ]
    mass: 69.723000
    reduced_to: 25
  - symbol: Sn # 37
    coordinates: [  0.180890822339710,  0.240854938623051,  0.410474546603930 ]
    mass: 118.710000
    reduced_to: 37
  - symbol: Sn # 38
    coordinates: [  0.514224155673043,  0.240854938623051,  0.410474546603930 ]
    mass: 118.710000
    reduced_to: 37
  - symbol: Sn # 39
    coordinates: [  0.847557489006377,  0.240854938623051,  0.410474546603930 ]
    mass: 118.710000
    reduced_to: 37
  - symbol: Sn # 40
    coordinates: [  0.180890822339710,  0.740854938623051,  0.410474546603930 ]
    mass: 118.710000
    reduced_to: 37
  - symbol: Sn # 41
    coordinates: [  0.514224155673043,  0.740854938623051,  0.410474546603930 ]
    mass: 118.710000
    reduced_to: 37
  - symbol: Sn # 42
    coordinates: [  0.847557489006377,  0.740854938623051,  0.410474546603930 ]
    mass: 118.710000
    reduced_to: 37
  - symbol: Sn # 43
    coordinates: [  0.180890822339710,  0.240854938623051,  0.910474546603930 ]
    mass: 118.710000
    reduced_to: 37
  - symbol: Sn # 44
    coordinates: [  0.514224155673043,  0.240854938623051,  0.910474546603930 ]
    mass: 118.710000
    reduced_to: 37
  - symbol: Sn # 45
    coordinates: [  0.847557489006377,  0.240854938623051,  0.910474546603930 ]
    mass: 118.710000
    reduced_to: 37
  - symbol: Sn # 46
    coordinates: [  0.180890822339710,  0.740854938623051,  0.910474546603930 ]
    mass: 118.710000
    reduced_to: 37
  - symbol: Sn # 47
    coordinates: [  0.514224155673043,  0.740854938623051,  0.910474546603930 ]
    mass: 118.710000
    reduced_to: 37
  - symbol: Sn # 48
    coordinates: [  0.847557489006377,  0.740854938623051,  0.910474546603930 ]
    mass: 118.710000
    reduced_to: 37
  - symbol: Sn # 49
    coordinates: [  0.070249480566514,  0.072080940468007,  0.075619176496169 ]
    mass: 118.710000
    reduced_to: 49
  - symbol: Sn # 50
    coordinates: [  0.403582813899847,  0.072080940468007,  0.075619176496169 ]
    mass: 118.710000
    reduced_to: 49
  - symbol: Sn # 51
    coordinates: [  0.736916147233180,  0.072080940468007,  0.075619176496169 ]
    mass: 118.710000
    reduced_to: 49
  - symbol: Sn # 52
    coordinates: [  0.070249480566514,  0.572080940468007,  0.075619176496169 ]
    mass: 118.710000
    reduced_to: 49
  - symbol: Sn # 53
    coordinates: [  0.403582813899847,  0.572080940468007,  0.075619176496169 ]
    mass: 118.710000
    reduced_to: 49
  - symbol: Sn # 54
    coordinates: [  0.736916147233180,  0.572080940468007,  0.075619176496169 ]
    mass: 118.710000
    reduced_to: 49
  - symbol: Sn # 55
    coordinates: [  0.070249480566514,  0.072080940468007,  0.575619176496169 ]
    mass: 118.710000
    reduced_to: 49
  - symbol: Sn # 56
    coordinates: [  0.403582813899847,  0.072080940468007,  0.575619176496169 ]
    mass: 118.710000
    reduced_to: 49
  - symbol: Sn # 57
    coordinates: [  0.736916147233180,  0.072080940468007,  0.575619176496169 ]
    mass: 118.710000
    reduced_to: 49
  - symbol: Sn # 58
    coordinates: [  0.070249480566514,  0.572080940468007,  0.575619176496169 ]
    mass: 118.710000
    reduced_to: 49
  - symbol: Sn # 59
    coordinates: [  0.403582813899847,  0.572080940468007,  0.575619176496169 ]
    mass: 118.710000
    reduced_to: 49
  - symbol: Sn # 60
    coordinates: [  0.736916147233180,  0.572080940468007,  0.575619176496169 ]
    mass: 118.710000
    reduced_to: 49
  - symbol: Sn # 61
    coordinates: [  0.293285040867495,  0.403355862483168,  0.240975443076055 ]
    mass: 118.710000
    reduced_to: 61
  - symbol: Sn # 62
    coordinates: [  0.626618374200829,  0.403355862483168,  0.240975443076055 ]
    mass: 118.710000
    reduced_to: 61
  - symbol: Sn # 63
    coordinates: [  0.959951707534162,  0.403355862483168,  0.240975443076055 ]
    mass: 118.710000
    reduced_to: 61
  - symbol: Sn # 64
    coordinates: [  0.293285040867495,  0.903355862483168,  0.240975443076055 ]
    mass: 118.710000
    reduced_to: 61
  - symbol: Sn # 65
    coordinates: [  0.626618374200829,  0.903355862483168,  0.240975443076055 ]
    mass: 118.710000
    reduced_to: 61
  - symbol: Sn # 66
    coordinates: [  0.959951707534162,  0.903355862483168,  0.240975443076055 ]
    mass: 118.710000
    reduced_to: 61
  - symbol: Sn # 67
    coordinates: [  0.293285040867495,  0.403355862483168,  0.740975443076055 ]
    mass: 118.710000
    reduced_to: 61
  - symbol: Sn # 68
    coordinates: [  0.626618374200829,  0.403355862483168,  0.740975443076055 ]
    mass: 118.710000
    reduced_to: 61
  - symbol: Sn # 69
    coordinates: [  0.959951707534162,  0.403355862483168,  0.740975443076055 ]
    mass: 118.710000
    reduced_to: 61
  - symbol: Sn # 70
    coordinates: [  0.293285040867495,  0.903355862483168,  0.740975443076055 ]
    mass: 118.710000
    reduced_to: 61
  - symbol: Sn # 71
    coordinates: [  0.626618374200829,  0.903355862483168,  0.740975443076055 ]
    mass: 118.710000
    reduced_to: 61
  - symbol: Sn # 72
    coordinates: [  0.959951707534162,  0.903355862483168,  0.740975443076055 ]
    mass: 118.710000
    reduced_to: 61

displacements:
- atom:    1
  displacement:
    [   0.0100000000000000,  0.0000000000000000,  0.0000000000000000 ]
  forces:
  - [  -0.0152037506923079, -0.0096551459282637,  0.0108395526185632 ]
  - [  -0.0037600146606565, -0.0096758604049683,  0.0111003890633583 ]
  - [  -0.0038075600750744, -0.0096081383526325,  0.0106803206726909 ]
  - [  -0.0040597268380225, -0.0099018197506666,  0.0108596179634333 ]
  - [  -0.0040120258927345, -0.0095552625134587,  0.0109033538028598 ]
  - [  -0.0040136436000466, -0.0094651300460100,  0.0109021803364158 ]
  - [  -0.0039373319596052, -0.0096372542902827,  0.0108920764178038 ]
  - [  -0.0040032430551946, -0.0096603129059076,  0.0108876582235098 ]
  - [  -0.0040027764625847, -0.0096227815374732,  0.0108931260183454 ]
  - [  -0.0040306998416781, -0.0096352482214570,  0.0108552649617195 ]
  - [  -0.0040046283975244, -0.0096362577751279,  0.0108987363055348 ]
  - [  -0.0040044286288321, -0.0096495244652033,  0.0109115634113550 ]
  - [   0.0063308239914477,  0.0087152831256390, -0.0084236562252045 ]
  - [   0.0063360808417201,  0.0088270874693990, -0.0082335155457258 ]
  - [   0.0063222758471966,  0.0087713487446308, -0.0083251502364874 ]
  - [   0.0061149271205068,  0.0087646674364805, -0.0083278734236956 ]
  - [   0.0060092601925135,  0.0086238346993923, -0.0080532375723124 ]
  - [   0.0060045262798667,  0.0089213121682405, -0.0085950354114175 ]
  - [   0.0068865744397044,  0.0089625716209412, -0.0088330870494246 ]
  - [   0.0069307805970311,  0.0085383541882038, -0.0077616032212973 ]
  - [   0.0063620498403907,  0.0087746893987060, -0.0083291810005903 ]
  - [   0.0063108257018030,  0.0087498296052217, -0.0083174472674727 ]
  - [   0.0062011368572712,  0.0085902074351907, -0.0084234848618507 ]
  - [   0.0061633372679353,  0.0089480746537447, -0.0082519687712193 ]
  - [   0.0008532656356692, -0.0007026707753539, -0.0049902247264981 ]
  - [   0.0010361955501139, -0.0005589909851551, -0.0049122069031000 ]
  - [   0.0008850519079715, -0.0005451971665025, -0.0048344274982810 ]
  - [   0.0025112491566688, -0.0012987144291401, -0.0034484583884478 ]
  - [   0.0025509500410408,  0.0000972719863057, -0.0064240926876664 ]
  - [   0.0010168825974688, -0.0005998229607940, -0.0049177976325154 ]
  - [   0.0008633470279165, -0.0006601880304515, -0.0048141395673156 ]
  - [   0.0009270375594497, -0.0006108134984970, -0.0049088532105088 ]
  - [   0.0008455186616629, -0.0005458528175950, -0.0050166426226497 ]
  - [   0.0008719617035240, -0.0004674433730543, -0.0049085300415754 ]
  - [   0.0008807040285319, -0.0007358770817518, -0.0049194707535207 ]
  - [   0.0009884388418868, -0.0006106426008046, -0.0049082832410932 ]
  - [  -0.0004921328509226,  0.0026451637968421,  0.0145277455449104 ]
  - [  -0.0004159491218161, -0.0019091311842203,  0.0125333033502102 ]
  - [  -0.0031349041964859,  0.0003956146538258,  0.0135383568704128 ]
  - [  -0.0039951093494892,  0.0004365202039480,  0.0135339144617319 ]
  - [  -0.0031260459218174,  0.0002369247376919,  0.0133120827376842 ]
  - [  -0.0031422011088580,  0.0005234144628048,  0.0137458108365536 ]
  - [  -0.0031973002478480,  0.0002737343311310,  0.0136710684746504 ]
  - [  -0.0031977589242160,  0.0005238177254796,  0.0133891310542822 ]
  - [  -0.0031447468791157,  0.0004017166793346,  0.0135306492447853 ]
  - [  -0.0031500170007348,  0.0004096394404769,  0.0135221984237432 ]
  - [  -0.0030843983404338,  0.0004221294075251,  0.0135043971240520 ]
  - [  -0.0031187837012112,  0.0003608064725995,  0.0135709661990404 ]
  - [   0.0036260948982090,  0.0004839536268264,  0.0051894658245146 ]
  - [   0.0037708641029894,  0.0004900761414319,  0.0051380759105086 ]
  - [   0.0037108822725713,  0.0004458974581212,  0.0051961354911327 ]
  - [   0.0035718786530197,  0.0004728373605758,  0.0048429775051773 ]
  - [   0.0035632995422930,  0.0004671893548220,  0.0055132396519184 ]
  - [   0.0037723379209638,  0.0004784361226484,  0.0051826993003488 ]
  - [   0.0038740667514503,  0.0005460985703394,  0.0049830991774797 ]
  - [   0.0035470686852932,  0.0005139913409948,  0.0051912777125835 ]
  - [   0.0038600862026215,  0.0003833621740341,  0.0053561441600323 ]
  - [   0.0061249290592968, -0.0012053672689945,  0.0042228666134179 ]
  - [   0.0062386151403189,  0.0022636032663286,  0.0062096547335386 ]
  - [   0.0036398444790393,  0.0004581195535138,  0.0051738619804382 ]
  - [  -0.0045245988294482,  0.0006036236882210, -0.0163514036685228 ]
  - [  -0.0039356900379062,  0.0009236168116331, -0.0163779668509960 ]
  - [  -0.0039435327053070,  0.0002972763031721, -0.0163473524153233 ]
  - [  -0.0040232697501779,  0.0002200100570917, -0.0161328241229057 ]
  - [  -0.0038460399955511,  0.0005895420908928, -0.0163610931485891 ]
  - [  -0.0039460761472583,  0.0009960848838091, -0.0165767706930637 ]
  - [  -0.0042129475623369,  0.0005813082680106, -0.0163828320801258 ]
  - [  -0.0036538913846016,  0.0005051828920841, -0.0161391943693161 ]
  - [  -0.0036504268646240,  0.0007063280791044, -0.0165742170065641 ]
  - [  -0.0039614643901587,  0.0005457540974021, -0.0162198934704065 ]
  - [  -0.0039044478908181,  0.0006393203511834, -0.0164899341762066 ]
  - [  -0.0038615930825472,  0.0006278352811933, -0.0163710825145245 ]
- atom:    1
  displacement:
    [  -0.0100000000000000,  0.0000000000000000,  0.0000000000000000 ]
  forces:
  - [   0.0071782832965255, -0.0095908585935831,  0.0109614320099354 ]
  - [  -0.0042192912660539, -0.0096101034432650,  0.0106814894825220 ]
  - [  -0.0042670685797930, -0.0096771502867341,  0.0111006069928408 ]
  - [  -0.0039644297212362, -0.0093823932111263,  0.0109215397387743 ]
  - [  -0.0040120296180248, -0.0097250379621983,  0.0108743207529187 ]
  - [  -0.0040138727054000, -0.0098213199526072,  0.0108769079670310 ]
  - [  -0.0040880572050810, -0.0096428403630853,  0.0108884647488594 ]
  - [  -0.0040214112959802, -0.0096217934042215,  0.0108880912885070 ]
  - [  -0.0040207970887423, -0.0096575384959579,  0.0108850682154298 ]
  - [  -0.0039969780482352, -0.0096452040597796,  0.0109211690723896 ]
  - [  -0.0040214443579316, -0.0096432669088244,  0.0108779016882181 ]
  - [  -0.0040212967433035, -0.0096324700862169,  0.0108689190819860 ]
  - [   0.0063364487141371,  0.0088285487145185, -0.0082272328436375 ]
  - [   0.0063325511291623,  0.0087156742811203, -0.0084169302135706 ]
  - [   0.0063457889482379,  0.0087697245180607, -0.0083277085795999 ]
  - [   0.0065542496740818,  0.0087763620540500, -0.0083295125514269 ]
  - [   0.0066568506881595,  0.0089169442653656, -0.0085998587310314 ]
  - [   0.0066709220409393,  0.0086184889078140, -0.0080586262047291 ]
  - [   0.0057688797824085,  0.0085682980716228, -0.0078094471246004 ]
  - [   0.0057496735826135,  0.0089950896799564, -0.0088825225830078 ]
  - [   0.0063065188005567,  0.0087670721113682, -0.0083236042410135 ]
  - [   0.0063561685383320,  0.0087938485667109, -0.0083351247012615 ]
  - [   0.0064593013375998,  0.0089479563757777, -0.0082325376570225 ]
  - [   0.0065111694857478,  0.0085899680852890, -0.0084031028673053 ]
  - [   0.0010643427958712, -0.0005012862384319, -0.0048333201557398 ]
  - [   0.0008777014445513, -0.0006548874080181, -0.0049149068072438 ]
  - [   0.0010269870981574, -0.0006619524210691, -0.0049897069111466 ]
  - [  -0.0006315541104414,  0.0001053418964148, -0.0064197275787592 ]
  - [  -0.0006056003039703, -0.0012902719900012, -0.0034441109746695 ]
  - [   0.0008952603675425, -0.0006135571748018, -0.0049080960452557 ]
  - [   0.0010530222207308, -0.0005503711290658, -0.0050122290849686 ]
  - [   0.0009887209162116, -0.0006007952615619, -0.0049149142578244 ]
  - [   0.0010675971861929, -0.0006627803668380, -0.0048101292923093 ]
  - [   0.0010414051357657, -0.0007424787618220, -0.0049171843566000 ]
  - [   0.0010365366470069, -0.0004755938425660, -0.0049050096422434 ]
  - [   0.0009236880578101, -0.0005999254062772, -0.0049177580513060 ]
  - [  -0.0057979966513813, -0.0019165286794305,  0.0125081464648247 ]
  - [  -0.0057580722495914,  0.0026397611945868,  0.0145025458186865 ]
  - [  -0.0030985360499471,  0.0004042210057378,  0.0135299498215318 ]
  - [  -0.0022398636210710,  0.0003378242254257,  0.0135341417044401 ]
  - [  -0.0031080464832485,  0.0005629714578390,  0.0137528926134109 ]
  - [  -0.0030904219020158,  0.0002747811377048,  0.0133194178342819 ]
  - [  -0.0030323055107147,  0.0005240309983492,  0.0133926197886467 ]
  - [  -0.0030362601391971,  0.0002738144248724,  0.0136764310300350 ]
  - [  -0.0030910149216652,  0.0003962814807892,  0.0135310692712665 ]
  - [  -0.0030861943960190,  0.0003857575356960,  0.0135419806465507 ]
  - [  -0.0031497571617365,  0.0003714505583048,  0.0135627938434482 ]
  - [  -0.0031169005669653,  0.0004334170371294,  0.0134963514283299 ]
  - [   0.0037796106189489,  0.0004622901324183,  0.0051619438454509 ]
  - [   0.0036340330261737,  0.0004564758855850,  0.0052139693871140 ]
  - [   0.0036946155596524,  0.0004997765645385,  0.0051541966386139 ]
  - [   0.0038342163898051,  0.0004687074106187,  0.0055136261507869 ]
  - [   0.0038397526368499,  0.0004770297091454,  0.0048465933650732 ]
  - [   0.0036275559104979,  0.0004682047292590,  0.0051741981878877 ]
  - [   0.0035241059958935,  0.0003976572770625,  0.0053650280460715 ]
  - [   0.0038583166897297,  0.0004426809027791,  0.0051612630486488 ]
  - [   0.0035522133111954,  0.0005596764385700,  0.0049952268600464 ]
  - [   0.0012288640718907,  0.0022031615953892,  0.0061543686315417 ]
  - [   0.0012206970714033, -0.0012628482654691,  0.0041718948632479 ]
  - [   0.0037710843607783,  0.0004879191401415,  0.0051756403408945 ]
  - [  -0.0032053305767477,  0.0006152912974358, -0.0163490772247314 ]
  - [  -0.0037861401215196,  0.0002900790423155, -0.0163393914699554 ]
  - [  -0.0037893229164183,  0.0009153466671705, -0.0163699220865965 ]
  - [  -0.0037041595205665,  0.0009837979450822, -0.0165769886225462 ]
  - [  -0.0038848901167512,  0.0006199525669217, -0.0163525510579348 ]
  - [  -0.0037848213687539,  0.0002081729471684, -0.0161328166723251 ]
  - [  -0.0035161580890417,  0.0006148163229227, -0.0163460560142994 ]
  - [  -0.0040729641914368,  0.0007015494629741, -0.0165727529674768 ]
  - [  -0.0040816143155098,  0.0005016643553972, -0.0161392912268639 ]
  - [  -0.0037635611370206,  0.0006632860749960, -0.0164974965155125 ]
  - [  -0.0038253013044596,  0.0005681244656444, -0.0162260979413986 ]
  - [  -0.0038637239485979,  0.0005799811333418, -0.0163464602082968 ]
- atom:    1
  displacement:
    [   0.0041563593050744,  0.0090953107328514,  0.0000000000000000 ]
  forces:
  - [  -0.0086806789040565, -0.0233415402472019,  0.0090720253065228 ]
  - [  -0.0038827930111438, -0.0094628157094121,  0.0111148860305548 ]
  - [  -0.0039489073678851, -0.0094355810433626,  0.0109408376738429 ]
  - [  -0.0042658164165914, -0.0101950094103813,  0.0108492644503713 ]
  - [  -0.0038529164157808, -0.0098249427974224,  0.0108318654820323 ]
  - [  -0.0039361934177577, -0.0097852488979697,  0.0109157143160701 ]
  - [  -0.0039791790768504, -0.0097639216110110,  0.0105645265430212 ]
  - [  -0.0039927726611495, -0.0096336929127574,  0.0108902454376221 ]
  - [  -0.0040252744220197, -0.0096175195649266,  0.0108954310417175 ]
  - [  -0.0040165339596570, -0.0096420999616385,  0.0108333379030228 ]
  - [  -0.0040172464214265, -0.0096372719854116,  0.0108474064618349 ]
  - [  -0.0040062880143523, -0.0096430983394384,  0.0108788274228573 ]
  - [   0.0062825549393892,  0.0087213013321161, -0.0084269968792796 ]
  - [   0.0063876910135150,  0.0087727718055248, -0.0083553735166788 ]
  - [   0.0063298069871962,  0.0087660606950521, -0.0083268461748958 ]
  - [   0.0062373690307140,  0.0090775229036808, -0.0084682535380125 ]
  - [   0.0060664224438369,  0.0087308250367641, -0.0080753453075886 ]
  - [   0.0063347667455673,  0.0087710022926331, -0.0083322925493121 ]
  - [   0.0067412699572742,  0.0090720858424902, -0.0088039282709360 ]
  - [   0.0063681025058031,  0.0089198891073465, -0.0083837872371078 ]
  - [   0.0063504371792078,  0.0087581314146519, -0.0083154821768403 ]
  - [   0.0063044149428606,  0.0090007800608873, -0.0081615969538689 ]
  - [   0.0061107985675335,  0.0084964297711849, -0.0084878671914339 ]
  - [   0.0064247054979205,  0.0087129268795252, -0.0084004681557417 ]
  - [   0.0007558650104329, -0.0011469433084130, -0.0048856325447559 ]
  - [   0.0010111883748323, -0.0006663044914603, -0.0050252182409167 ]
  - [   0.0010763790924102, -0.0006972765550017, -0.0049586659297347 ]
  - [   0.0010052856523544, -0.0004209736362100, -0.0047917179763317 ]
  - [   0.0022314433008432,  0.0001718979328871, -0.0060485750436783 ]
  - [   0.0009898148709908, -0.0006343955174088, -0.0049361679702997 ]
  - [   0.0008675318676978, -0.0006986851803958, -0.0048556048423052 ]
  - [   0.0009342541452497, -0.0003820601850748, -0.0048607308417559 ]
  - [   0.0009700420778245, -0.0006540752947330, -0.0049311490729451 ]
  - [   0.0010874350555241, -0.0006378749385476, -0.0050009540282190 ]
  - [   0.0007752231322229, -0.0007264157757163, -0.0050279907882214 ]
  - [   0.0009545172215439, -0.0005756393074989, -0.0048973690718412 ]
  - [   0.0004206837038510,  0.0031479941681027,  0.0151544399559498 ]
  - [  -0.0044975844211876,  0.0012651486322284,  0.0143218934535980 ]
  - [  -0.0031451713293791,  0.0003870725631714,  0.0135530009865761 ]
  - [  -0.0034861015155911,  0.0052207168191671,  0.0112478919327259 ]
  - [  -0.0032478542998433,  0.0002076476812363,  0.0134298410266638 ]
  - [  -0.0030051656067371,  0.0003612721338868,  0.0135657563805580 ]
  - [  -0.0031485378276557,  0.0003967657685280,  0.0135406069457531 ]
  - [  -0.0031589465215802,  0.0004974100738764,  0.0134236002340913 ]
  - [  -0.0031235187780112,  0.0003884434700012,  0.0135535746812820 ]
  - [  -0.0031438102014363,  0.0004049586132169,  0.0135114481672645 ]
  - [  -0.0031048525124788,  0.0003360016271472,  0.0135904718190432 ]
  - [  -0.0031047239899635,  0.0003868862986565,  0.0135667538270354 ]
  - [   0.0036518450360745,  0.0004795683780685,  0.0051730950362980 ]
  - [   0.0037529692053795,  0.0005284924991429,  0.0051498925313354 ]
  - [   0.0037039325106889,  0.0004877019673586,  0.0051887119188905 ]
  - [   0.0036614264827222,  0.0004846421070397,  0.0050508938729763 ]
  - [   0.0036245107185096,  0.0004846120718867,  0.0053235325030982 ]
  - [   0.0037373187951744,  0.0004668282344937,  0.0051750512793660 ]
  - [   0.0036964486353099,  0.0005205941852182,  0.0050911493599415 ]
  - [   0.0036615580320358,  0.0028492370620370,  0.0040842816233635 ]
  - [   0.0038422197103500,  0.0004115356132388,  0.0052093714475632 ]
  - [   0.0023616482503712,  0.0012022826122120,  0.0056665614247322 ]
  - [   0.0072190174832940,  0.0027762274257839,  0.0065646856091917 ]
  - [   0.0036792077589780,  0.0004780594608746,  0.0051804184913635 ]
  - [  -0.0041413847357035,  0.0009403722360730, -0.0149758430197835 ]
  - [  -0.0040041254833341,  0.0006883181631565, -0.0162619017064571 ]
  - [  -0.0037944121286273,  0.0004844777286053, -0.0162768755108118 ]
  - [  -0.0039144619368017,  0.0002242028713226, -0.0162970535457134 ]
  - [  -0.0037993742153049,  0.0006499839946628, -0.0163644906133413 ]
  - [  -0.0039710970595479,  0.0005445582792163, -0.0164703838527203 ]
  - [  -0.0040163155645132,  0.0008168891072273, -0.0146504892036319 ]
  - [  -0.0036902055144310,  0.0004290863871574, -0.0162067711353302 ]
  - [  -0.0038683861494064,  0.0004851371049881, -0.0163806788623333 ]
  - [  -0.0037446785718203,  0.0005595553666353, -0.0164135787636042 ]
  - [  -0.0040455451235175,  0.0005988758057356, -0.0165291856974363 ]
  - [  -0.0038493536412716,  0.0006602257490158, -0.0163660105317831 ]
- atom:    1
  displacement:
    [  -0.0041563593050744, -0.0090953107328514,  0.0000000000000000 ]
  forces:
  - [   0.0006814374355599,  0.0040362458676100,  0.0127433463931084 ]
  - [  -0.0041368436068296, -0.0098200067877769,  0.0106645449995995 ]
  - [  -0.0040801092982292, -0.0098489988595247,  0.0108367791399360 ]
  - [  -0.0037538437172771, -0.0090860771015286,  0.0109337158501148 ]
  - [  -0.0041767782531679, -0.0094554666429758,  0.0109473904594779 ]
  - [  -0.0040907193906605, -0.0094933370128274,  0.0108623253181577 ]
  - [  -0.0040467972867191, -0.0095155006274581,  0.0112171107903123 ]
  - [  -0.0040319366380572, -0.0096482448279858,  0.0108860787004232 ]
  - [  -0.0039977384731174, -0.0096625415608287,  0.0108823161572218 ]
  - [  -0.0040117343887687, -0.0096382573246956,  0.0109436511993408 ]
  - [  -0.0040085809305310, -0.0096427313983440,  0.0109304618090391 ]
  - [  -0.0040195011533797, -0.0096384091302752,  0.0109004117548466 ]
  - [   0.0063857017084956,  0.0088202375918627, -0.0082264663651586 ]
  - [   0.0062802871689200,  0.0087656117975712, -0.0083022732287645 ]
  - [   0.0063366526737809,  0.0087752342224121, -0.0083269290626049 ]