# Tetrahedron method
       -0.8452947593        0.0000000000
       -0.7961545890        0.0000000000
       -0.7470144187        0.0000000000
       -0.6978742484        0.0000000000
       -0.6487340781        0.0000000000
       -0.5995939078        0.0000000000
       -0.5504537374        0.0000000000
       -0.5013135671        0.0000000000
       -0.4521733968        0.0000000000
       -0.4030332265        0.0000000000
       -0.3538930562        0.0000000000
       -0.3047528859        0.0000000000
       -0.2556127156        0.0000000000
       -0.2064725452        0.0000000000
       -0.1573323749        0.0000000000
       -0.1081922046        0.0000000000
       -0.0590520343        0.0000000000
       -0.0099118640        0.0000863981
        0.0392283063        0.0024012951
        0.0883684766        0.0094040656
        0.1375086470        0.0288510544
        0.1866488173        0.0544894317
        0.2357889876        0.0844947935
        0.2849291579        0.1179514281
        0.3340693282        0.1612515124
        0.3832094985        0.2073755018
        0.4323496688        0.2595708490
        0.4814898392        0.3208534241
        0.5306300095        0.3893566533
        0.5797701798        0.4683467974
        0.6289103501        0.5576289693
        0.6780505204        0.6628738484
        0.7271906907        0.9332037553
        0.7763308610        1.1124284496
        0.8254710314        1.2646987007
        0.8746112017        1.4790544001
        0.9237513720        1.7333705803
        0.9728915423        1.9456660807
        1.0220317126        2.0589206631
        1.0711718829        2.1654976618
        1.1203120532        2.2648904451
        1.1694522235        2.3380156827
        1.2185923939        2.4633186438
        1.2677325642        2.8690078537
        1.3168727345        3.3743682046
        1.3660129048        3.9342073474
        1.4151530751        4.0687961530
        1.4642932454        5.0190684179
        1.5134334157        5.2774314501
        1.5625735861        5.3639068374
        1.6117137564        5.5261188280
        1.6608539267        6.8191981327
        1.7099940970        7.6380644567
        1.7591342673        6.0687675493
        1.8082744376        7.5293249702
        1.8574146079        7.2091133414
        1.9065547783        8.1268902441
        1.9556949486        7.4737112314
        2.0048351189        7.9154499493
        2.0539752892        6.3515073653
        2.1031154595        4.3479403842
        2.1522556298        5.3481219296
        2.2013958001        6.9504705258
        2.2505359705        5.7761988290
        2.2996761408        5.1905023821
        2.3488163111        5.5304906994
        2.3979564814        7.1483110461
        2.4470966517        5.5505380916
        2.4962368220        7.8861180269
        2.5453769923        7.0582706262
        2.5945171627        9.0126773043
        2.6436573330        6.6122846348
        2.6927975033        4.0810499358
        2.7419376736        4.0615242326
        2.7910778439        3.6161872599
        2.8402180142        3.5865309587
        2.8893581845        3.7223829621
        2.9384983549        2.1412699989
        2.9876385252        0.7689334056
        3.0367786955        0.2753674329
        3.0859188658        0.1593981329
        3.1350590361        0.8700731764
        3.1841992064        1.6558411578
        3.2333393767        2.2564001942
        3.2824795470        2.5438797338
        3.3316197174        2.7482565537
        3.3807598877        3.0945990226
        3.4299000580        3.2137196890
        3.4790402283        2.9799347218
        3.5281803986        0.0000000000
        3.5773205689        0.0000000000
        3.6264607392        0.0000000000
        3.6756009096        0.0000000000
        3.7247410799        0.0000000000
        3.7738812502        0.0000000000
        3.8230214205        0.0000000000
        3.8721615908        0.0000000000
        3.9213017611        0.0000000000
        3.9704419314        0.0000000000
        4.0195821018        0.0000000000
        4.0687222721        0.0000000000
        4.1178624424        0.0000000000
        4.1670026127        0.0000000000
        4.2161427830        0.0000000000
        4.2652829533        0.0000000000
        4.3144231236        0.0000000000
        4.3635632940        0.0000000000
        4.4127034643        0.0000000000
        4.4618436346        0.0000000000
        4.5109838049        0.0000000000
        4.5601239752        0.0000000000
        4.6092641455        0.0000000000
        4.6584043158        0.0000000000
        4.7075444862        0.0000000000
        4.7566846565        0.0000000000
        4.8058248268        0.0000000000
        4.8549649971        0.0000000000
        4.9041051674        0.0000000000
        4.9532453377        0.0000000000
        5.0023855080        0.0000000000
        5.0515256783        0.0000000000
        5.1006658487        0.0000000000
        5.1498060190        0.1448332842
        5.1989461893        0.2699678323
        5.2480863596        0.3908306777
        5.2972265299        0.5267597404
        5.3463667002        0.7261907146
        5.3955068705        0.9038316067
        5.4446470409        1.0835367530
        5.4937872112        1.5355911161
        5.5429273815        2.4614746736
        5.5920675518        2.6454505419
        5.6412077221        2.4541248121
        5.6903478924        2.0827364275
        5.7394880627        1.5784187105
        5.7886282331        1.4890014403
        5.8377684034        1.5270117132
        5.8869085737        1.4849523839
        5.9360487440        1.8884543943
        5.9851889143        2.8170445792
        6.0343290846        3.6106340881
        6.0834692549        3.4871689604
        6.1326094253        3.4595525602
        6.1817495956        2.3827090562
        6.2308897659        1.4507648394
        6.2800299362        1.0435875074
        6.3291701065        0.8311311186
        6.3783102768        1.2713995626
        6.4274504471        1.9952129480
        6.4765906175        2.4830215233
        6.5257307878        2.9645776141
        6.5748709581        3.0557912403
        6.6240111284        3.5985836077
        6.6731512987        4.4101584600
        6.7222914690        5.1089515180
        6.7714316393        4.6452301375
        6.8205718097        4.6260608113
        6.8697119800        2.6615453542
        6.9188521503        1.3159006245
        6.9679923206        1.1005357623
        7.0171324909        0.7826797013
        7.0662726612        0.5144521579
        7.1154128315        0.3618779147
        7.1645530018        0.4563480267
        7.2136931722        0.5838891356
        7.2628333425        0.7985782744
        7.3119735128        1.6245184020
        7.3611136831        2.1029772044
        7.4102538534        2.8424954233
        7.4593940237        3.3681211305
        7.5085341940        3.4741573848
        7.5576743644        3.5681937024
        7.6068145347        3.3194375057
        7.6559547050        2.9269258037
        7.7050948753        2.3771897564
        7.7542350456        2.1763403656
        7.8033752159        2.3980461534
        7.8525153862        1.6148617319
        7.9016555566        1.3022217402
        7.9507957269        1.1368195553
        7.9999358972        1.0256413218
        8.0490760675        0.9415120734
        8.0982162378        0.8618731936
        8.1473564081        0.8620812495
        8.1964965784        0.0000000000
        8.2456367488        0.0000000000
        8.2947769191        0.0000000000
        8.3439170894        0.0000000000
        8.3930572597        0.0000000000
        8.4421974300        0.0000000000
        8.4913376003        0.0000000000
        8.5404777706        0.0000000000
        8.5896179410        0.0000000000
        8.6387581113        0.0000000000
        8.6878982816        0.0000000000
        8.7370384519        0.0000000000
        8.7861786222        0.0000000000
        8.8353187925        0.0000000000
        8.8844589628        0.0000000000
        8.9335991331        0.0000000000
        8.9827393035        0.0000000000
