phonopy:
  version: "2.37.1"
  frequency_unit_conversion_factor: 15.633302
  symmetry_tolerance: 1.00000e-05

space_group:
  type: "P1"
  number: 1
  Hall_symbol: "P 1"

primitive_matrix:
- [  0.000000000000000, -1.000000000000000, -0.000000000000000 ]
- [  1.000000000000000,  0.000000000000000, -1.000000000000000 ]
- [  0.000000000000000,  0.000000000000000,  1.000000000000000 ]

supercell_matrix:
- [   3,   0,   0 ]
- [   0,   3,   0 ]
- [   0,   0,   1 ]

primitive_cell:
  lattice:
  - [     0.003474784788938,     4.259167777000362,     0.000000000000000 ] # a
  - [    -4.386017236790853,     0.000000000000000,     0.000000000000000 ] # b
  - [     2.188939598998662,    -2.128336077814453,    11.033812021768007 ] # c
  points:
  - symbol: Li # 1
    coordinates: [  0.970020889568728,  0.676867410766485,  0.130142673567368 ]
    mass: 6.940000
  - symbol: Li # 2
    coordinates: [  0.278909100226004,  0.985454852002981,  0.747709976433692 ]
    mass: 6.940000
  - symbol: Li # 3
    coordinates: [  0.186357622805205,  0.393244605219375,  0.564042063710707 ]
    mass: 6.940000
  - symbol: Li # 4
    coordinates: [  0.880781269937421,  0.087238069679570,  0.950626702010148 ]
    mass: 6.940000
  - symbol: Li # 5
    coordinates: [  0.100682785571591,  0.807668083314778,  0.393052104764774 ]
    mass: 6.940000
  - symbol: Ga # 6
    coordinates: [  0.033673667280160,  0.240780228557337,  0.258558758739409 ]
    mass: 69.723000
  - symbol: Ga # 7
    coordinates: [  0.785846908646588,  0.492130174603440,  0.761299117080178 ]
    mass: 69.723000
  - symbol: Ga # 8
    coordinates: [  0.603439423348902,  0.310274378366442,  0.398497525228823 ]
    mass: 69.723000
  - symbol: Ga # 9
    coordinates: [  0.462132365833264,  0.169310676547740,  0.114707339679097 ]
    mass: 69.723000
  - symbol: Sn # 10
    coordinates: [  0.691371707596882,  0.897985266523874,  0.573786585380792 ]
    mass: 118.710000
  - symbol: Sn # 11
    coordinates: [  0.376083767726179,  0.582642563635516,  0.941492410375362 ]
    mass: 118.710000
  reciprocal_lattice: # without 2pi
  - [    -0.000000000000000,     0.234787651568936,     0.045288702442424 ] # a*
  - [    -0.227997279995114,     0.000186008516669,     0.045267053879178 ] # b*
  - [    -0.000000000000000,     0.000000000000000,     0.090630509023278 ] # c*

unit_cell:
  lattice:
  - [     4.386017236790853,     0.000000000000000,     0.000000000000000 ] # a
  - [     0.003474784788937,     4.259167777000363,     0.000000000000000 ] # b
  - [     2.192414383787600,     2.130831699185910,    11.033812021768007 ] # c
  points:
  - symbol: Li # 1
    coordinates: [  0.323132589233515,  0.839878216001359,  0.130142673567368 ]
    mass: 6.940000
    reduced_to: 1
  - symbol: Li # 2
    coordinates: [  0.014545147997019,  0.531199123792312,  0.747709976433692 ]
    mass: 6.940000
    reduced_to: 2
  - symbol: Li # 3
    coordinates: [  0.606755394780625,  0.622315559094498,  0.564042063710707 ]
    mass: 6.940000
    reduced_to: 3
  - symbol: Li # 4
    coordinates: [  0.912761930320430,  0.930154567927272,  0.950626702010148 ]
    mass: 6.940000
    reduced_to: 4
  - symbol: Li # 5
    coordinates: [  0.192331916685222,  0.707630680806817,  0.393052104764774 ]
    mass: 6.940000
    reduced_to: 5
  - symbol: Ga # 6
    coordinates: [  0.759219771442663,  0.775114908540751,  0.258558758739409 ]
    mass: 69.723000
    reduced_to: 6
  - symbol: Ga # 7
    coordinates: [  0.507869825396560,  0.024547791566410,  0.761299117080178 ]
    mass: 69.723000
    reduced_to: 7
  - symbol: Ga # 8
    coordinates: [  0.689725621633558,  0.204941898120079,  0.398497525228823 ]
    mass: 69.723000
    reduced_to: 8
  - symbol: Ga # 9
    coordinates: [  0.830689323452260,  0.347425026154168,  0.114707339679097 ]
    mass: 69.723000
    reduced_to: 9
  - symbol: Sn # 10
    coordinates: [  0.102014733476126,  0.117585122216090,  0.573786585380792 ]
    mass: 118.710000
    reduced_to: 10
  - symbol: Sn # 11
    coordinates: [  0.417357436364484,  0.434591357350817,  0.941492410375362 ]
    mass: 118.710000
    reduced_to: 11

supercell:
  lattice:
  - [    13.158051710372561,     0.000000000000000,     0.000000000000000 ] # a
  - [     0.010424354366812,    12.777503331001089,     0.000000000000000 ] # b
  - [     2.192414383787600,     2.130831699185910,    11.033812021768007 ] # c
  points:
  - symbol: Li # 1
    coordinates: [  0.107710863077838,  0.279959405333786,  0.130142673567368 ]
    mass: 6.940000
    reduced_to: 1
  - symbol: Li # 2
    coordinates: [  0.441044196411172,  0.279959405333786,  0.130142673567368 ]
    mass: 6.940000
    reduced_to: 1
  - symbol: Li # 3
    coordinates: [  0.774377529744505,  0.279959405333786,  0.130142673567368 ]
    mass: 6.940000
    reduced_to: 1
  - symbol: Li # 4
    coordinates: [  0.107710863077838,  0.613292738667120,  0.130142673567368 ]
    mass: 6.940000
    reduced_to: 1
  - symbol: Li # 5
    coordinates: [  0.441044196411172,  0.613292738667120,  0.130142673567368 ]
    mass: 6.940000
    reduced_to: 1
  - symbol: Li # 6
    coordinates: [  0.774377529744505,  0.613292738667120,  0.130142673567368 ]
    mass: 6.940000
    reduced_to: 1
  - symbol: Li # 7
    coordinates: [  0.107710863077838,  0.946626072000453,  0.130142673567368 ]
    mass: 6.940000
    reduced_to: 1
  - symbol: Li # 8
    coordinates: [  0.441044196411172,  0.946626072000453,  0.130142673567368 ]
    mass: 6.940000
    reduced_to: 1
  - symbol: Li # 9
    coordinates: [  0.774377529744505,  0.946626072000453,  0.130142673567368 ]
    mass: 6.940000
    reduced_to: 1
  - symbol: Li # 10
    coordinates: [  0.004848382665673,  0.177066374597437,  0.747709976433692 ]
    mass: 6.940000
    reduced_to: 10
  - symbol: Li # 11
    coordinates: [  0.338181715999006,  0.177066374597437,  0.747709976433692 ]
    mass: 6.940000
    reduced_to: 10
  - symbol: Li # 12
    coordinates: [  0.671515049332340,  0.177066374597437,  0.747709976433692 ]
    mass: 6.940000
    reduced_to: 10
  - symbol: Li # 13
    coordinates: [  0.004848382665673,  0.510399707930771,  0.747709976433692 ]
    mass: 6.940000
    reduced_to: 10
  - symbol: Li # 14
    coordinates: [  0.338181715999006,  0.510399707930771,  0.747709976433692 ]
    mass: 6.940000
    reduced_to: 10
  - symbol: Li # 15
    coordinates: [  0.671515049332340,  0.510399707930771,  0.747709976433692 ]
    mass: 6.940000
    reduced_to: 10
  - symbol: Li # 16
    coordinates: [  0.004848382665673,  0.843733041264104,  0.747709976433692 ]
    mass: 6.940000
    reduced_to: 10
  - symbol: Li # 17
    coordinates: [  0.338181715999006,  0.843733041264104,  0.747709976433692 ]
    mass: 6.940000
    reduced_to: 10
  - symbol: Li # 18
    coordinates: [  0.671515049332340,  0.843733041264104,  0.747709976433692 ]
    mass: 6.940000
    reduced_to: 10
  - symbol: Li # 19
    coordinates: [  0.202251798260208,  0.207438519698166,  0.564042063710707 ]
    mass: 6.940000
    reduced_to: 19
  - symbol: Li # 20
    coordinates: [  0.535585131593542,  0.207438519698166,  0.564042063710707 ]
    mass: 6.940000
    reduced_to: 19
  - symbol: Li # 21
    coordinates: [  0.868918464926875,  0.207438519698166,  0.564042063710707 ]
    mass: 6.940000
    reduced_to: 19
  - symbol: Li # 22
    coordinates: [  0.202251798260208,  0.540771853031499,  0.564042063710707 ]
    mass: 6.940000
    reduced_to: 19
  - symbol: Li # 23
    coordinates: [  0.535585131593542,  0.540771853031499,  0.564042063710707 ]
    mass: 6.940000
    reduced_to: 19
  - symbol: Li # 24
    coordinates: [  0.868918464926875,  0.540771853031499,  0.564042063710707 ]
    mass: 6.940000
    reduced_to: 19
  - symbol: Li # 25
    coordinates: [  0.202251798260208,  0.874105186364833,  0.564042063710707 ]
    mass: 6.940000
    reduced_to: 19
  - symbol: Li # 26
    coordinates: [  0.535585131593542,  0.874105186364833,  0.564042063710707 ]
    mass: 6.940000
    reduced_to: 19
  - symbol: Li # 27
    coordinates: [  0.868918464926875,  0.874105186364833,  0.564042063710707 ]
    mass: 6.940000
    reduced_to: 19
  - symbol: Li # 28
    coordinates: [  0.304253976773477,  0.310051522642424,  0.950626702010148 ]
    mass: 6.940000
    reduced_to: 28
  - symbol: Li # 29
    coordinates: [  0.637587310106810,  0.310051522642424,  0.950626702010148 ]
    mass: 6.940000
    reduced_to: 28
  - symbol: Li # 30
    coordinates: [  0.970920643440143,  0.310051522642424,  0.950626702010148 ]
    mass: 6.940000
    reduced_to: 28
  - symbol: Li # 31
    coordinates: [  0.304253976773477,  0.643384855975757,  0.950626702010148 ]
    mass: 6.940000
    reduced_to: 28
  - symbol: Li # 32
    coordinates: [  0.637587310106810,  0.643384855975757,  0.950626702010148 ]
    mass: 6.940000
    reduced_to: 28
  - symbol: Li # 33
    coordinates: [  0.970920643440143,  0.643384855975757,  0.950626702010148 ]
    mass: 6.940000
    reduced_to: 28
  - symbol: Li # 34
    coordinates: [  0.304253976773477,  0.976718189309091,  0.950626702010148 ]
    mass: 6.940000
    reduced_to: 28
  - symbol: Li # 35
    coordinates: [  0.637587310106810,  0.976718189309091,  0.950626702010148 ]
    mass: 6.940000
    reduced_to: 28
  - symbol: Li # 36
    coordinates: [  0.970920643440143,  0.976718189309091,  0.950626702010148 ]
    mass: 6.940000
    reduced_to: 28
  - symbol: Li # 37
    coordinates: [  0.064110638895074,  0.235876893602272,  0.393052104764774 ]
    mass: 6.940000
    reduced_to: 37
  - symbol: Li # 38
    coordinates: [  0.397443972228407,  0.235876893602272,  0.393052104764774 ]
    mass: 6.940000
    reduced_to: 37
  - symbol: Li # 39
    coordinates: [  0.730777305561741,  0.235876893602272,  0.393052104764774 ]
    mass: 6.940000
    reduced_to: 37
  - symbol: Li # 40
    coordinates: [  0.064110638895074,  0.569210226935606,  0.393052104764774 ]
    mass: 6.940000
    reduced_to: 37
  - symbol: Li # 41
    coordinates: [  0.397443972228407,  0.569210226935606,  0.393052104764774 ]
    mass: 6.940000
    reduced_to: 37
  - symbol: Li # 42
    coordinates: [  0.730777305561741,  0.569210226935606,  0.393052104764774 ]
    mass: 6.940000
    reduced_to: 37
  - symbol: Li # 43
    coordinates: [  0.064110638895074,  0.902543560268939,  0.393052104764774 ]
    mass: 6.940000
    reduced_to: 37
  - symbol: Li # 44
    coordinates: [  0.397443972228407,  0.902543560268939,  0.393052104764774 ]
    mass: 6.940000
    reduced_to: 37
  - symbol: Li # 45
    coordinates: [  0.730777305561741,  0.902543560268939,  0.393052104764774 ]
    mass: 6.940000
    reduced_to: 37
  - symbol: Ga # 46
    coordinates: [  0.253073257147554,  0.258371636180250,  0.258558758739409 ]
    mass: 69.723000
    reduced_to: 46
  - symbol: Ga # 47
    coordinates: [  0.586406590480888,  0.258371636180250,  0.258558758739409 ]
    mass: 69.723000
    reduced_to: 46
  - symbol: Ga # 48
    coordinates: [  0.919739923814221,  0.258371636180250,  0.258558758739409 ]
    mass: 69.723000
    reduced_to: 46
  - symbol: Ga # 49
    coordinates: [  0.253073257147554,  0.591704969513584,  0.258558758739409 ]
    mass: 69.723000
    reduced_to: 46
  - symbol: Ga # 50
    coordinates: [  0.586406590480888,  0.591704969513584,  0.258558758739409 ]
    mass: 69.723000
    reduced_to: 46
  - symbol: Ga # 51
    coordinates: [  0.919739923814221,  0.591704969513584,  0.258558758739409 ]
    mass: 69.723000
    reduced_to: 46
  - symbol: Ga # 52
    coordinates: [  0.253073257147554,  0.925038302846917,  0.258558758739409 ]
    mass: 69.723000
    reduced_to: 46
  - symbol: Ga # 53
    coordinates: [  0.586406590480888,  0.925038302846917,  0.258558758739409 ]
    mass: 69.723000
    reduced_to: 46
  - symbol: Ga # 54
    coordinates: [  0.919739923814221,  0.925038302846917,  0.258558758739409 ]
    mass: 69.723000
    reduced_to: 46
  - symbol: Ga # 55
    coordinates: [  0.169289941798853,  0.008182597188803,  0.761299117080178 ]
    mass: 69.723000
    reduced_to: 55
  - symbol: Ga # 56
    coordinates: [  0.502623275132187,  0.008182597188803,  0.761299117080178 ]
    mass: 69.723000
    reduced_to: 55
  - symbol: Ga # 57
    coordinates: [  0.835956608465520,  0.008182597188803,  0.761299117080178 ]
    mass: 69.723000
    reduced_to: 55
  - symbol: Ga # 58
    coordinates: [  0.169289941798853,  0.341515930522137,  0.761299117080178 ]
    mass: 69.723000
    reduced_to: 55
  - symbol: Ga # 59
    coordinates: [  0.502623275132187,  0.341515930522137,  0.761299117080178 ]
    mass: 69.723000
    reduced_to: 55
  - symbol: Ga # 60
    coordinates: [  0.835956608465520,  0.341515930522137,  0.761299117080178 ]
    mass: 69.723000
    reduced_to: 55
  - symbol: Ga # 61
    coordinates: [  0.169289941798853,  0.674849263855470,  0.761299117080178 ]
    mass: 69.723000
    reduced_to: 55
  - symbol: Ga # 62
    coordinates: [  0.502623275132187,  0.674849263855470,  0.761299117080178 ]
    mass: 69.723000
    reduced_to: 55
  - symbol: Ga # 63
    coordinates: [  0.835956608465520,  0.674849263855470,  0.761299117080178 ]
    mass: 69.723000
    reduced_to: 55
  - symbol: Ga # 64
    coordinates: [  0.229908540544519,  0.068313966040026,  0.398497525228823 ]
    mass: 69.723000
    reduced_to: 64
  - symbol: Ga # 65
    coordinates: [  0.563241873877853,  0.068313966040026,  0.398497525228823 ]
    mass: 69.723000
    reduced_to: 64
  - symbol: Ga # 66
    coordinates: [  0.896575207211186,  0.068313966040026,  0.398497525228823 ]
    mass: 69.723000
    reduced_to: 64
  - symbol: Ga # 67
    coordinates: [  0.229908540544519,  0.401647299373360,  0.398497525228823 ]
    mass: 69.723000
    reduced_to: 64
  - symbol: Ga # 68
    coordinates: [  0.563241873877853,  0.401647299373360,  0.398497525228823 ]
    mass: 69.723000
    reduced_to: 64
  - symbol: Ga # 69
    coordinates: [  0.896575207211186,  0.401647299373360,  0.398497525228823 ]
    mass: 69.723000
    reduced_to: 64
  - symbol: Ga # 70
    coordinates: [  0.229908540544519,  0.734980632706693,  0.398497525228823 ]
    mass: 69.723000
    reduced_to: 64
  - symbol: Ga # 71
    coordinates: [  0.563241873877853,  0.734980632706693,  0.398497525228823 ]
    mass: 69.723000
    reduced_to: 64
  - symbol: Ga # 72
    coordinates: [  0.896575207211186,  0.734980632706693,  0.398497525228823 ]
    mass: 69.723000
    reduced_to: 64
  - symbol: Ga # 73
    coordinates: [  0.276896441150753,  0.115808342051389,  0.114707339679097 ]
    mass: 69.723000
    reduced_to: 73
  - symbol: Ga # 74
    coordinates: [  0.610229774484087,  0.115808342051389,  0.114707339679097 ]
    mass: 69.723000
    reduced_to: 73
  - symbol: Ga # 75
    coordinates: [  0.943563107817420,  0.115808342051389,  0.114707339679097 ]
    mass: 69.723000
    reduced_to: 73
  - symbol: Ga # 76
    coordinates: [  0.276896441150753,  0.449141675384723,  0.114707339679097 ]
    mass: 69.723000
    reduced_to: 73
  - symbol: Ga # 77
    coordinates: [  0.610229774484087,  0.449141675384723,  0.114707339679097 ]
    mass: 69.723000
    reduced_to: 73
  - symbol: Ga # 78
    coordinates: [  0.943563107817420,  0.449141675384723,  0.114707339679097 ]
    mass: 69.723000
    reduced_to: 73
  - symbol: Ga # 79
    coordinates: [  0.276896441150753,  0.782475008718056,  0.114707339679097 ]
    mass: 69.723000
    reduced_to: 73
  - symbol: Ga # 80
    coordinates: [  0.610229774484087,  0.782475008718056,  0.114707339679097 ]
    mass: 69.723000
    reduced_to: 73
  - symbol: Ga # 81
    coordinates: [  0.943563107817420,  0.782475008718056,  0.114707339679097 ]
    mass: 69.723000
    reduced_to: 73
  - symbol: Sn # 82
    coordinates: [  0.034004911158709,  0.039195040738697,  0.573786585380792 ]
    mass: 118.710000
    reduced_to: 82
  - symbol: Sn # 83
    coordinates: [  0.367338244492042,  0.039195040738697,  0.573786585380792 ]
    mass: 118.710000
    reduced_to: 82
  - symbol: Sn # 84
    coordinates: [  0.700671577825375,  0.039195040738697,  0.573786585380792 ]
    mass: 118.710000
    reduced_to: 82
  - symbol: Sn # 85
    coordinates: [  0.034004911158709,  0.372528374072030,  0.573786585380792 ]
    mass: 118.710000
    reduced_to: 82
  - symbol: Sn # 86
    coordinates: [  0.367338244492042,  0.372528374072030,  0.573786585380792 ]
    mass: 118.710000
    reduced_to: 82
  - symbol: Sn # 87
    coordinates: [  0.700671577825375,  0.372528374072030,  0.573786585380792 ]
    mass: 118.710000
    reduced_to: 82
  - symbol: Sn # 88
    coordinates: [  0.034004911158709,  0.705861707405363,  0.573786585380792 ]
    mass: 118.710000
    reduced_to: 82
  - symbol: Sn # 89
    coordinates: [  0.367338244492042,  0.705861707405363,  0.573786585380792 ]
    mass: 118.710000
    reduced_to: 82
  - symbol: Sn # 90
    coordinates: [  0.700671577825375,  0.705861707405363,  0.573786585380792 ]
    mass: 118.710000
    reduced_to: 82
  - symbol: Sn # 91
    coordinates: [  0.139119145454828,  0.144863785783606,  0.941492410375362 ]
    mass: 118.710000
    reduced_to: 91
  - symbol: Sn # 92
    coordinates: [  0.472452478788161,  0.144863785783606,  0.941492410375362 ]
    mass: 118.710000
    reduced_to: 91
  - symbol: Sn # 93
    coordinates: [  0.805785812121495,  0.144863785783606,  0.941492410375362 ]
    mass: 118.710000
    reduced_to: 91
  - symbol: Sn # 94
    coordinates: [  0.139119145454828,  0.478197119116939,  0.941492410375362 ]
    mass: 118.710000
    reduced_to: 91
  - symbol: Sn # 95
    coordinates: [  0.472452478788161,  0.478197119116939,  0.941492410375362 ]
    mass: 118.710000
    reduced_to: 91
  - symbol: Sn # 96
    coordinates: [  0.805785812121495,  0.478197119116939,  0.941492410375362 ]
    mass: 118.710000
    reduced_to: 91
  - symbol: Sn # 97
    coordinates: [  0.139119145454828,  0.811530452450272,  0.941492410375362 ]
    mass: 118.710000
    reduced_to: 91
  - symbol: Sn # 98
    coordinates: [  0.472452478788161,  0.811530452450272,  0.941492410375362 ]
    mass: 118.710000
    reduced_to: 91
  - symbol: Sn # 99
    coordinates: [  0.805785812121495,  0.811530452450272,  0.941492410375362 ]
    mass: 118.710000
    reduced_to: 91

displacements:
- atom:    1
  displacement:
    [   0.0100000000000000,  0.0000000000000000,  0.0000000000000000 ]
  forces:
  - [  -0.0322231389582157,  0.0003896243870258, -0.0452791750431061 ]
  - [   0.0033675830345601,  0.0003578750183806, -0.0457979366183281 ]
  - [   0.0033576325513422,  0.0003547359956428, -0.0443988814949989 ]
  - [   0.0016644895076752,  0.0003536324948072, -0.0450936630368233 ]
  - [   0.0013147708959877,  0.0001426904345863, -0.0450774952769279 ]
  - [   0.0013138731010258,  0.0005702779744752, -0.0451126024127007 ]
  - [   0.0016655431827530,  0.0003570755943656, -0.0450942665338516 ]
  - [   0.0013123778626323,  0.0005751923308708, -0.0450773909687996 ]
  - [   0.0013180312234908,  0.0001459889463149, -0.0451135486364365 ]
  - [   0.0003355313383508, -0.0019385225605220,  0.0879254639148712 ]
  - [   0.0003417013213038, -0.0019638708326966,  0.0878021568059921 ]
  - [   0.0003306288272142, -0.0019519634079188,  0.0879019498825073 ]
  - [   0.0003375060041435, -0.0019628677982837,  0.0879252701997757 ]
  - [   0.0003414768725634, -0.0019518195185810,  0.0878191888332367 ]
  - [   0.0003315117210150, -0.0019384381594136,  0.0878852531313896 ]
  - [   0.0003550907131284, -0.0019524059025571,  0.0878662541508675 ]
  - [   0.0003568436950445, -0.0019393017282709,  0.0878777205944061 ]
  - [   0.0003481190651655, -0.0019655113574117,  0.0878852978348732 ]
  - [  -0.0003283044206910,  0.0004534021718428,  0.1109926551580429 ]
  - [  -0.0003206361434422,  0.0004619246465154,  0.1111731603741646 ]
  - [  -0.0003322538395878,  0.0004448495456018,  0.1113394200801849 ]
  - [  -0.0003405005845707,  0.0005799542996101,  0.1112794429063797 ]
  - [  -0.0003547977248672,  0.0004442267527338,  0.1111743003129959 ]
  - [  -0.0003443225577939,  0.0003361589042470,  0.1110574305057526 ]
  - [  -0.0003427244955674,  0.0003256573691033,  0.1112804040312767 ]
  - [  -0.0003545123036020,  0.0004529455618467,  0.1111826375126839 ]
  - [  -0.0003423702728469,  0.0005787606351078,  0.1110495105385780 ]
  - [   0.0029554087668657, -0.0023427624255419, -0.1393032670021057 ]
  - [   0.0009463923051953, -0.0023465231060982, -0.1365882009267807 ]
  - [   0.0029340633191168, -0.0023516500368714, -0.1339159905910492 ]
  - [   0.0008958326652646, -0.0021256385371089, -0.1367328315973282 ]
  - [   0.0009370343759656, -0.0023468174040318, -0.1365893781185150 ]
  - [   0.0008937548846006, -0.0025668106973171, -0.1364470422267914 ]
  - [   0.0008957786485553, -0.0025697757955641, -0.1367341578006744 ]
  - [   0.0009364434517920, -0.0023467366117984, -0.1365883648395538 ]
  - [   0.0008974932134151, -0.0021310574375093, -0.1364498436450958 ]
  - [  -0.0030529075302184,  0.0012863762676716,  0.0245843306183815 ]
  - [  -0.0036305552348495,  0.0012850696220994,  0.0237950235605240 ]
  - [  -0.0036405948922038,  0.0012844243319705,  0.0254048779606819 ]
  - [  -0.0020800870843232,  0.0012858463451266,  0.0245898813009262 ]
  - [  -0.0021751518361270,  0.0012737174984068,  0.0245925039052963 ]
  - [  -0.0021766335703433,  0.0012984469067305,  0.0245936438441277 ]
  - [  -0.0020804386585951,  0.0012840533163399,  0.0245914533734322 ]
  - [  -0.0021744421683252,  0.0012974253622815,  0.0245906487107277 ]
  - [  -0.0021727501880378,  0.0012727878056467,  0.0245941504836082 ]
  - [   0.0130199603736401,  0.0010686328168958,  0.0242241267114878 ]
  - [  -0.0001293101813644,  0.0010835423599929,  0.0140886679291725 ]
  - [   0.0127599956467748,  0.0010968814603984,  0.0041754906997085 ]
  - [  -0.0000397160183638,  0.0006917034625076,  0.0139931160956621 ]
  - [   0.0000601888168603,  0.0010810787789524,  0.0140895042568445 ]
  - [  -0.0000366931781173,  0.0014640304725617,  0.0141805885359645 ]
  - [  -0.0000441763550043,  0.0014738349709660,  0.0139949126169086 ]
  - [   0.0000569580588490,  0.0010828661033884,  0.0140872672200203 ]
  - [  -0.0000429092906415,  0.0006920390878804,  0.0141851827502251 ]
  - [   0.0009349458850920, -0.0002817689673975, -0.0468560308218002 ]
  - [   0.0007769276271574, -0.0003081895411015, -0.0468992516398430 ]
  - [   0.0007994976476766, -0.0002876542857848, -0.0468838326632977 ]
  - [   0.0006785060395487, -0.0003041349118575, -0.0468585342168808 ]
  - [   0.0007383052143268, -0.0002948025357910, -0.0469010844826698 ]
  - [   0.0007597141666338, -0.0002857679792214, -0.0468838475644588 ]
  - [   0.0009244801476598, -0.0002951937203761, -0.0468794330954552 ]
  - [   0.0007951585575938, -0.0002780961222015, -0.0468987785279751 ]
  - [   0.0007902696379460, -0.0003086194919888, -0.0468595996499062 ]
  - [  -0.0016434988938272,  0.0021144782658666, -0.2085485607385635 ]
  - [  -0.0017726382939145,  0.0022047413513064, -0.2090312093496323 ]
  - [  -0.0016518984921277,  0.0022968389093876, -0.2095086425542831 ]
  - [  -0.0016682879067957,  0.0022913364227861, -0.2085521817207336 ]
  - [  -0.0017629582434893,  0.0022029087413102, -0.2090457081794739 ]
  - [  -0.0016413924749941,  0.0021063743624836, -0.2094906568527222 ]
  - [  -0.0018111994722858,  0.0022016249131411, -0.2089639753103256 ]
  - [  -0.0018368257442489,  0.0022004297934473, -0.2090311497449875 ]
  - [  -0.0018146758666262,  0.0022049355320632, -0.2090927064418793 ]
  - [   0.0032568005844951, -0.0014653792604804,  0.2500616908073425 ]
  - [   0.0020733801648021, -0.0001299318973906,  0.2507057189941406 ]
  - [   0.0032061357051134,  0.0011559936683625,  0.2513291239738464 ]
  - [   0.0032461602240801,  0.0011887027649209,  0.2500710785388947 ]
  - [   0.0020745648071170, -0.0001301343581872,  0.2507067918777466 ]
  - [   0.0032238871790469, -0.0014281787443906,  0.2513240575790405 ]
  - [   0.0020943889394403, -0.0001314828696195,  0.2507418394088745 ]
  - [   0.0021003400906920, -0.0001319986768067,  0.2507048249244690 ]
  - [   0.0020927167497575, -0.0001304286706727,  0.2506688535213470 ]
  - [  -0.0008839771617204,  0.0014113187789917,  0.0447612851858139 ]
  - [  -0.0011354738380760,  0.0014641487505287,  0.0446470379829407 ]
  - [  -0.0011367968982086,  0.0013699297560379,  0.0448812767863274 ]
  - [  -0.0008828060817905,  0.0014126282185316,  0.0447013080120087 ]
  - [  -0.0011311242124066,  0.0013681799173355,  0.0447075366973877 ]
  - [  -0.0011396599002182,  0.0014598201960325,  0.0448808632791042 ]
  - [  -0.0010358807630837,  0.0014189649373293,  0.0447624698281288 ]
  - [  -0.0010551419109106,  0.0014110608026385,  0.0447578877210617 ]
  - [  -0.0010554334148765,  0.0014142887666821,  0.0447739288210869 ]
  - [  -0.0001813611597754, -0.0020577814429998, -0.0955828726291656 ]
  - [  -0.0005165497423150, -0.0021291915327311, -0.0953365638852119 ]
  - [  -0.0005203138571233, -0.0020137168467045, -0.0958680361509323 ]
  - [  -0.0001806720392779, -0.0020857267081738, -0.0955880731344223 ]
  - [  -0.0005193582619540, -0.0020137391984463, -0.0953374505043030 ]
  - [  -0.0005148574127816, -0.0021285256370902, -0.0958608984947205 ]
  - [  -0.0003010723739862, -0.0020700911991298, -0.0956029966473579 ]
  - [  -0.0002963412553072, -0.0020707235671580, -0.0956126973032951 ]
  - [  -0.0002980073913932, -0.0020727799274027, -0.0955915451049805 ]
- atom:    1
  displacement:
    [  -0.0100000000000000,  0.0000000000000000,  0.0000000000000000 ]
  forces:
  - [   0.0351658239960670,  0.0003211498260498, -0.0454075410962105 ]
  - [  -0.0004197134985588,  0.0003541031037457, -0.0444008782505989 ]
  - [  -0.0004304961184971,  0.0003572911955416, -0.0457988530397415 ]
  - [   0.0012737312354147,  0.0003531333059072, -0.0450947135686874 ]
  - [   0.0016222061822191,  0.0005635823472403, -0.0451115295290947 ]
  - [   0.0016295698005706,  0.0001360622700304, -0.0450779795646667 ]
  - [   0.0012748329900205,  0.0003587349201553, -0.0450961813330650 ]
  - [   0.0016281062271446,  0.0001408671960235, -0.0451116412878036 ]
  - [   0.0016251751221716,  0.0005694592837244, -0.0450768843293190 ]
  - [   0.0003688944852911, -0.0019643984269351,  0.0878274440765381 ]
  - [   0.0003662407398224, -0.0019391586538404,  0.0879504829645157 ]
  - [   0.0003742389380932, -0.0019517183536664,  0.0878528356552124 ]
  - [   0.0003664702526294, -0.0019392870599404,  0.0878271609544754 ]
  - [   0.0003668870776892, -0.0019498602487147,  0.0879330262541771 ]
  - [   0.0003753211349249, -0.0019639390520751,  0.0878683477640152 ]
  - [   0.0003515811404213, -0.0019527685362846,  0.0878870189189911 ]
  - [   0.0003495980054140, -0.0019653812050819,  0.0878743082284927 ]
  - [   0.0003587286919355, -0.0019398045260459,  0.0878679007291794 ]
  - [  -0.0003629417042248,  0.0004534919280559,  0.1113425195217133 ]
  - [  -0.0003728368028533,  0.0004442417121027,  0.1111645102500916 ]
  - [  -0.0003620948409662,  0.0004627296584658,  0.1109957247972488 ]
  - [  -0.0003513760166243,  0.0003278448421042,  0.1110626235604286 ]
  - [  -0.0003376640961505,  0.0004621611442417,  0.1111649870872498 ]
  - [  -0.0003504701016936,  0.0005713819991797,  0.1112847179174423 ]
  - [  -0.0003495188138913,  0.0005773867014796,  0.1110627874732018 ]
  - [  -0.0003393538645469,  0.0004531817394309,  0.1111580729484558 ]
  - [  -0.0003507101500873,  0.0003244607069064,  0.1112925261259079 ]
  - [  -0.0011560334824026, -0.0023485142737627, -0.1339157819747925 ]
  - [   0.0008315923623741, -0.0023463005200028, -0.1365900486707687 ]
  - [  -0.0011777486652136, -0.0023401668295264, -0.1393034756183624 ]
  - [   0.0008816057816148, -0.0025660274550319, -0.1364491581916809 ]
  - [   0.0008427174761891, -0.0023464849218726, -0.1365883201360703 ]
  - [   0.0008826479315758, -0.0021231248974800, -0.1367346942424774 ]
  - [   0.0008805687539279, -0.0021290609147400, -0.1364478170871735 ]
  - [   0.0008423076942563, -0.0023474832996726, -0.1365900933742523 ]
  - [   0.0008830209262669, -0.0025681313127279, -0.1367327868938446 ]
  - [  -0.0012318224180490,  0.0012850929051638,  0.0245844386518002 ]
  - [  -0.0006438540876843,  0.0012862067669630,  0.0254075378179550 ]
  - [  -0.0006617908366024,  0.0012849306222051,  0.0237967371940613 ]
  - [  -0.0022063367068768,  0.0012860763818026,  0.0245925560593605 ]
  - [  -0.0021126526407897,  0.0012988668167964,  0.0245920009911060 ]
  - [  -0.0021132626570761,  0.0012727724388242,  0.0245909541845322 ]
  - [  -0.0022063148207963,  0.0012846755562350,  0.0245916992425919 ]
  - [  -0.0021110977977514,  0.0012715847697109,  0.0245943255722523 ]
  - [  -0.0021102889440954,  0.0012981751933694,  0.0245910286903381 ]
  - [  -0.0125755760818720,  0.0010960674844682,  0.0042368066497147 ]
  - [   0.0002461061812937,  0.0010819205781445,  0.0140867363661528 ]
  - [  -0.0129849566146731,  0.0010691066272557,  0.0242867991328239 ]
  - [   0.0001531129237264,  0.0014699390158057,  0.0141841471195221 ]
  - [   0.0000520853791386,  0.0010825213976204,  0.0140871033072472 ]
  - [   0.0001520668156445,  0.0006973287090659,  0.0139951324090362 ]
  - [   0.0001537243369967,  0.0006927940412425,  0.0141827445477247 ]
  - [   0.0000488564837724,  0.0010828527156264,  0.0140873175114393 ]
  - [   0.0001536777708679,  0.0014756440650672,  0.0139941200613976 ]
  - [   0.0006539410678670, -0.0003012941451743, -0.0469011999666691 ]
  - [   0.0008110316121019, -0.0002777046174742, -0.0468618609011173 ]
  - [   0.0007890153792687, -0.0002992724184878, -0.0468774773180485 ]
  - [   0.0009100781171583, -0.0002852734760381, -0.0469043254852295 ]
  - [   0.0008508833707310, -0.0002949765184894, -0.0468614324927330 ]
  - [   0.0008274604333565, -0.0003029677027371, -0.0468786135315895 ]
  - [   0.0006634058081545, -0.0002943898434751, -0.0468773581087589 ]
  - [   0.0007918809424154, -0.0003083489136770, -0.0468617193400860 ]
  - [   0.0007980923401192, -0.0002789880381897, -0.0468994230031967 ]
  - [  -0.0019949697889388,  0.0023035854101181, -0.2095129489898682 ]
  - [  -0.0018647753167897,  0.0022023380734026, -0.2090281844139099 ]