# Thermal properties / unit cell (natom)

unit:
  temperature:   K
  free_energy:   kJ/mol
  entropy:       J/K/mol
  heat_capacity: J/K/mol

natom: 11   
cutoff_frequency: 0.00000
num_modes: 163944
num_integrated_modes: 163942

zero_point_energy:      34.4794864

thermal_properties:
- temperature:         0.0000000
  free_energy:        34.4794864
  entropy:             0.0000000
  heat_capacity:       0.0000000
  energy:             34.4794864

- temperature:        10.0000000
  free_energy:        34.4772808
  entropy:             0.9128337
  heat_capacity:       3.1287673
  energy:             34.4864092

- temperature:        20.0000000
  free_energy:        34.4394146
  entropy:             7.9317813
  heat_capacity:      21.2758803
  energy:             34.5980502

- temperature:        30.0000000
  free_energy:        34.2978234
  entropy:            21.1611153
  heat_capacity:      45.8999596
  energy:             34.9326569

- temperature:        40.0000000
  free_energy:        34.0053646
  entropy:            37.6811832
  heat_capacity:      69.6993798
  energy:             35.5126119

- temperature:        50.0000000
  free_energy:        33.5397544
  entropy:            55.5684873
  heat_capacity:      91.0111129
  energy:             36.3181787

- temperature:        60.0000000
  free_energy:        32.8926243
  entropy:            73.8824184
  heat_capacity:     110.1380475
  energy:             37.3255694

- temperature:        70.0000000
  free_energy:        32.0621810
  entropy:            92.1801665
  heat_capacity:     127.4137226
  energy:             38.5147926

- temperature:        80.0000000
  free_energy:        31.0498618
  entropy:           110.2285257
  heat_capacity:     142.9774794
  energy:             39.8681439

- temperature:        90.0000000
  free_energy:        29.8589108
  entropy:           127.8884287
  heat_capacity:     156.8999965
  energy:             41.3688694

- temperature:       100.0000000
  free_energy:        28.4936828
  entropy:           145.0725853
  heat_capacity:     169.2628427
  energy:             43.0009413

- temperature:       110.0000000
  free_energy:        26.9592246
  entropy:           161.7279147
  heat_capacity:     180.1771127
  energy:             44.7492952

- temperature:       120.0000000
  free_energy:        25.2609842
  entropy:           177.8259432
  heat_capacity:     189.7757888
  energy:             46.6000973

- temperature:       130.0000000
  free_energy:        23.4045999
  entropy:           193.3561434
  heat_capacity:     198.2006486
  energy:             48.5408985

- temperature:       140.0000000
  free_energy:        21.3957473
  entropy:           208.3208384
  heat_capacity:     205.5915034
  energy:             50.5606647

- temperature:       150.0000000
  free_energy:        19.2400313
  entropy:           222.7312575
  heat_capacity:     212.0793522
  energy:             52.6497200

- temperature:       160.0000000
  free_energy:        16.9429130
  entropy:           236.6045361
  heat_capacity:     217.7828682
  energy:             54.7996388

- temperature:       170.0000000
  free_energy:        14.5096619
  entropy:           249.9614876
  heat_capacity:     222.8071843
  energy:             57.0031148

- temperature:       180.0000000
  free_energy:        11.9453282
  entropy:           262.8249865
  heat_capacity:     227.2440748
  energy:             59.2538258

- temperature:       190.0000000
  free_energy:         9.2547278
  entropy:           275.2188222
  heat_capacity:     231.1728913
  energy:             61.5463040

- temperature:       200.0000000
  free_energy:         6.4424375
  entropy:           287.1669045
  heat_capacity:     234.6618374
  energy:             63.8758184

- temperature:       210.0000000
  free_energy:         3.5127971
  entropy:           298.6927289
  heat_capacity:     237.7693362
  energy:             66.2382702

- temperature:       220.0000000
  free_energy:         0.4699146
  entropy:           309.8190292
  heat_capacity:     240.5453539
  energy:             68.6301010

- temperature:       230.0000000
  free_energy:        -2.6823244
  entropy:           320.5675643
  heat_capacity:     243.0326123
  energy:             71.0482154

- temperature:       240.0000000
  free_energy:        -5.9402465
  entropy:           330.9589985
  heat_capacity:     245.2676635
  energy:             73.4899132

- temperature:       250.0000000
  free_energy:        -9.3003792
  entropy:           341.0128482
  heat_capacity:     247.2818234
  energy:             75.9528329

- temperature:       260.0000000
  free_energy:       -12.7594395
  entropy:           350.7474724
  heat_capacity:     249.1019705
  energy:             78.4349033

- temperature:       270.0000000
  free_energy:       -16.3143221
  entropy:           360.1800929
  heat_capacity:     250.7512249
  energy:             80.9343030

- temperature:       280.0000000
  free_energy:       -19.9620885
  entropy:           369.3268338
  heat_capacity:     252.2495221
  energy:             83.4494249

- temperature:       290.0000000
  free_energy:       -23.6999562
  entropy:           378.2027729
  heat_capacity:     253.6140951
  energy:             85.9788479

- temperature:       300.0000000
  free_energy:       -27.5252884
  entropy:           386.8219983
  heat_capacity:     254.8598811
  energy:             88.5213111

- temperature:       310.0000000
  free_energy:       -31.4355844
  entropy:           395.1976693
  heat_capacity:     255.9998620
  energy:             91.0756930

- temperature:       320.0000000
  free_energy:       -35.4284710
  entropy:           403.3420766
  heat_capacity:     257.0453514
  energy:             93.6409935

- temperature:       330.0000000
  free_energy:       -39.5016934
  entropy:           411.2667019
  heat_capacity:     258.0062360
  energy:             96.2163182

- temperature:       340.0000000
  free_energy:       -43.6531082
  entropy:           418.9822749
  heat_capacity:     258.8911785
  energy:             98.8008652

- temperature:       350.0000000
  free_energy:       -47.8806756
  entropy:           426.4988277
  heat_capacity:     259.7077898
  energy:            101.3939141

- temperature:       360.0000000
  free_energy:       -52.1824527
  entropy:           433.8257457
  heat_capacity:     260.4627742
  energy:            103.9948157

- temperature:       370.0000000
  free_energy:       -56.5565877
  entropy:           440.9718154
  heat_capacity:     261.1620521
  energy:            106.6029840

- temperature:       380.0000000
  free_energy:       -61.0013137
  entropy:           447.9452692
  heat_capacity:     261.8108650
  energy:            109.2178886

- temperature:       390.0000000
  free_energy:       -65.5149435
  entropy:           454.7538260
  heat_capacity:     262.4138649
  energy:            111.8390486

- temperature:       400.0000000
  free_energy:       -70.0958648
  entropy:           461.4047295
  heat_capacity:     262.9751897
  energy:            114.4660270

- temperature:       410.0000000
  free_energy:       -74.7425353
  entropy:           467.9047833
  heat_capacity:     263.4985294
  energy:            117.0984258

- temperature:       420.0000000
  free_energy:       -79.4534790
  entropy:           474.2603833
  heat_capacity:     263.9871810
  energy:            119.7358820

- temperature:       430.0000000
  free_energy:       -84.2272816
  entropy:           480.4775472
  heat_capacity:     264.4440976
  energy:            122.3780637

- temperature:       440.0000000
  free_energy:       -89.0625874
  entropy:           486.5619419
  heat_capacity:     264.8719292
  energy:            125.0246670

- temperature:       450.0000000
  free_energy:       -93.9580957
  entropy:           492.5189089
  heat_capacity:     265.2730591
  energy:            127.6754133

- temperature:       460.0000000
  free_energy:       -98.9125576
  entropy:           498.3534871
  heat_capacity:     265.6496347
  energy:            130.3300464

- temperature:       470.0000000
  free_energy:      -103.9247734
  entropy:           504.0704340
  heat_capacity:     266.0035948
  energy:            132.9883306

- temperature:       480.0000000
  free_energy:      -108.9935892
  entropy:           509.6742459
  heat_capacity:     266.3366928
  energy:            135.6500488

- temperature:       490.0000000
  free_energy:      -114.1178954
  entropy:           515.1691748
  heat_capacity:     266.6505176
  energy:            138.3150003

- temperature:       500.0000000
  free_energy:      -119.2966232
  entropy:           520.5592459
  heat_capacity:     266.9465115
  energy:            140.9829997

- temperature:       510.0000000
  free_energy:      -124.5287435
  entropy:           525.8482724
  heat_capacity:     267.2259857
  energy:            143.6538754

- temperature:       520.0000000
  free_energy:      -129.8132639
  entropy:           531.0398698
  heat_capacity:     267.4901345
  energy:            146.3274683

- temperature:       530.0000000
  free_energy:      -135.1492276
  entropy:           536.1374684
  heat_capacity:     267.7400473
  energy:            149.0036307

- temperature:       540.0000000
  free_energy:      -140.5357108
  entropy:           541.1443259
  heat_capacity:     267.9767193
  energy:            151.6822252

- temperature:       550.0000000
  free_energy:      -145.9718220
  entropy:           546.0635381
  heat_capacity:     268.2010610
  energy:            154.3631240

- temperature:       560.0000000
  free_energy:      -151.4566993
  entropy:           550.8980489
  heat_capacity:     268.4139068
  energy:            157.0462081

- temperature:       570.0000000
  free_energy:      -156.9895099
  entropy:           555.6506602
  heat_capacity:     268.6160223
  energy:            159.7313664

- temperature:       580.0000000
  free_energy:      -162.5694484
  entropy:           560.3240405
  heat_capacity:     268.8081108
  energy:            162.4184951

- temperature:       590.0000000
  free_energy:      -168.1957351
  entropy:           564.9207330
  heat_capacity:     268.9908196
  energy:            165.1074973

- temperature:       600.0000000
  free_energy:      -173.8676155
  entropy:           569.4431629
  heat_capacity:     269.1647449
  energy:            167.7982822

- temperature:       610.0000000
  free_energy:      -179.5843586
  entropy:           573.8936449
  heat_capacity:     269.3304366
  energy:            170.4907648

- temperature:       620.0000000
  free_energy:      -185.3452560
  entropy:           578.2743890
  heat_capacity:     269.4884026
  energy:            173.1848652

- temperature:       630.0000000
  free_energy:      -191.1496210
  entropy:           582.5875073
  heat_capacity:     269.6391126
  energy:            175.8805086

- temperature:       640.0000000
  free_energy:      -196.9967874
  entropy:           586.8350190
  heat_capacity:     269.7830012
  energy:            178.5776247

- temperature:       650.0000000
  free_energy:      -202.8861091
  entropy:           591.0188560
  heat_capacity:     269.9204714
  energy:            181.2761473

- temperature:       660.0000000
  free_energy:      -208.8169585
  entropy:           595.1408674
  heat_capacity:     270.0518967
  energy:            183.9760140

- temperature:       670.0000000
  free_energy:      -214.7887263
  entropy:           599.2028246
  heat_capacity:     270.1776245
  energy:            186.6771662

- temperature:       680.0000000
  free_energy:      -220.8008205
  entropy:           603.2064251
  heat_capacity:     270.2979772
  energy:            189.3795486

- temperature:       690.0000000
  free_energy:      -226.8526657
  entropy:           607.1532964
  heat_capacity:     270.4132552
  energy:            192.0831089

- temperature:       700.0000000
  free_energy:      -232.9437025
  entropy:           611.0450003
  heat_capacity:     270.5237384
  energy:            194.7877977

- temperature:       710.0000000
  free_energy:      -239.0733868
  entropy:           614.8830357
  heat_capacity:     270.6296874
  energy:            197.4935685

- temperature:       720.0000000
  free_energy:      -245.2411891
  entropy:           618.6688421
  heat_capacity:     270.7313458
  energy:            200.2003772

- temperature:       730.0000000
  free_energy:      -251.4465942
  entropy:           622.4038028
  heat_capacity:     270.8289409
  energy:            202.9081819

- temperature:       740.0000000
  free_energy:      -257.6891001
  entropy:           626.0892477
  heat_capacity:     270.9226853
  energy:            205.6169431

- temperature:       750.0000000
  free_energy:      -263.9682183
  entropy:           629.7264557
  heat_capacity:     271.0127780
  energy:            208.3266234

- temperature:       760.0000000
  free_energy:      -270.2834726
  entropy:           633.3166575
  heat_capacity:     271.0994053
  energy:            211.0371871

- temperature:       770.0000000
  free_energy:      -276.6343988
  entropy:           636.8610381
  heat_capacity:     271.1827419
  energy:            213.7486006

- temperature:       780.0000000
  free_energy:      -283.0205444
  entropy:           640.3607384
  heat_capacity:     271.2629516
  energy:            216.4608316

- temperature:       790.0000000
  free_energy:      -289.4414683
  entropy:           643.8168581
  heat_capacity:     271.3401882
  energy:            219.1738497

- temperature:       800.0000000
  free_energy:      -295.8967398
  entropy:           647.2304572
  heat_capacity:     271.4145963
  energy:            221.8876259

- temperature:       810.0000000
  free_energy:      -302.3859391
  entropy:           650.6025577
  heat_capacity:     271.4863116
  energy:            224.6021326

- temperature:       820.0000000
  free_energy:      -308.9086560
  entropy:           653.9341458
  heat_capacity:     271.5554621
  energy:            227.3173436

- temperature:       830.0000000
  free_energy:      -315.4644901
  entropy:           657.2261733
  heat_capacity:     271.6221681
  energy:            230.0332337

- temperature:       840.0000000
  free_energy:      -322.0530506
  entropy:           660.4795593
  heat_capacity:     271.6865430
  energy:            232.7497792

- temperature:       850.0000000
  free_energy:      -328.6739555
  entropy:           663.6951913
  heat_capacity:     271.7486938
  energy:            235.4669572

- temperature:       860.0000000
  free_energy:      -335.3268315
  entropy:           666.8739272
  heat_capacity:     271.8087215
  energy:            238.1847460

- temperature:       870.0000000
  free_energy:      -342.0113138
  entropy:           670.0165961
  heat_capacity:     271.8667212
  energy:            240.9031248

- temperature:       880.0000000
  free_energy:      -348.7270458
  entropy:           673.1239997
  heat_capacity:     271.9227829
  energy:            243.6220739

- temperature:       890.0000000
  free_energy:      -355.4736788
  entropy:           676.1969136
  heat_capacity:     271.9769919
  energy:            246.3415743

- temperature:       900.0000000
  free_energy:      -362.2508716
  entropy:           679.2360883
  heat_capacity:     272.0294284
  energy:            249.0616079

- temperature:       910.0000000
  free_energy:      -369.0582906
  entropy:           682.2422503
  heat_capacity:     272.0801688
  energy:            251.7821572

- temperature:       920.0000000
  free_energy:      -375.8956090
  entropy:           685.2161030
  heat_capacity:     272.1292851
  energy:            254.5032058

- temperature:       930.0000000
  free_energy:      -382.7625072
  entropy:           688.1583279
  heat_capacity:     272.1768458
  energy:            257.2247378

- temperature:       940.0000000
  free_energy:      -389.6586723
  entropy:           691.0695852
  heat_capacity:     272.2229155
  energy:            259.9467378

- temperature:       950.0000000
  free_energy:      -396.5837978
  entropy:           693.9505148
  heat_capacity:     272.2675559
  energy:            262.6691913

- temperature:       960.0000000
  free_energy:      -403.5375836
  entropy:           696.8017374
  heat_capacity:     272.3108251
  energy:            265.3920843

- temperature:       970.0000000
  free_energy:      -410.5197355
  entropy:           699.6238546
  heat_capacity:     272.3527788
  energy:            268.1154034

- temperature:       980.0000000
  free_energy:      -417.5299656
  entropy:           702.4174503
  heat_capacity:     272.3934694
  energy:            270.8391357

- temperature:       990.0000000
  free_energy:      -424.5679914
  entropy:           705.1830910
  heat_capacity:     272.4329471
  energy:            273.5632688

- temperature:      1000.0000000
  free_energy:      -431.6335361
  entropy:           707.9213268
  heat_capacity:     272.4712595
  energy:            276.2877907
