phonopy:
  version: "2.37.1"
  frequency_unit_conversion_factor: 15.633302
  symmetry_tolerance: 1.00000e-05

space_group:
  type: "P1"
  number: 1
  Hall_symbol: "P 1"

primitive_matrix:
- [  1.000000000000000,  0.000000000000000, -1.000000000000000 ]
- [  0.000000000000000, -1.000000000000000, -1.000000000000000 ]
- [  0.000000000000000,  0.000000000000000, -1.000000000000000 ]

supercell_matrix:
- [   2,   0,   0 ]
- [   0,   2,   0 ]
- [   0,   0,   2 ]

primitive_cell:
  lattice:
  - [     5.413691408841965,     0.000000000000000,     0.000000000000000 ] # a
  - [     2.120447802229189,    -6.571518163663987,     0.000000000000000 ] # b
  - [     0.040628015418722,    -3.504122928241740,    -7.365838112703890 ] # c
  points:
  - symbol: Li # 1
    coordinates: [  0.814191352020768,  0.515689000245028,  0.267065238454804 ]
    mass: 6.940000
  - symbol: Li # 2
    coordinates: [  0.938307875783631,  0.373568246686214,  0.988613970047237 ]
    mass: 6.940000
  - symbol: Li # 3
    coordinates: [  0.367093777122561,  0.948198356837259,  0.121184792475148 ]
    mass: 6.940000
  - symbol: Li # 4
    coordinates: [  0.934619930097395,  0.894825825535093,  0.979265726408699 ]
    mass: 6.940000
  - symbol: Li # 5
    coordinates: [  0.058737470053063,  0.752705840799851,  0.700818217851796 ]
    mass: 6.940000
  - symbol: Li # 6
    coordinates: [  0.235355781977847,  0.078632577042435,  0.423096741569728 ]
    mass: 6.940000
  - symbol: Li # 7
    coordinates: [  0.210733337331332,  0.601911660933597,  0.415137008380175 ]
    mass: 6.940000
  - symbol: Li # 8
    coordinates: [  0.637572685335318,  0.189763830786248,  0.544784321299098 ]
    mass: 6.940000
  - symbol: Li # 9
    coordinates: [  0.662196198588358,  0.666481580712877,  0.552746037106697 ]
    mass: 6.940000
  - symbol: Li # 10
    coordinates: [  0.505836520105572,  0.320198237791963,  0.846698154507171 ]
    mass: 6.940000
  - symbol: Sn # 11
    coordinates: [  0.800059342634777,  0.014174279266436,  0.274854522801409 ]
    mass: 118.710000
  - symbol: Sn # 12
    coordinates: [  0.072869960243030,  0.254220500754430,  0.693027031368301 ]
    mass: 118.710000
  - symbol: Sn # 13
    coordinates: [  0.356760637158526,  0.455698873890151,  0.139009685109294 ]
    mass: 118.710000
  - symbol: Sn # 14
    coordinates: [  0.516166447780465,  0.812697864141007,  0.828871119203029 ]
    mass: 118.710000
  reciprocal_lattice: # without 2pi
  - [     0.184716845582801,     0.059603035325459,    -0.027335882318542 ] # a*
  - [     0.000000000000000,    -0.152171838393344,     0.072392145983653 ] # b*
  - [     0.000000000000000,    -0.000000000000000,    -0.135761875933072 ] # c*

unit_cell:
  lattice:
  - [     5.413691408841965,     0.000000000000000,     0.000000000000000 ] # a
  - [    -2.120447802229188,     6.571518163663985,     0.000000000000000 ] # b
  - [    -3.333871622031498,    -3.067395235422245,     7.365838112703890 ] # c
  points:
  - symbol: Li # 1
    coordinates: [  0.547126113565964,  0.217245761300169,  0.732934761545196 ]
    mass: 6.940000
    reduced_to: 1
  - symbol: Li # 2
    coordinates: [  0.949693905736395,  0.637817783266549,  0.011386029952763 ]
    mass: 6.940000
    reduced_to: 2
  - symbol: Li # 3
    coordinates: [  0.245908984647412,  0.930616850687593,  0.878815207524852 ]
    mass: 6.940000
    reduced_to: 3
  - symbol: Li # 4
    coordinates: [  0.955354203688696,  0.125908448056208,  0.020734273591301 ]
    mass: 6.940000
    reduced_to: 4
  - symbol: Li # 5
    coordinates: [  0.357919252201267,  0.546475941348354,  0.299181782148204 ]
    mass: 6.940000
    reduced_to: 5
  - symbol: Li # 6
    coordinates: [  0.812259040408119,  0.498270681387837,  0.576903258430272 ]
    mass: 6.940000
    reduced_to: 6
  - symbol: Li # 7
    coordinates: [  0.795596328951156,  0.982951330686228,  0.584862991619825 ]
    mass: 6.940000
    reduced_to: 7
  - symbol: Li # 8
    coordinates: [  0.092788364036220,  0.265451847914654,  0.455215678700902 ]
    mass: 6.940000
    reduced_to: 8
  - symbol: Li # 9
    coordinates: [  0.109450161481661,  0.780772382180425,  0.447253962893303 ]
    mass: 6.940000
    reduced_to: 9
  - symbol: Li # 10
    coordinates: [  0.659138365598401,  0.833103607700866,  0.153301845492829 ]
    mass: 6.940000
    reduced_to: 10
  - symbol: Sn # 11
    coordinates: [  0.525204819833368,  0.710971197932155,  0.725145477198591 ]
    mass: 118.710000
    reduced_to: 11
  - symbol: Sn # 12
    coordinates: [  0.379842928874729,  0.052752467877269,  0.306972968631699 ]
    mass: 118.710000
    reduced_to: 12
  - symbol: Sn # 13
    coordinates: [  0.217750952049232,  0.405291441000556,  0.860990314890706 ]
    mass: 118.710000
    reduced_to: 13
  - symbol: Sn # 14
    coordinates: [  0.687295328577436,  0.358431016655965,  0.171128880796971 ]
    mass: 118.710000
    reduced_to: 14

supercell:
  lattice:
  - [    10.827382817683930,     0.000000000000000,     0.000000000000000 ] # a
  - [    -4.240895604458376,    13.143036327327970,     0.000000000000000 ] # b
  - [    -6.667743244062995,    -6.134790470844489,    14.731676225407780 ] # c
  points:
  - symbol: Li # 1
    coordinates: [  0.273563056782982,  0.108622880650084,  0.366467380772598 ]
    mass: 6.940000
    reduced_to: 1
  - symbol: Li # 2
    coordinates: [  0.773563056782982,  0.108622880650084,  0.366467380772598 ]
    mass: 6.940000
    reduced_to: 1
  - symbol: Li # 3
    coordinates: [  0.273563056782982,  0.608622880650084,  0.366467380772598 ]
    mass: 6.940000
    reduced_to: 1
  - symbol: Li # 4
    coordinates: [  0.773563056782982,  0.608622880650084,  0.366467380772598 ]
    mass: 6.940000
    reduced_to: 1
  - symbol: Li # 5
    coordinates: [  0.273563056782982,  0.108622880650084,  0.866467380772598 ]
    mass: 6.940000
    reduced_to: 1
  - symbol: Li # 6
    coordinates: [  0.773563056782982,  0.108622880650084,  0.866467380772598 ]
    mass: 6.940000
    reduced_to: 1
  - symbol: Li # 7
    coordinates: [  0.273563056782982,  0.608622880650084,  0.866467380772598 ]
    mass: 6.940000
    reduced_to: 1
  - symbol: Li # 8
    coordinates: [  0.773563056782982,  0.608622880650084,  0.866467380772598 ]
    mass: 6.940000
    reduced_to: 1
  - symbol: Li # 9
    coordinates: [  0.474846952868197,  0.318908891633275,  0.005693014976382 ]
    mass: 6.940000
    reduced_to: 9
  - symbol: Li # 10
    coordinates: [  0.974846952868197,  0.318908891633275,  0.005693014976382 ]
    mass: 6.940000
    reduced_to: 9
  - symbol: Li # 11
    coordinates: [  0.474846952868197,  0.818908891633275,  0.005693014976382 ]
    mass: 6.940000
    reduced_to: 9
  - symbol: Li # 12
    coordinates: [  0.974846952868197,  0.818908891633275,  0.005693014976382 ]
    mass: 6.940000
    reduced_to: 9
  - symbol: Li # 13
    coordinates: [  0.474846952868197,  0.318908891633275,  0.505693014976382 ]
    mass: 6.940000
    reduced_to: 9
  - symbol: Li # 14
    coordinates: [  0.974846952868197,  0.318908891633275,  0.505693014976382 ]
    mass: 6.940000
    reduced_to: 9
  - symbol: Li # 15
    coordinates: [  0.474846952868197,  0.818908891633275,  0.505693014976382 ]
    mass: 6.940000
    reduced_to: 9
  - symbol: Li # 16
    coordinates: [  0.974846952868197,  0.818908891633275,  0.505693014976382 ]
    mass: 6.940000
    reduced_to: 9
  - symbol: Li # 17
    coordinates: [  0.122954492323706,  0.465308425343796,  0.439407603762426 ]
    mass: 6.940000
    reduced_to: 17
  - symbol: Li # 18
    coordinates: [  0.622954492323706,  0.465308425343796,  0.439407603762426 ]
    mass: 6.940000
    reduced_to: 17
  - symbol: Li # 19
    coordinates: [  0.122954492323706,  0.965308425343796,  0.439407603762426 ]
    mass: 6.940000
    reduced_to: 17
  - symbol: Li # 20
    coordinates: [  0.622954492323706,  0.965308425343796,  0.439407603762426 ]
    mass: 6.940000
    reduced_to: 17
  - symbol: Li # 21
    coordinates: [  0.122954492323706,  0.465308425343796,  0.939407603762426 ]
    mass: 6.940000
    reduced_to: 17
  - symbol: Li # 22
    coordinates: [  0.622954492323706,  0.465308425343796,  0.939407603762426 ]
    mass: 6.940000
    reduced_to: 17
  - symbol: Li # 23
    coordinates: [  0.122954492323706,  0.965308425343796,  0.939407603762426 ]
    mass: 6.940000
    reduced_to: 17
  - symbol: Li # 24
    coordinates: [  0.622954492323706,  0.965308425343796,  0.939407603762426 ]
    mass: 6.940000
    reduced_to: 17
  - symbol: Li # 25
    coordinates: [  0.477677101844348,  0.062954224028104,  0.010367136795650 ]
    mass: 6.940000
    reduced_to: 25
  - symbol: Li # 26
    coordinates: [  0.977677101844348,  0.062954224028104,  0.010367136795650 ]
    mass: 6.940000
    reduced_to: 25
  - symbol: Li # 27
    coordinates: [  0.477677101844348,  0.562954224028104,  0.010367136795650 ]
    mass: 6.940000
    reduced_to: 25
  - symbol: Li # 28
    coordinates: [  0.977677101844348,  0.562954224028104,  0.010367136795650 ]
    mass: 6.940000
    reduced_to: 25
  - symbol: Li # 29
    coordinates: [  0.477677101844348,  0.062954224028104,  0.510367136795650 ]
    mass: 6.940000
    reduced_to: 25
  - symbol: Li # 30
    coordinates: [  0.977677101844348,  0.062954224028104,  0.510367136795650 ]
    mass: 6.940000
    reduced_to: 25
  - symbol: Li # 31
    coordinates: [  0.477677101844348,  0.562954224028104,  0.510367136795650 ]
    mass: 6.940000
    reduced_to: 25
  - symbol: Li # 32
    coordinates: [  0.977677101844348,  0.562954224028104,  0.510367136795650 ]
    mass: 6.940000
    reduced_to: 25
  - symbol: Li # 33
    coordinates: [  0.178959626100634,  0.273237970674177,  0.149590891074102 ]
    mass: 6.940000
    reduced_to: 33
  - symbol: Li # 34
    coordinates: [  0.678959626100634,  0.273237970674177,  0.149590891074102 ]
    mass: 6.940000
    reduced_to: 33
  - symbol: Li # 35
    coordinates: [  0.178959626100634,  0.773237970674177,  0.149590891074102 ]
    mass: 6.940000
    reduced_to: 33
  - symbol: Li # 36
    coordinates: [  0.678959626100634,  0.773237970674177,  0.149590891074102 ]
    mass: 6.940000
    reduced_to: 33
  - symbol: Li # 37
    coordinates: [  0.178959626100634,  0.273237970674177,  0.649590891074102 ]
    mass: 6.940000
    reduced_to: 33
  - symbol: Li # 38
    coordinates: [  0.678959626100634,  0.273237970674177,  0.649590891074102 ]
    mass: 6.940000
    reduced_to: 33
  - symbol: Li # 39
    coordinates: [  0.178959626100634,  0.773237970674177,  0.649590891074102 ]
    mass: 6.940000
    reduced_to: 33
  - symbol: Li # 40
    coordinates: [  0.678959626100634,  0.773237970674177,  0.649590891074102 ]
    mass: 6.940000
    reduced_to: 33
  - symbol: Li # 41
    coordinates: [  0.406129520204059,  0.249135340693919,  0.288451629215136 ]
    mass: 6.940000
    reduced_to: 41
  - symbol: Li # 42
    coordinates: [  0.906129520204059,  0.249135340693919,  0.288451629215136 ]
    mass: 6.940000
    reduced_to: 41
  - symbol: Li # 43
    coordinates: [  0.406129520204059,  0.749135340693919,  0.288451629215136 ]
    mass: 6.940000
    reduced_to: 41
  - symbol: Li # 44
    coordinates: [  0.906129520204059,  0.749135340693919,  0.288451629215136 ]
    mass: 6.940000
    reduced_to: 41
  - symbol: Li # 45
    coordinates: [  0.406129520204059,  0.249135340693919,  0.788451629215136 ]
    mass: 6.940000
    reduced_to: 41
  - symbol: Li # 46
    coordinates: [  0.906129520204059,  0.249135340693919,  0.788451629215136 ]
    mass: 6.940000
    reduced_to: 41
  - symbol: Li # 47
    coordinates: [  0.406129520204059,  0.749135340693919,  0.788451629215136 ]
    mass: 6.940000
    reduced_to: 41
  - symbol: Li # 48
    coordinates: [  0.906129520204059,  0.749135340693919,  0.788451629215136 ]
    mass: 6.940000
    reduced_to: 41
  - symbol: Li # 49
    coordinates: [  0.397798164475578,  0.491475665343114,  0.292431495809912 ]
    mass: 6.940000
    reduced_to: 49
  - symbol: Li # 50
    coordinates: [  0.897798164475578,  0.491475665343114,  0.292431495809912 ]
    mass: 6.940000
    reduced_to: 49
  - symbol: Li # 51
    coordinates: [  0.397798164475578,  0.991475665343114,  0.292431495809912 ]
    mass: 6.940000
    reduced_to: 49
  - symbol: Li # 52
    coordinates: [  0.897798164475578,  0.991475665343114,  0.292431495809912 ]
    mass: 6.940000
    reduced_to: 49
  - symbol: Li # 53
    coordinates: [  0.397798164475578,  0.491475665343114,  0.792431495809912 ]
    mass: 6.940000
    reduced_to: 49
  - symbol: Li # 54
    coordinates: [  0.897798164475578,  0.491475665343114,  0.792431495809912 ]
    mass: 6.940000
    reduced_to: 49
  - symbol: Li # 55
    coordinates: [  0.397798164475578,  0.991475665343114,  0.792431495809912 ]
    mass: 6.940000
    reduced_to: 49
  - symbol: Li # 56
    coordinates: [  0.897798164475578,  0.991475665343114,  0.792431495809912 ]
    mass: 6.940000
    reduced_to: 49
  - symbol: Li # 57
    coordinates: [  0.046394182018110,  0.132725923957327,  0.227607839350451 ]
    mass: 6.940000
    reduced_to: 57
  - symbol: Li # 58
    coordinates: [  0.546394182018110,  0.132725923957327,  0.227607839350451 ]
    mass: 6.940000
    reduced_to: 57
  - symbol: Li # 59
    coordinates: [  0.046394182018110,  0.632725923957327,  0.227607839350451 ]
    mass: 6.940000
    reduced_to: 57
  - symbol: Li # 60
    coordinates: [  0.546394182018110,  0.632725923957327,  0.227607839350451 ]
    mass: 6.940000
    reduced_to: 57
  - symbol: Li # 61
    coordinates: [  0.046394182018110,  0.132725923957327,  0.727607839350451 ]
    mass: 6.940000
    reduced_to: 57
  - symbol: Li # 62
    coordinates: [  0.546394182018110,  0.132725923957327,  0.727607839350451 ]
    mass: 6.940000
    reduced_to: 57
  - symbol: Li # 63
    coordinates: [  0.046394182018110,  0.632725923957327,  0.727607839350451 ]
    mass: 6.940000
    reduced_to: 57
  - symbol: Li # 64
    coordinates: [  0.546394182018110,  0.632725923957327,  0.727607839350451 ]
    mass: 6.940000
    reduced_to: 57
  - symbol: Li # 65
    coordinates: [  0.054725080740830,  0.390386191090213,  0.223626981446651 ]
    mass: 6.940000
    reduced_to: 65
  - symbol: Li # 66
    coordinates: [  0.554725080740830,  0.390386191090213,  0.223626981446651 ]
    mass: 6.940000
    reduced_to: 65
  - symbol: Li # 67
    coordinates: [  0.054725080740830,  0.890386191090213,  0.223626981446651 ]
    mass: 6.940000
    reduced_to: 65
  - symbol: Li # 68
    coordinates: [  0.554725080740830,  0.890386191090213,  0.223626981446651 ]
    mass: 6.940000
    reduced_to: 65
  - symbol: Li # 69
    coordinates: [  0.054725080740830,  0.390386191090213,  0.723626981446651 ]
    mass: 6.940000
    reduced_to: 65
  - symbol: Li # 70
    coordinates: [  0.554725080740830,  0.390386191090213,  0.723626981446651 ]
    mass: 6.940000
    reduced_to: 65
  - symbol: Li # 71
    coordinates: [  0.054725080740830,  0.890386191090213,  0.723626981446651 ]
    mass: 6.940000
    reduced_to: 65
  - symbol: Li # 72
    coordinates: [  0.554725080740830,  0.890386191090213,  0.723626981446651 ]
    mass: 6.940000
    reduced_to: 65
  - symbol: Li # 73
    coordinates: [  0.329569182799201,  0.416551803850433,  0.076650922746415 ]
    mass: 6.940000
    reduced_to: 73
  - symbol: Li # 74
    coordinates: [  0.829569182799201,  0.416551803850433,  0.076650922746415 ]
    mass: 6.940000
    reduced_to: 73
  - symbol: Li # 75
    coordinates: [  0.329569182799201,  0.916551803850433,  0.076650922746415 ]
    mass: 6.940000
    reduced_to: 73
  - symbol: Li # 76
    coordinates: [  0.829569182799201,  0.916551803850433,  0.076650922746415 ]
    mass: 6.940000
    reduced_to: 73
  - symbol: Li # 77
    coordinates: [  0.329569182799201,  0.416551803850433,  0.576650922746415 ]
    mass: 6.940000
    reduced_to: 73
  - symbol: Li # 78
    coordinates: [  0.829569182799201,  0.416551803850433,  0.576650922746415 ]
    mass: 6.940000
    reduced_to: 73
  - symbol: Li # 79
    coordinates: [  0.329569182799201,  0.916551803850433,  0.576650922746415 ]
    mass: 6.940000
    reduced_to: 73
  - symbol: Li # 80
    coordinates: [  0.829569182799201,  0.916551803850433,  0.576650922746415 ]
    mass: 6.940000
    reduced_to: 73
  - symbol: Sn # 81
    coordinates: [  0.262602409916684,  0.355485598966078,  0.362572738599296 ]
    mass: 118.710000
    reduced_to: 81
  - symbol: Sn # 82
    coordinates: [  0.762602409916684,  0.355485598966078,  0.362572738599296 ]
    mass: 118.710000
    reduced_to: 81
  - symbol: Sn # 83
    coordinates: [  0.262602409916684,  0.855485598966078,  0.362572738599296 ]
    mass: 118.710000
    reduced_to: 81
  - symbol: Sn # 84
    coordinates: [  0.762602409916684,  0.855485598966078,  0.362572738599296 ]
    mass: 118.710000
    reduced_to: 81
  - symbol: Sn # 85
    coordinates: [  0.262602409916684,  0.355485598966078,  0.862572738599296 ]
    mass: 118.710000
    reduced_to: 81
  - symbol: Sn # 86
    coordinates: [  0.762602409916684,  0.355485598966078,  0.862572738599296 ]
    mass: 118.710000
    reduced_to: 81
  - symbol: Sn # 87
    coordinates: [  0.262602409916684,  0.855485598966078,  0.862572738599296 ]
    mass: 118.710000
    reduced_to: 81
  - symbol: Sn # 88
    coordinates: [  0.762602409916684,  0.855485598966078,  0.862572738599296 ]
    mass: 118.710000
    reduced_to: 81
  - symbol: Sn # 89
    coordinates: [  0.189921464437364,  0.026376233938635,  0.153486484315849 ]
    mass: 118.710000
    reduced_to: 89
  - symbol: Sn # 90
    coordinates: [  0.689921464437364,  0.026376233938635,  0.153486484315849 ]
    mass: 118.710000
    reduced_to: 89
  - symbol: Sn # 91
    coordinates: [  0.189921464437364,  0.526376233938635,  0.153486484315849 ]
    mass: 118.710000
    reduced_to: 89
  - symbol: Sn # 92
    coordinates: [  0.689921464437364,  0.526376233938635,  0.153486484315849 ]
    mass: 118.710000
    reduced_to: 89
  - symbol: Sn # 93
    coordinates: [  0.189921464437364,  0.026376233938635,  0.653486484315849 ]
    mass: 118.710000
    reduced_to: 89
  - symbol: Sn # 94
    coordinates: [  0.689921464437364,  0.026376233938635,  0.653486484315849 ]
    mass: 118.710000
    reduced_to: 89
  - symbol: Sn # 95
    coordinates: [  0.189921464437364,  0.526376233938635,  0.653486484315849 ]
    mass: 118.710000
    reduced_to: 89
  - symbol: Sn # 96
    coordinates: [  0.689921464437364,  0.526376233938635,  0.653486484315849 ]
    mass: 118.710000
    reduced_to: 89
  - symbol: Sn # 97
    coordinates: [  0.108875476024616,  0.202645720500278,  0.430495157445353 ]
    mass: 118.710000
    reduced_to: 97
  - symbol: Sn # 98
    coordinates: [  0.608875476024616,  0.202645720500278,  0.430495157445353 ]
    mass: 118.710000
    reduced_to: 97
  - symbol: Sn # 99
    coordinates: [  0.108875476024616,  0.702645720500278,  0.430495157445353 ]
    mass: 118.710000
    reduced_to: 97
  - symbol: Sn # 100
    coordinates: [  0.608875476024616,  0.702645720500278,  0.430495157445353 ]
    mass: 118.710000
    reduced_to: 97
  - symbol: Sn # 101
    coordinates: [  0.108875476024616,  0.202645720500278,  0.930495157445353 ]
    mass: 118.710000
    reduced_to: 97
  - symbol: Sn # 102
    coordinates: [  0.608875476024616,  0.202645720500278,  0.930495157445353 ]
    mass: 118.710000
    reduced_to: 97
  - symbol: Sn # 103
    coordinates: [  0.108875476024616,  0.702645720500278,  0.930495157445353 ]
    mass: 118.710000
    reduced_to: 97
  - symbol: Sn # 104
    coordinates: [  0.608875476024616,  0.702645720500278,  0.930495157445353 ]
    mass: 118.710000
    reduced_to: 97
  - symbol: Sn # 105
    coordinates: [  0.343647664288718,  0.179215508327982,  0.085564440398486 ]
    mass: 118.710000
    reduced_to: 105
  - symbol: Sn # 106
    coordinates: [  0.843647664288718,  0.179215508327982,  0.085564440398486 ]
    mass: 118.710000
    reduced_to: 105
  - symbol: Sn # 107
    coordinates: [  0.343647664288718,  0.679215508327982,  0.085564440398486 ]
    mass: 118.710000
    reduced_to: 105
  - symbol: Sn # 108
    coordinates: [  0.843647664288718,  0.679215508327982,  0.085564440398486 ]
    mass: 118.710000
    reduced_to: 105
  - symbol: Sn # 109
    coordinates: [  0.343647664288718,  0.179215508327982,  0.585564440398486 ]
    mass: 118.710000
    reduced_to: 105
  - symbol: Sn # 110
    coordinates: [  0.843647664288718,  0.179215508327982,  0.585564440398486 ]
    mass: 118.710000
    reduced_to: 105
  - symbol: Sn # 111
    coordinates: [  0.343647664288718,  0.679215508327982,  0.585564440398486 ]
    mass: 118.710000
    reduced_to: 105
  - symbol: Sn # 112
    coordinates: [  0.843647664288718,  0.679215508327982,  0.585564440398486 ]
    mass: 118.710000
    reduced_to: 105

displacements:
- atom:    1
  displacement:
    [   0.0100000000000000,  0.0000000000000000,  0.0000000000000000 ]
  forces:
  - [  -0.0054562035948038, -0.0367670804262161,  0.0069934483617544 ]
  - [   0.0186705291271210, -0.0382688865065575,  0.0056531522423029 ]
  - [   0.0189596563577652, -0.0382046774029732,  0.0056868642568588 ]
  - [   0.0189763400703669, -0.0382386632263660,  0.0056870970875025 ]
  - [   0.0189747866243124, -0.0382363274693489,  0.0057094842195511 ]
  - [   0.0189903993159533, -0.0382315926253796,  0.0056843142956495 ]
  - [   0.0189818609505892, -0.0382271409034729,  0.0056861247867346 ]
  - [   0.0189834125339985, -0.0382200181484222,  0.0056944098323584 ]
  - [  -0.0300246328115463, -0.0163541994988918, -0.0087900869548321 ]
  - [  -0.0300221182405949, -0.0163454320281744, -0.0087923612445593 ]
  - [  -0.0300148315727711, -0.0163491107523441, -0.0087973056361079 ]
  - [  -0.0299973264336586, -0.0162253975868225, -0.0087399315088987 ]
  - [  -0.0304858870804310, -0.0156800746917725, -0.0081291580572724 ]
  - [  -0.0311957933008671, -0.0164303630590439, -0.0088386442512274 ]
  - [  -0.0300063528120518, -0.0164095927029848, -0.0087581276893616 ]
  - [  -0.0301235616207123, -0.0164615008980036, -0.0087617607787251 ]
  - [  -0.0239009223878384, -0.0435217767953873, -0.0051910337060690 ]
  - [  -0.0238947868347168, -0.0435069575905800, -0.0052301548421383 ]
  - [  -0.0226918794214725, -0.0414770059287548, -0.0060048066079617 ]
  - [  -0.0239035673439503, -0.0434802919626236, -0.0051247123628855 ]
  - [  -0.0238764174282551, -0.0435804165899754, -0.0051635075360537 ]
  - [  -0.0238748360425234, -0.0435776114463806, -0.0051587074995041 ]
  - [  -0.0239224489778280, -0.0435922816395760, -0.0050544850528240 ]
  - [  -0.0238775685429573, -0.0435740873217583, -0.0051535852253437 ]
  - [   0.0300391465425491,  0.0163129549473524,  0.0087390793487430 ]
  - [   0.0301741398870945,  0.0161912590265274,  0.0088510131463408 ]
  - [   0.0300432927906513,  0.0162962973117828,  0.0087474770843983 ]
  - [   0.0300439745187759,  0.0163010507822037,  0.0087565109133720 ]
  - [   0.0311508141458035,  0.0150655545294285,  0.0103955483064055 ]
  - [   0.0300244353711605,  0.0163153707981110,  0.0086887339130044 ]
  - [   0.0300722979009151,  0.0162951238453388,  0.0088052609935403 ]
  - [   0.0300406217575073,  0.0162669271230698,  0.0087421387434006 ]
  - [  -0.0189868994057178,  0.0382725037634373, -0.0056430716067553 ]
  - [  -0.0189835000783205,  0.0382329262793064, -0.0056399907916784 ]
  - [  -0.0189781207591295,  0.0382601842284203, -0.0056543760001659 ]
  - [  -0.0189415980130434,  0.0382640920579433, -0.0056119281798601 ]
  - [  -0.0190287679433823,  0.0382041484117508, -0.0055036526173353 ]
  - [  -0.0190588496625423,  0.0381413809955120, -0.0054833386093378 ]
  - [  -0.0189837608486414,  0.0382341891527176, -0.0056547075510025 ]
  - [  -0.0189932398498058,  0.0382453799247742, -0.0056477338075638 ]
  - [  -0.0178666114807129, -0.0140535011887550, -0.0034442837350070 ]
  - [  -0.0189857706427574, -0.0160128511488438, -0.0024066115729511 ]
  - [  -0.0190035402774811, -0.0160081870853901, -0.0024471320211887 ]
  - [  -0.0191615745425224, -0.0160695854574442, -0.0024809280876070 ]
  - [  -0.0191807150840759, -0.0159590840339661, -0.0021847535390407 ]
  - [  -0.0191155895590782, -0.0159193295985460, -0.0023983831051737 ]
  - [  -0.0190991684794426, -0.0159265715628862, -0.0024044103920460 ]
  - [  -0.0190976560115814, -0.0159240830689669, -0.0024030003696680 ]
  - [  -0.0132838767021894,  0.0147143257781863,  0.0061448989436030 ]
  - [  -0.0132687557488680,  0.0147278122603893,  0.0061303102411330 ]
  - [  -0.0090761519968510,  0.0124527597799897,  0.0038396283052862 ]
  - [  -0.0129328742623329,  0.0146406944841146,  0.0060947933234274 ]
  - [  -0.0132827060297132,  0.0147425904870033,  0.0061252983286977 ]
  - [  -0.0132905310019851,  0.0147389592602849,  0.0061279968358576 ]
  - [  -0.0132777579128742,  0.0147495074197650,  0.0061467788182199 ]
  - [  -0.0132996728643775,  0.0147594558075070,  0.0061233895830810 ]
  - [   0.0208345651626587,  0.0146206934005022,  0.0048789582215250 ]
  - [   0.0188869684934616,  0.0159635730087757,  0.0024712241720408 ]
  - [   0.0190981104969978,  0.0159395821392536,  0.0024322047829628 ]
  - [   0.0191027522087097,  0.0159551650285721,  0.0023926966823637 ]
  - [   0.0191328749060631,  0.0159071441739798,  0.0024382176343352 ]
  - [   0.0191476047039032,  0.0159231275320053,  0.0023453324101865 ]
  - [   0.0190964117646217,  0.0159404985606670,  0.0023902778048068 ]
  - [   0.0190940499305725,  0.0159412436187267,  0.0023956606164575 ]
  - [   0.0132721066474915, -0.0147978579625487, -0.0061238785274327 ]
  - [   0.0132092740386724, -0.0148583156988025, -0.0060844710096717 ]
  - [   0.0133251734077930, -0.0143882790580392, -0.0056027434766293 ]
  - [   0.0132409054785967, -0.0148476939648390, -0.0061485366895795 ]
  - [   0.0132991746068001, -0.0147860767319798, -0.0061555057764053 ]
  - [   0.0133387334644794, -0.0146744735538960, -0.0061173266731203 ]
  - [   0.0132833737879992, -0.0147983152419329, -0.0061098677106202 ]
  - [   0.0132937468588352, -0.0147889759391546, -0.0061127748340368 ]
  - [   0.0238406527787447,  0.0436150133609772,  0.0051895640790462 ]
  - [   0.0238397717475891,  0.0436209887266159,  0.0051902905106544 ]
  - [   0.0239004418253899,  0.0435746684670448,  0.0050649009644985 ]
  - [   0.0237840227782726,  0.0435422658920288,  0.0050334669649601 ]
  - [   0.0240551382303238,  0.0440563559532166,  0.0056802108883858 ]
  - [   0.0240063592791557,  0.0432885661721230,  0.0047896243631840 ]
  - [   0.0238362438976765,  0.0435666777193546,  0.0052798446267843 ]
  - [   0.0238371826708317,  0.0436222217977047,  0.0051701422780752 ]
  - [   0.0167848654091358,  0.0413295775651932, -0.0096464008092880 ]
  - [   0.0163612030446529,  0.0417827144265175, -0.0095718838274479 ]
  - [   0.0168374367058277,  0.0428416021168232, -0.0098320692777634 ]
  - [   0.0163746383041143,  0.0418391264975071, -0.0096706897020340 ]
  - [   0.0162890888750553,  0.0418188981711864, -0.0096826255321503 ]
  - [   0.0162631943821907,  0.0418147221207619, -0.0096963457763195 ]
  - [   0.0162762477993965,  0.0418226197361946, -0.0096897445619106 ]
  - [   0.0162701625376940,  0.0418185852468014, -0.0096874982118607 ]
  - [  -0.0156355127692223, -0.0420457869768143,  0.0100116282701492 ]
  - [  -0.0161573886871338, -0.0418316945433617,  0.0097078830003738 ]
  - [  -0.0162721909582615, -0.0418584048748016,  0.0096995420753956 ]
  - [  -0.0162801593542099, -0.0418195873498917,  0.0097098909318447 ]
  - [  -0.0163213312625885, -0.0419315509498119,  0.0097041390836239 ]
  - [  -0.0164003763347864, -0.0417285934090614,  0.0095531940460205 ]
  - [  -0.0162938311696053, -0.0418544113636017,  0.0096710808575153 ]
  - [  -0.0163402520120144, -0.0418369546532631,  0.0097093135118484 ]
  - [   0.0235145222395658, -0.0013781590387225,  0.0089507214725018 ]
  - [   0.0180628895759583,  0.0027725631371140,  0.0131706222891808 ]
  - [   0.0136643722653389,  0.0013109827414155,  0.0122336819767952 ]
  - [   0.0136518403887749,  0.0013877283781767,  0.0122394710779190 ]
  - [   0.0136867240071297,  0.0014364188537002,  0.0122634023427963 ]
  - [   0.0136629827320576,  0.0014651771634817,  0.0121954903006554 ]
  - [   0.0136806033551693,  0.0014568697661161,  0.0122050978243351 ]
  - [   0.0136672221124172,  0.0014703515917063,  0.0122460946440697 ]
  - [  -0.0135898292064667, -0.0012409351766109, -0.0123288556933403 ]
  - [  -0.0137136839330196, -0.0012781135737896, -0.0124215632677078 ]
  - [  -0.0136426202952862, -0.0014152619987726, -0.0122360512614250 ]
  - [  -0.0136996619403362, -0.0014581829309464, -0.0122830085456371 ]
  - [  -0.0131085887551308, -0.0012435615062714, -0.0128604061901569 ]
  - [  -0.0137367621064186, -0.0013688355684280, -0.0124111250042915 ]
  - [  -0.0136400498449802, -0.0014060297980905, -0.0122432634234428 ]
  - [  -0.0136503353714943, -0.0014013387262821, -0.0122543945908546 ]
- atom:    1
  displacement:
    [  -0.0100000000000000,  0.0000000000000000,  0.0000000000000000 ]
  forces:
  - [   0.0435330271720886, -0.0398639440536499,  0.0041932724416256 ]
  - [   0.0192977227270603, -0.0381879620254040,  0.0057149138301611 ]
  - [   0.0190059989690781, -0.0382523424923420,  0.0056846030056477 ]
  - [   0.0189901255071163, -0.0382171571254730,  0.0056838206946850 ]
  - [   0.0189902633428574, -0.0382198877632618,  0.0056622754782438 ]
  - [   0.0189757049083710, -0.0382241494953632,  0.0056878104805946 ]
  - [   0.0189828202128410, -0.0382290072739124,  0.0056860614567995 ]
  - [   0.0189816374331713, -0.0382362566888332,  0.0056770909577608 ]
  - [  -0.0300258509814739, -0.0163407251238823, -0.0087982043623924 ]
  - [  -0.0300282873213291, -0.0163484811782837, -0.0087964059785008 ]
  - [  -0.0300369262695312, -0.0163459293544292, -0.0087923156097531 ]
  - [  -0.0300555229187012, -0.0164692308753729, -0.0088482014834881 ]
  - [  -0.0295601449906826, -0.0170260276645422, -0.0094665400683880 ]
  - [  -0.0288595855236053, -0.0162556823343039, -0.0087404083460569 ]
  - [  -0.0300439223647118, -0.0162883847951889, -0.0088291224092245 ]
  - [  -0.0299280062317848, -0.0162380747497082, -0.0088254483416677 ]