# Thermal properties / unit cell (natom)

unit:
  temperature:   K
  free_energy:   kJ/mol
  entropy:       J/K/mol
  heat_capacity: J/K/mol

natom: 4    
cutoff_frequency: 0.00000
num_modes: 214272
num_integrated_modes: 214269

zero_point_energy:       6.9404877

thermal_properties:
- temperature:         0.0000000
  free_energy:         6.9404877
  entropy:             0.0000000
  heat_capacity:       0.0000000
  energy:              6.9404877

- temperature:        10.0000000
  free_energy:         6.9376652
  entropy:             1.3093210
  heat_capacity:       4.6388090
  energy:              6.9507584

- temperature:        20.0000000
  free_energy:         6.8856962
  entropy:            10.3974723
  heat_capacity:      24.8307079
  energy:              7.0936457

- temperature:        30.0000000
  free_energy:         6.7150252
  entropy:            24.0052510
  heat_capacity:      42.3182942
  energy:              7.4351827

- temperature:        40.0000000
  free_energy:         6.4051360
  entropy:            37.8546964
  heat_capacity:      53.7097897
  energy:              7.9193239

- temperature:        50.0000000
  free_energy:         5.9612817
  entropy:            50.7292270
  heat_capacity:      61.5620933
  energy:              8.4977431

- temperature:        60.0000000
  free_energy:         5.3942403
  entropy:            62.5028754
  heat_capacity:      67.5370175
  energy:              9.1444129

- temperature:        70.0000000
  free_energy:         4.7145220
  entropy:            73.2873159
  heat_capacity:      72.3452221
  energy:              9.8446341

- temperature:        80.0000000
  free_energy:         3.9313505
  entropy:            83.2140685
  heat_capacity:      76.2971275
  energy:             10.5884760

- temperature:        90.0000000
  free_energy:         3.0527232
  entropy:            92.3953804
  heat_capacity:      79.5668446
  energy:             11.3683074

- temperature:       100.0000000
  free_energy:         2.0856188
  entropy:           100.9234106
  heat_capacity:      82.2798982
  energy:             12.1779598

- temperature:       110.0000000
  free_energy:         1.0361762
  entropy:           108.8746661
  heat_capacity:      84.5376127
  energy:             13.0123895

- temperature:       120.0000000
  free_energy:        -0.0901682
  entropy:           116.3136920
  heat_capacity:      86.4236689
  energy:             13.8674749

- temperature:       130.0000000
  free_energy:        -1.2885747
  entropy:           123.2956090
  heat_capacity:      88.0067577
  energy:             14.7398544

- temperature:       140.0000000
  free_energy:        -2.5547155
  entropy:           129.8678782
  heat_capacity:      89.3426991
  energy:             15.6267874

- temperature:       150.0000000
  free_energy:        -3.8847044
  entropy:           136.0716005
  heat_capacity:      90.4765235
  energy:             16.5260357

- temperature:       160.0000000
  free_energy:        -5.2750387
  entropy:           141.9425270
  heat_capacity:      91.4444236
  energy:             17.4357656

- temperature:       170.0000000
  free_energy:        -6.7225501
  entropy:           147.5118747
  heat_capacity:      92.2754708
  energy:             18.3544686

- temperature:       180.0000000
  free_energy:        -8.2243625
  entropy:           152.8069989
  heat_capacity:      92.9930533
  energy:             19.2808973

- temperature:       190.0000000
  free_energy:        -9.7778565
  entropy:           157.8519540
  heat_capacity:      93.6160456
  energy:             20.2140148

- temperature:       200.0000000
  free_energy:       -11.3806387
  entropy:           162.6679646
  heat_capacity:      94.1597429
  energy:             21.1529542

- temperature:       210.0000000
  free_energy:       -13.0305155
  entropy:           167.2738218
  heat_capacity:      94.6365982
  energy:             22.0969871

- temperature:       220.0000000
  free_energy:       -14.7254705
  entropy:           171.6862182
  heat_capacity:      95.0568023
  energy:             23.0454975

- temperature:       230.0000000
  free_energy:       -16.4636448
  entropy:           175.9200311
  heat_capacity:      95.4287391
  energy:             23.9979624

- temperature:       240.0000000
  free_energy:       -18.2433203
  entropy:           179.9885624
  heat_capacity:      95.7593423
  energy:             24.9539347

- temperature:       250.0000000
  free_energy:       -20.0629050
  entropy:           183.9037430
  heat_capacity:      96.0543768
  energy:             25.9130308

- temperature:       260.0000000
  free_energy:       -21.9209199
  entropy:           187.6763065
  heat_capacity:      96.3186603
  energy:             26.8749198

- temperature:       270.0000000
  free_energy:       -23.8159881
  entropy:           191.3159375
  heat_capacity:      96.5562396
  energy:             27.8393150

- temperature:       280.0000000
  free_energy:       -25.7468249
  entropy:           194.8313994
  heat_capacity:      96.7705303
  energy:             28.8059670

- temperature:       290.0000000
  free_energy:       -27.7122288
  entropy:           198.2306431
  heat_capacity:      96.9644290
  energy:             29.7746577

- temperature:       300.0000000
  free_energy:       -29.7110745
  entropy:           201.5209012
  heat_capacity:      97.1404031
  energy:             30.7451959

- temperature:       310.0000000
  free_energy:       -31.7423056
  entropy:           204.7087699
  heat_capacity:      97.3005639
  energy:             31.7174131

- temperature:       320.0000000
  free_energy:       -33.8049288
  entropy:           207.8002789
  heat_capacity:      97.4467250
  energy:             32.6911605

- temperature:       330.0000000
  free_energy:       -35.8980084
  entropy:           210.8009533
  heat_capacity:      97.5804512
  energy:             33.6663062

- temperature:       340.0000000
  free_energy:       -38.0206620
  entropy:           213.7158665
  heat_capacity:      97.7030972
  energy:             34.6427326

- temperature:       350.0000000
  free_energy:       -40.1720555
  entropy:           216.5496874
  heat_capacity:      97.8158404
  energy:             35.6203351

- temperature:       360.0000000
  free_energy:       -42.3513998
  entropy:           219.3067213
  heat_capacity:      97.9197075
  energy:             36.5990198

- temperature:       370.0000000
  free_energy:       -44.5579473
  entropy:           221.9909458
  heat_capacity:      98.0155971
  energy:             37.5787027

- temperature:       380.0000000
  free_energy:       -46.7909883
  entropy:           224.6060426
  heat_capacity:      98.1042979
  energy:             38.5593078

- temperature:       390.0000000
  free_energy:       -49.0498491
  entropy:           227.1554259
  heat_capacity:      98.1865046
  energy:             39.5407670

- temperature:       400.0000000
  free_energy:       -51.3338884
  entropy:           229.6422669
  heat_capacity:      98.2628305
  energy:             40.5230183

- temperature:       410.0000000
  free_energy:       -53.6424958
  entropy:           232.0695162
  heat_capacity:      98.3338189
  energy:             41.5060058

- temperature:       420.0000000
  free_energy:       -55.9750893
  entropy:           234.4399234
  heat_capacity:      98.3999523
  energy:             42.4896785

- temperature:       430.0000000
  free_energy:       -58.3311134
  entropy:           236.7560546
  heat_capacity:      98.4616602
  energy:             43.4739901

- temperature:       440.0000000
  free_energy:       -60.7100375
  entropy:           239.0203085
  heat_capacity:      98.5193262
  energy:             44.4588983

- temperature:       450.0000000
  free_energy:       -63.1113541
  entropy:           241.2349299
  heat_capacity:      98.5732932
  energy:             45.4443643

- temperature:       460.0000000
  free_energy:       -65.5345776
  entropy:           243.4020228
  heat_capacity:      98.6238689
  energy:             46.4303528

- temperature:       470.0000000
  free_energy:       -67.9792427
  entropy:           245.5235618
  heat_capacity:      98.6713300
  energy:             47.4168313

- temperature:       480.0000000
  free_energy:       -70.4449032
  entropy:           247.6014023
  heat_capacity:      98.7159255
  energy:             48.4037699

- temperature:       490.0000000
  free_energy:       -72.9311310
  entropy:           249.6372898
  heat_capacity:      98.7578803
  energy:             49.3911410

- temperature:       500.0000000
  free_energy:       -75.4375147
  entropy:           251.6328681
  heat_capacity:      98.7973976
  energy:             50.3789194

- temperature:       510.0000000
  free_energy:       -77.9636591
  entropy:           253.5896875
  heat_capacity:      98.8346617
  energy:             51.3670815

- temperature:       520.0000000
  free_energy:       -80.5091841
  entropy:           255.5092111
  heat_capacity:      98.8698398
  energy:             52.3556057

- temperature:       530.0000000
  free_energy:       -83.0737236
  entropy:           257.3928216
  heat_capacity:      98.9030841
  energy:             53.3444718

- temperature:       540.0000000
  free_energy:       -85.6569252
  entropy:           259.2418270
  heat_capacity:      98.9345330
  energy:             54.3336614

- temperature:       550.0000000
  free_energy:       -88.2584490
  entropy:           261.0574653
  heat_capacity:      98.9643130
  energy:             55.3231569

- temperature:       560.0000000
  free_energy:       -90.8779672
  entropy:           262.8409101
  heat_capacity:      98.9925396
  energy:             56.3129424

- temperature:       570.0000000
  free_energy:       -93.5151636
  entropy:           264.5932745
  heat_capacity:      99.0193184
  energy:             57.3030029

- temperature:       580.0000000
  free_energy:       -96.1697326
  entropy:           266.3156154
  heat_capacity:      99.0447466
  energy:             58.2933243

- temperature:       590.0000000
  free_energy:       -98.8413792
  entropy:           268.0089369
  heat_capacity:      99.0689130
  energy:             59.2838936

- temperature:       600.0000000
  free_energy:      -101.5298178
  entropy:           269.6741941
  heat_capacity:      99.0918995
  energy:             60.2746986

- temperature:       610.0000000
  free_energy:      -104.2347725
  entropy:           271.3122958
  heat_capacity:      99.1137813
  energy:             61.2657279

- temperature:       620.0000000
  free_energy:      -106.9559761
  entropy:           272.9241079
  heat_capacity:      99.1346278
  energy:             62.2569708

- temperature:       630.0000000
  free_energy:      -109.6931698
  entropy:           274.5104556
  heat_capacity:      99.1545033
  energy:             63.2484172

- temperature:       640.0000000
  free_energy:      -112.4461030
  entropy:           276.0721262
  heat_capacity:      99.1734667
  energy:             64.2400578

- temperature:       650.0000000
  free_energy:      -115.2145326
  entropy:           277.6098712
  heat_capacity:      99.1915730
  energy:             65.2318837

- temperature:       660.0000000
  free_energy:      -117.9982230
  entropy:           279.1244085
  heat_capacity:      99.2088728
  energy:             66.2238866

- temperature:       670.0000000
  free_energy:      -120.7969457
  entropy:           280.6164244
  heat_capacity:      99.2254131
  energy:             67.2160586

- temperature:       680.0000000
  free_energy:      -123.6104786
  entropy:           282.0865752
  heat_capacity:      99.2412378
  energy:             68.2083925

- temperature:       690.0000000
  free_energy:      -126.4386064
  entropy:           283.5354892
  heat_capacity:      99.2563873
  energy:             69.2008812

- temperature:       700.0000000
  free_energy:      -129.2811196
  entropy:           284.9637682
  heat_capacity:      99.2708994
  energy:             70.1935181

- temperature:       710.0000000
  free_energy:      -132.1378149
  entropy:           286.3719888
  heat_capacity:      99.2848093
  energy:             71.1862971

- temperature:       720.0000000
  free_energy:      -135.0084944
  entropy:           287.7607039
  heat_capacity:      99.2981498
  energy:             72.1792124

- temperature:       730.0000000
  free_energy:      -137.8929657
  entropy:           289.1304439
  heat_capacity:      99.3109514
  energy:             73.1722583

- temperature:       740.0000000
  free_energy:      -140.7910417
  entropy:           290.4817182
  heat_capacity:      99.3232427
  energy:             74.1654297

- temperature:       750.0000000
  free_energy:      -143.7025402
  entropy:           291.8150157
  heat_capacity:      99.3350504
  energy:             75.1587216

- temperature:       760.0000000
  free_energy:      -146.6272837
  entropy:           293.1308064
  heat_capacity:      99.3463995
  energy:             76.1521292

- temperature:       770.0000000
  free_energy:      -149.5650995
  entropy:           294.4295423
  heat_capacity:      99.3573134
  energy:             77.1456481

- temperature:       780.0000000
  free_energy:      -152.5158191
  entropy:           295.7116580
  heat_capacity:      99.3678140
  energy:             78.1392741

- temperature:       790.0000000
  free_energy:      -155.4792786
  entropy:           296.9775718
  heat_capacity:      99.3779218
  energy:             79.1330031

- temperature:       800.0000000
  free_energy:      -158.4553179
  entropy:           298.2276865
  heat_capacity:      99.3876563
  energy:             80.1268313

- temperature:       810.0000000
  free_energy:      -161.4437810
  entropy:           299.4623901
  heat_capacity:      99.3970354
  energy:             81.1207550

- temperature:       820.0000000
  free_energy:      -164.4445156
  entropy:           300.6820566
  heat_capacity:      99.4060763
  energy:             82.1147709

- temperature:       830.0000000
  free_energy:      -167.4573732
  entropy:           301.8870466
  heat_capacity:      99.4147949
  energy:             83.1088755

- temperature:       840.0000000
  free_energy:      -170.4822088
  entropy:           303.0777077
  heat_capacity:      99.4232065
  energy:             84.1030657

- temperature:       850.0000000
  free_energy:      -173.5188807
  entropy:           304.2543757
  heat_capacity:      99.4313251
  energy:             85.0973386

- temperature:       860.0000000
  free_energy:      -176.5672507
  entropy:           305.4173744
  heat_capacity:      99.4391643
  energy:             86.0916913

- temperature:       870.0000000
  free_energy:      -179.6271837
  entropy:           306.5670169
  heat_capacity:      99.4467367
  energy:             87.0861210

- temperature:       880.0000000
  free_energy:      -182.6985475
  entropy:           307.7036054
  heat_capacity:      99.4540543
  energy:             88.0806252

- temperature:       890.0000000
  free_energy:      -185.7812132
  entropy:           308.8274321
  heat_capacity:      99.4611282
  energy:             89.0752013

- temperature:       900.0000000
  free_energy:      -188.8750546
  entropy:           309.9387795
  heat_capacity:      99.4679693
  energy:             90.0698470

- temperature:       910.0000000
  free_energy:      -191.9799481
  entropy:           311.0379210
  heat_capacity:      99.4745876
  energy:             91.0645599

- temperature:       920.0000000
  free_energy:      -195.0957732
  entropy:           312.1251209
  heat_capacity:      99.4809926
  energy:             92.0593380

- temperature:       930.0000000
  free_energy:      -198.2224116
  entropy:           313.2006352
  heat_capacity:      99.4871935
  energy:             93.0541791

- temperature:       940.0000000
  free_energy:      -201.3597478
  entropy:           314.2647117
  heat_capacity:      99.4931987
  energy:             94.0490812

- temperature:       950.0000000
  free_energy:      -204.5076685
  entropy:           315.3175905
  heat_capacity:      99.4990164
  energy:             95.0440425

- temperature:       960.0000000
  free_energy:      -207.6660630
  entropy:           316.3595042
  heat_capacity:      99.5046544
  energy:             96.0390610

- temperature:       970.0000000
  free_energy:      -210.8348228
  entropy:           317.3906781
  heat_capacity:      99.5101199
  energy:             97.0341350

- temperature:       980.0000000
  free_energy:      -214.0138415
  entropy:           318.4113310
  heat_capacity:      99.5154199
  energy:             98.0292628

- temperature:       990.0000000
  free_energy:      -217.2030151
  entropy:           319.4216747
  heat_capacity:      99.5205610
  energy:             99.0244428

- temperature:      1000.0000000
  free_energy:      -220.4022413
  entropy:           320.4219149
  heat_capacity:      99.5255495
  energy:            100.0196735
