phonopy:
  version: "2.37.1"
  frequency_unit_conversion_factor: 15.633302
  symmetry_tolerance: 1.00000e-05

space_group:
  type: "P1"
  number: 1
  Hall_symbol: "P 1"

primitive_matrix:
- [  1.000000000000000,  0.000000000000000,  0.000000000000000 ]
- [  0.000000000000000,  1.000000000000000,  0.000000000000000 ]
- [  0.000000000000000,  0.000000000000000,  1.000000000000000 ]

supercell_matrix:
- [   3,   0,   0 ]
- [   0,   3,   0 ]
- [   0,   0,   1 ]

primitive_cell:
  lattice:
  - [     4.549543424505186,     0.000000000000000,     0.000000000000000 ] # a
  - [    -0.000010431277220,     4.570569709556531,     0.000000000000000 ] # b
  - [    -0.028598252114910,    -0.045691385519367,    18.209921981295416 ] # c
  points:
  - symbol: Sn # 1
    coordinates: [  0.785462876338934,  0.705784270328789,  0.223986105340068 ]
    mass: 118.710000
  - symbol: Sn # 2
    coordinates: [  0.285709916051460,  0.705193712770082,  0.077334296486479 ]
    mass: 118.710000
  - symbol: Sn # 3
    coordinates: [  0.785927224497306,  0.205363541122746,  0.789057031367694 ]
    mass: 118.710000
  - symbol: Sn # 4
    coordinates: [  0.285900259585970,  0.204934754418849,  0.933989548904923 ]
    mass: 118.710000
  - symbol: Sn # 5
    coordinates: [  0.286423768376807,  0.206352680953286,  0.495979478456218 ]
    mass: 118.710000
  - symbol: Sn # 6
    coordinates: [  0.785481164368917,  0.205381593410500,  0.078789386349311 ]
    mass: 118.710000
  - symbol: Sn # 7
    coordinates: [  0.785894685763120,  0.704892990641264,  0.931592995799010 ]
    mass: 118.710000
  - symbol: Sn # 8
    coordinates: [  0.285597033454097,  0.706145895554852,  0.368315464080551 ]
    mass: 118.710000
  - symbol: Sn # 9
    coordinates: [  0.285923945754627,  0.705065870849411,  0.785774007157208 ]
    mass: 118.710000
  - symbol: Sn # 10
    coordinates: [  0.285431934855588,  0.205784792080456,  0.222596677976312 ]
    mass: 118.710000
  - symbol: Sn # 11
    coordinates: [  0.285435365075154,  0.203854021978414,  0.660345705226875 ]
    mass: 118.710000
  - symbol: Sn # 12
    coordinates: [  0.785751409598381,  0.205936828791704,  0.368051996747536 ]
    mass: 118.710000
  - symbol: Sn # 13
    coordinates: [  0.785085079052485,  0.705329210173365,  0.577651444107656 ]
    mass: 118.710000
  reciprocal_lattice: # without 2pi
  - [     0.219802276117138,     0.000000501648289,     0.000345195538745 ] # a*
  - [     0.000000000000000,     0.218791105605307,     0.000548979219389 ] # b*
  - [     0.000000000000000,     0.000000000000000,     0.054915117210670 ] # c*

unit_cell:
  lattice:
  - [     4.549543424505187,     0.000000000000000,     0.000000000000000 ] # a
  - [    -0.000010431277220,     4.570569709556532,     0.000000000000000 ] # b
  - [    -0.028598252114910,    -0.045691385519367,    18.209921981295416 ] # c
  points:
  - symbol: Sn # 1
    coordinates: [  0.785462876338934,  0.705784270328789,  0.223986105340068 ]
    mass: 118.710000
    reduced_to: 1
  - symbol: Sn # 2
    coordinates: [  0.285709916051460,  0.705193712770082,  0.077334296486479 ]
    mass: 118.710000
    reduced_to: 2
  - symbol: Sn # 3
    coordinates: [  0.785927224497306,  0.205363541122746,  0.789057031367694 ]
    mass: 118.710000
    reduced_to: 3
  - symbol: Sn # 4
    coordinates: [  0.285900259585970,  0.204934754418849,  0.933989548904923 ]
    mass: 118.710000
    reduced_to: 4
  - symbol: Sn # 5
    coordinates: [  0.286423768376807,  0.206352680953286,  0.495979478456218 ]
    mass: 118.710000
    reduced_to: 5
  - symbol: Sn # 6
    coordinates: [  0.785481164368917,  0.205381593410500,  0.078789386349311 ]
    mass: 118.710000
    reduced_to: 6
  - symbol: Sn # 7
    coordinates: [  0.785894685763121,  0.704892990641264,  0.931592995799010 ]
    mass: 118.710000
    reduced_to: 7
  - symbol: Sn # 8
    coordinates: [  0.285597033454097,  0.706145895554852,  0.368315464080551 ]
    mass: 118.710000
    reduced_to: 8
  - symbol: Sn # 9
    coordinates: [  0.285923945754627,  0.705065870849411,  0.785774007157208 ]
    mass: 118.710000
    reduced_to: 9
  - symbol: Sn # 10
    coordinates: [  0.285431934855588,  0.205784792080456,  0.222596677976312 ]
    mass: 118.710000
    reduced_to: 10
  - symbol: Sn # 11
    coordinates: [  0.285435365075154,  0.203854021978414,  0.660345705226875 ]
    mass: 118.710000
    reduced_to: 11
  - symbol: Sn # 12
    coordinates: [  0.785751409598381,  0.205936828791704,  0.368051996747536 ]
    mass: 118.710000
    reduced_to: 12
  - symbol: Sn # 13
    coordinates: [  0.785085079052485,  0.705329210173365,  0.577651444107656 ]
    mass: 118.710000
    reduced_to: 13

supercell:
  lattice:
  - [    13.648630273515561,     0.000000000000000,     0.000000000000000 ] # a
  - [    -0.000031293831661,    13.711709128669595,     0.000000000000000 ] # b
  - [    -0.028598252114910,    -0.045691385519367,    18.209921981295416 ] # c
  points:
  - symbol: Sn # 1
    coordinates: [  0.261820958779645,  0.235261423442930,  0.223986105340068 ]
    mass: 118.710000
    reduced_to: 1
  - symbol: Sn # 2
    coordinates: [  0.595154292112978,  0.235261423442930,  0.223986105340068 ]
    mass: 118.710000
    reduced_to: 1
  - symbol: Sn # 3
    coordinates: [  0.928487625446311,  0.235261423442930,  0.223986105340068 ]
    mass: 118.710000
    reduced_to: 1
  - symbol: Sn # 4
    coordinates: [  0.261820958779645,  0.568594756776263,  0.223986105340068 ]
    mass: 118.710000
    reduced_to: 1
  - symbol: Sn # 5
    coordinates: [  0.595154292112978,  0.568594756776263,  0.223986105340068 ]
    mass: 118.710000
    reduced_to: 1
  - symbol: Sn # 6
    coordinates: [  0.928487625446311,  0.568594756776263,  0.223986105340068 ]
    mass: 118.710000
    reduced_to: 1
  - symbol: Sn # 7
    coordinates: [  0.261820958779645,  0.901928090109596,  0.223986105340068 ]
    mass: 118.710000
    reduced_to: 1
  - symbol: Sn # 8
    coordinates: [  0.595154292112978,  0.901928090109596,  0.223986105340068 ]
    mass: 118.710000
    reduced_to: 1
  - symbol: Sn # 9
    coordinates: [  0.928487625446311,  0.901928090109596,  0.223986105340068 ]
    mass: 118.710000
    reduced_to: 1
  - symbol: Sn # 10
    coordinates: [  0.095236638683820,  0.235064570923361,  0.077334296486479 ]
    mass: 118.710000
    reduced_to: 10
  - symbol: Sn # 11
    coordinates: [  0.428569972017153,  0.235064570923361,  0.077334296486479 ]
    mass: 118.710000
    reduced_to: 10
  - symbol: Sn # 12
    coordinates: [  0.761903305350486,  0.235064570923361,  0.077334296486479 ]
    mass: 118.710000
    reduced_to: 10
  - symbol: Sn # 13
    coordinates: [  0.095236638683820,  0.568397904256694,  0.077334296486479 ]
    mass: 118.710000
    reduced_to: 10
  - symbol: Sn # 14
    coordinates: [  0.428569972017153,  0.568397904256694,  0.077334296486479 ]
    mass: 118.710000
    reduced_to: 10
  - symbol: Sn # 15
    coordinates: [  0.761903305350486,  0.568397904256694,  0.077334296486479 ]
    mass: 118.710000
    reduced_to: 10
  - symbol: Sn # 16
    coordinates: [  0.095236638683820,  0.901731237590027,  0.077334296486479 ]
    mass: 118.710000
    reduced_to: 10
  - symbol: Sn # 17
    coordinates: [  0.428569972017153,  0.901731237590027,  0.077334296486479 ]
    mass: 118.710000
    reduced_to: 10
  - symbol: Sn # 18
    coordinates: [  0.761903305350486,  0.901731237590027,  0.077334296486479 ]
    mass: 118.710000
    reduced_to: 10
  - symbol: Sn # 19
    coordinates: [  0.261975741499102,  0.068454513707582,  0.789057031367694 ]
    mass: 118.710000
    reduced_to: 19
  - symbol: Sn # 20
    coordinates: [  0.595309074832435,  0.068454513707582,  0.789057031367694 ]
    mass: 118.710000
    reduced_to: 19
  - symbol: Sn # 21
    coordinates: [  0.928642408165768,  0.068454513707582,  0.789057031367694 ]
    mass: 118.710000
    reduced_to: 19
  - symbol: Sn # 22
    coordinates: [  0.261975741499102,  0.401787847040915,  0.789057031367694 ]
    mass: 118.710000
    reduced_to: 19
  - symbol: Sn # 23
    coordinates: [  0.595309074832435,  0.401787847040915,  0.789057031367694 ]
    mass: 118.710000
    reduced_to: 19
  - symbol: Sn # 24
    coordinates: [  0.928642408165768,  0.401787847040915,  0.789057031367694 ]
    mass: 118.710000
    reduced_to: 19
  - symbol: Sn # 25
    coordinates: [  0.261975741499102,  0.735121180374249,  0.789057031367694 ]
    mass: 118.710000
    reduced_to: 19
  - symbol: Sn # 26
    coordinates: [  0.595309074832435,  0.735121180374249,  0.789057031367694 ]
    mass: 118.710000
    reduced_to: 19
  - symbol: Sn # 27
    coordinates: [  0.928642408165768,  0.735121180374249,  0.789057031367694 ]
    mass: 118.710000
    reduced_to: 19
  - symbol: Sn # 28
    coordinates: [  0.095300086528657,  0.068311584806283,  0.933989548904923 ]
    mass: 118.710000
    reduced_to: 28
  - symbol: Sn # 29
    coordinates: [  0.428633419861990,  0.068311584806283,  0.933989548904923 ]
    mass: 118.710000
    reduced_to: 28
  - symbol: Sn # 30
    coordinates: [  0.761966753195323,  0.068311584806283,  0.933989548904923 ]
    mass: 118.710000
    reduced_to: 28
  - symbol: Sn # 31
    coordinates: [  0.095300086528657,  0.401644918139616,  0.933989548904923 ]
    mass: 118.710000
    reduced_to: 28
  - symbol: Sn # 32
    coordinates: [  0.428633419861990,  0.401644918139616,  0.933989548904923 ]
    mass: 118.710000
    reduced_to: 28
  - symbol: Sn # 33
    coordinates: [  0.761966753195323,  0.401644918139616,  0.933989548904923 ]
    mass: 118.710000
    reduced_to: 28
  - symbol: Sn # 34
    coordinates: [  0.095300086528657,  0.734978251472950,  0.933989548904923 ]
    mass: 118.710000
    reduced_to: 28
  - symbol: Sn # 35
    coordinates: [  0.428633419861990,  0.734978251472950,  0.933989548904923 ]
    mass: 118.710000
    reduced_to: 28
  - symbol: Sn # 36
    coordinates: [  0.761966753195323,  0.734978251472950,  0.933989548904923 ]
    mass: 118.710000
    reduced_to: 28
  - symbol: Sn # 37
    coordinates: [  0.095474589458936,  0.068784226984429,  0.495979478456218 ]
    mass: 118.710000
    reduced_to: 37
  - symbol: Sn # 38
    coordinates: [  0.428807922792269,  0.068784226984429,  0.495979478456218 ]
    mass: 118.710000
    reduced_to: 37
  - symbol: Sn # 39
    coordinates: [  0.762141256125602,  0.068784226984429,  0.495979478456218 ]
    mass: 118.710000
    reduced_to: 37
  - symbol: Sn # 40
    coordinates: [  0.095474589458936,  0.402117560317762,  0.495979478456218 ]
    mass: 118.710000
    reduced_to: 37
  - symbol: Sn # 41
    coordinates: [  0.428807922792269,  0.402117560317762,  0.495979478456218 ]
    mass: 118.710000
    reduced_to: 37
  - symbol: Sn # 42
    coordinates: [  0.762141256125602,  0.402117560317762,  0.495979478456218 ]
    mass: 118.710000
    reduced_to: 37
  - symbol: Sn # 43
    coordinates: [  0.095474589458936,  0.735450893651095,  0.495979478456218 ]
    mass: 118.710000
    reduced_to: 37
  - symbol: Sn # 44
    coordinates: [  0.428807922792269,  0.735450893651095,  0.495979478456218 ]
    mass: 118.710000
    reduced_to: 37
  - symbol: Sn # 45
    coordinates: [  0.762141256125602,  0.735450893651095,  0.495979478456218 ]
    mass: 118.710000
    reduced_to: 37
  - symbol: Sn # 46
    coordinates: [  0.261827054789639,  0.068460531136833,  0.078789386349311 ]
    mass: 118.710000
    reduced_to: 46
  - symbol: Sn # 47
    coordinates: [  0.595160388122972,  0.068460531136833,  0.078789386349311 ]
    mass: 118.710000
    reduced_to: 46
  - symbol: Sn # 48
    coordinates: [  0.928493721456305,  0.068460531136833,  0.078789386349311 ]
    mass: 118.710000
    reduced_to: 46
  - symbol: Sn # 49
    coordinates: [  0.261827054789639,  0.401793864470167,  0.078789386349311 ]
    mass: 118.710000
    reduced_to: 46
  - symbol: Sn # 50
    coordinates: [  0.595160388122972,  0.401793864470167,  0.078789386349311 ]
    mass: 118.710000
    reduced_to: 46
  - symbol: Sn # 51
    coordinates: [  0.928493721456305,  0.401793864470167,  0.078789386349311 ]
    mass: 118.710000
    reduced_to: 46
  - symbol: Sn # 52
    coordinates: [  0.261827054789639,  0.735127197803500,  0.078789386349311 ]
    mass: 118.710000
    reduced_to: 46
  - symbol: Sn # 53
    coordinates: [  0.595160388122972,  0.735127197803500,  0.078789386349311 ]
    mass: 118.710000
    reduced_to: 46
  - symbol: Sn # 54
    coordinates: [  0.928493721456305,  0.735127197803500,  0.078789386349311 ]
    mass: 118.710000
    reduced_to: 46
  - symbol: Sn # 55
    coordinates: [  0.261964895254373,  0.234964330213755,  0.931592995799010 ]
    mass: 118.710000
    reduced_to: 55
  - symbol: Sn # 56
    coordinates: [  0.595298228587707,  0.234964330213755,  0.931592995799010 ]
    mass: 118.710000
    reduced_to: 55
  - symbol: Sn # 57
    coordinates: [  0.928631561921040,  0.234964330213755,  0.931592995799010 ]
    mass: 118.710000
    reduced_to: 55
  - symbol: Sn # 58
    coordinates: [  0.261964895254373,  0.568297663547088,  0.931592995799010 ]
    mass: 118.710000
    reduced_to: 55
  - symbol: Sn # 59
    coordinates: [  0.595298228587707,  0.568297663547088,  0.931592995799010 ]
    mass: 118.710000
    reduced_to: 55
  - symbol: Sn # 60
    coordinates: [  0.928631561921040,  0.568297663547088,  0.931592995799010 ]
    mass: 118.710000
    reduced_to: 55
  - symbol: Sn # 61
    coordinates: [  0.261964895254373,  0.901630996880421,  0.931592995799010 ]
    mass: 118.710000
    reduced_to: 55
  - symbol: Sn # 62
    coordinates: [  0.595298228587707,  0.901630996880421,  0.931592995799010 ]
    mass: 118.710000
    reduced_to: 55
  - symbol: Sn # 63
    coordinates: [  0.928631561921040,  0.901630996880421,  0.931592995799010 ]
    mass: 118.710000
    reduced_to: 55
  - symbol: Sn # 64
    coordinates: [  0.095199011151366,  0.235381965184951,  0.368315464080551 ]
    mass: 118.710000
    reduced_to: 64
  - symbol: Sn # 65
    coordinates: [  0.428532344484699,  0.235381965184951,  0.368315464080551 ]
    mass: 118.710000
    reduced_to: 64
  - symbol: Sn # 66
    coordinates: [  0.761865677818032,  0.235381965184951,  0.368315464080551 ]
    mass: 118.710000
    reduced_to: 64
  - symbol: Sn # 67
    coordinates: [  0.095199011151366,  0.568715298518284,  0.368315464080551 ]
    mass: 118.710000
    reduced_to: 64
  - symbol: Sn # 68
    coordinates: [  0.428532344484699,  0.568715298518284,  0.368315464080551 ]
    mass: 118.710000
    reduced_to: 64
  - symbol: Sn # 69
    coordinates: [  0.761865677818032,  0.568715298518284,  0.368315464080551 ]
    mass: 118.710000
    reduced_to: 64
  - symbol: Sn # 70
    coordinates: [  0.095199011151366,  0.902048631851617,  0.368315464080551 ]
    mass: 118.710000
    reduced_to: 64
  - symbol: Sn # 71
    coordinates: [  0.428532344484699,  0.902048631851617,  0.368315464080551 ]
    mass: 118.710000
    reduced_to: 64
  - symbol: Sn # 72
    coordinates: [  0.761865677818032,  0.902048631851617,  0.368315464080551 ]
    mass: 118.710000
    reduced_to: 64
  - symbol: Sn # 73
    coordinates: [  0.095307981918209,  0.235021956949804,  0.785774007157208 ]
    mass: 118.710000
    reduced_to: 73
  - symbol: Sn # 74
    coordinates: [  0.428641315251542,  0.235021956949804,  0.785774007157208 ]
    mass: 118.710000
    reduced_to: 73
  - symbol: Sn # 75
    coordinates: [  0.761974648584876,  0.235021956949804,  0.785774007157208 ]
    mass: 118.710000
    reduced_to: 73
  - symbol: Sn # 76
    coordinates: [  0.095307981918209,  0.568355290283137,  0.785774007157208 ]
    mass: 118.710000
    reduced_to: 73
  - symbol: Sn # 77
    coordinates: [  0.428641315251542,  0.568355290283137,  0.785774007157208 ]
    mass: 118.710000
    reduced_to: 73
  - symbol: Sn # 78
    coordinates: [  0.761974648584876,  0.568355290283137,  0.785774007157208 ]
    mass: 118.710000
    reduced_to: 73
  - symbol: Sn # 79
    coordinates: [  0.095307981918209,  0.901688623616470,  0.785774007157208 ]
    mass: 118.710000
    reduced_to: 73
  - symbol: Sn # 80
    coordinates: [  0.428641315251542,  0.901688623616470,  0.785774007157208 ]
    mass: 118.710000
    reduced_to: 73
  - symbol: Sn # 81
    coordinates: [  0.761974648584876,  0.901688623616470,  0.785774007157208 ]
    mass: 118.710000
    reduced_to: 73
  - symbol: Sn # 82
    coordinates: [  0.095143978285196,  0.068594930693485,  0.222596677976312 ]
    mass: 118.710000
    reduced_to: 82
  - symbol: Sn # 83
    coordinates: [  0.428477311618529,  0.068594930693485,  0.222596677976312 ]
    mass: 118.710000
    reduced_to: 82
  - symbol: Sn # 84
    coordinates: [  0.761810644951863,  0.068594930693485,  0.222596677976312 ]
    mass: 118.710000
    reduced_to: 82
  - symbol: Sn # 85
    coordinates: [  0.095143978285196,  0.401928264026819,  0.222596677976312 ]
    mass: 118.710000
    reduced_to: 82
  - symbol: Sn # 86
    coordinates: [  0.428477311618529,  0.401928264026819,  0.222596677976312 ]
    mass: 118.710000
    reduced_to: 82
  - symbol: Sn # 87
    coordinates: [  0.761810644951863,  0.401928264026819,  0.222596677976312 ]
    mass: 118.710000
    reduced_to: 82
  - symbol: Sn # 88
    coordinates: [  0.095143978285196,  0.735261597360152,  0.222596677976312 ]
    mass: 118.710000
    reduced_to: 82
  - symbol: Sn # 89
    coordinates: [  0.428477311618529,  0.735261597360152,  0.222596677976312 ]
    mass: 118.710000
    reduced_to: 82
  - symbol: Sn # 90
    coordinates: [  0.761810644951863,  0.735261597360152,  0.222596677976312 ]
    mass: 118.710000
    reduced_to: 82
  - symbol: Sn # 91
    coordinates: [  0.095145121691718,  0.067951340659471,  0.660345705226875 ]
    mass: 118.710000
    reduced_to: 91
  - symbol: Sn # 92
    coordinates: [  0.428478455025051,  0.067951340659471,  0.660345705226875 ]
    mass: 118.710000
    reduced_to: 91
  - symbol: Sn # 93
    coordinates: [  0.761811788358385,  0.067951340659471,  0.660345705226875 ]
    mass: 118.710000
    reduced_to: 91
  - symbol: Sn # 94
    coordinates: [  0.095145121691718,  0.401284673992805,  0.660345705226875 ]
    mass: 118.710000
    reduced_to: 91
  - symbol: Sn # 95
    coordinates: [  0.428478455025051,  0.401284673992805,  0.660345705226875 ]
    mass: 118.710000
    reduced_to: 91
  - symbol: Sn # 96
    coordinates: [  0.761811788358385,  0.401284673992805,  0.660345705226875 ]
    mass: 118.710000
    reduced_to: 91
  - symbol: Sn # 97
    coordinates: [  0.095145121691718,  0.734618007326138,  0.660345705226875 ]
    mass: 118.710000
    reduced_to: 91
  - symbol: Sn # 98
    coordinates: [  0.428478455025051,  0.734618007326138,  0.660345705226875 ]
    mass: 118.710000
    reduced_to: 91
  - symbol: Sn # 99
    coordinates: [  0.761811788358385,  0.734618007326138,  0.660345705226875 ]
    mass: 118.710000
    reduced_to: 91
  - symbol: Sn # 100
    coordinates: [  0.261917136532794,  0.068645609597235,  0.368051996747536 ]
    mass: 118.710000
    reduced_to: 100
  - symbol: Sn # 101
    coordinates: [  0.595250469866127,  0.068645609597235,  0.368051996747536 ]
    mass: 118.710000
    reduced_to: 100
  - symbol: Sn # 102
    coordinates: [  0.928583803199460,  0.068645609597235,  0.368051996747536 ]
    mass: 118.710000
    reduced_to: 100
  - symbol: Sn # 103
    coordinates: [  0.261917136532794,  0.401978942930568,  0.368051996747536 ]
    mass: 118.710000
    reduced_to: 100
  - symbol: Sn # 104
    coordinates: [  0.595250469866127,  0.401978942930568,  0.368051996747536 ]
    mass: 118.710000
    reduced_to: 100
  - symbol: Sn # 105
    coordinates: [  0.928583803199460,  0.401978942930568,  0.368051996747536 ]
    mass: 118.710000
    reduced_to: 100
  - symbol: Sn # 106
    coordinates: [  0.261917136532794,  0.735312276263901,  0.368051996747536 ]
    mass: 118.710000
    reduced_to: 100
  - symbol: Sn # 107
    coordinates: [  0.595250469866127,  0.735312276263901,  0.368051996747536 ]
    mass: 118.710000
    reduced_to: 100
  - symbol: Sn # 108
    coordinates: [  0.928583803199460,  0.735312276263901,  0.368051996747536 ]
    mass: 118.710000
    reduced_to: 100
  - symbol: Sn # 109
    coordinates: [  0.261695026350828,  0.235109736724455,  0.577651444107656 ]
    mass: 118.710000
    reduced_to: 109
  - symbol: Sn # 110
    coordinates: [  0.595028359684162,  0.235109736724455,  0.577651444107656 ]
    mass: 118.710000
    reduced_to: 109
  - symbol: Sn # 111
    coordinates: [  0.928361693017495,  0.235109736724455,  0.577651444107656 ]
    mass: 118.710000
    reduced_to: 109
  - symbol: Sn # 112
    coordinates: [  0.261695026350828,  0.568443070057788,  0.577651444107656 ]
    mass: 118.710000
    reduced_to: 109
  - symbol: Sn # 113
    coordinates: [  0.595028359684162,  0.568443070057788,  0.577651444107656 ]
    mass: 118.710000
    reduced_to: 109
  - symbol: Sn # 114
    coordinates: [  0.928361693017495,  0.568443070057788,  0.577651444107656 ]
    mass: 118.710000
    reduced_to: 109
  - symbol: Sn # 115
    coordinates: [  0.261695026350828,  0.901776403391122,  0.577651444107656 ]
    mass: 118.710000
    reduced_to: 109
  - symbol: Sn # 116
    coordinates: [  0.595028359684162,  0.901776403391122,  0.577651444107656 ]
    mass: 118.710000
    reduced_to: 109
  - symbol: Sn # 117
    coordinates: [  0.928361693017495,  0.901776403391122,  0.577651444107656 ]
    mass: 118.710000
    reduced_to: 109

displacements:
- atom:    1
  displacement:
    [   0.0100000000000000,  0.0000000000000000,  0.0000000000000000 ]
  forces:
  - [  -0.0185231287032366, -0.0000444632023573, -0.0112687749788165 ]
  - [   0.0004897263133898, -0.0000449856743217, -0.0112009886652231 ]
  - [   0.0004190746403765, -0.0000440753065050, -0.0112576605752110 ]
  - [   0.0001040421338985, -0.0000503556802869, -0.0112282969057560 ]
  - [   0.0003074678243138,  0.0003859726712108, -0.0112344175577164 ]
  - [   0.0002999751304742, -0.0004699653945863, -0.0112239010632038 ]
  - [   0.0001041924697347, -0.0000363669823855, -0.0112285446375608 ]
  - [   0.0003070575476158, -0.0004737777635455, -0.0112342145293951 ]
  - [   0.0002995998365805,  0.0003826364409178, -0.0112256798893213 ]
  - [  -0.0010343098547310,  0.0012465305626392,  0.0016129583818838 ]
  - [  -0.0010278051486239,  0.0012556596193463, -0.0003218084457330 ]
  - [  -0.0016316215042025,  0.0012501799501479,  0.0006529432721436 ]
  - [  -0.0014732343843207,  0.0011114126536995,  0.0008733938448131 ]
  - [  -0.0014727108646184,  0.0013905358500779,  0.0004299713764340 ]
  - [  -0.0014752571005374,  0.0012491538655013,  0.0006532908882946 ]
  - [  -0.0014747472014278,  0.0013905070954934,  0.0008736881427467 ]
  - [  -0.0014736391603947,  0.0011122077703476,  0.0004284123424441 ]
  - [  -0.0014763292856514,  0.0012505659833550,  0.0006529714446515 ]
  - [   0.0001985009876080, -0.0018577475566417, -0.0178046915680170 ]
  - [   0.0001869399566203, -0.0018516912823543, -0.0177915748208761 ]
  - [   0.0001865001831902, -0.0018666961695999, -0.0178172439336777 ]
  - [   0.0002008588926401, -0.0018572960980237, -0.0178048610687256 ]
  - [   0.0001876758760773, -0.0018659401684999, -0.0177915897220373 ]
  - [   0.0001878570765257, -0.0018509703222662, -0.0178180653601885 ]
  - [   0.0001888746774057, -0.0018576779402792, -0.0178049821406603 ]
  - [   0.0001916548935696, -0.0018583466298878, -0.0178089886903763 ]
  - [   0.0001914446766023, -0.0018587219528854, -0.0177999846637249 ]
  - [   0.0000050412691053, -0.0000286847935058, -0.0217708200216293 ]
  - [   0.0000063133775257, -0.0002923040301539, -0.0220015440136194 ]
  - [  -0.0000475528067909, -0.0001601884723641, -0.0218863673508167 ]
  - [   0.0000048532001529, -0.0002918495738413, -0.0217731557786465 ]
  - [   0.0000059396988945, -0.0000298196100630, -0.0220006797462702 ]
  - [  -0.0000477270878037, -0.0001610150211491, -0.0218870732933283 ]
  - [  -0.0000172258460225, -0.0001601535477675, -0.0219052545726299 ]
  - [  -0.0000174799697561, -0.0001603295677342, -0.0218676831573248 ]
  - [  -0.0000082427404777, -0.0001603318960406, -0.0218872129917145 ]
  - [   0.0015875129029155,  0.0060580754652619, -0.0109360218048096 ]
  - [   0.0015867259353399,  0.0056864414364100, -0.0108451247215271 ]
  - [   0.0015300698578358,  0.0058735115453601, -0.0108926743268967 ]
  - [   0.0015880239661783,  0.0056862104684114, -0.0109370946884155 ]
  - [   0.0015872009098530,  0.0060603776946664, -0.0108457058668137 ]
  - [   0.0015307106077671,  0.0058726798743010, -0.0108887106180191 ]
  - [   0.0015574649441987,  0.0058722980320454, -0.0108603090047836 ]
  - [   0.0015589017421007,  0.0058724903501570, -0.0109227299690247 ]
  - [   0.0015676058828831,  0.0058756200596690, -0.0108888447284698 ]
  - [   0.0009074988774955, -0.0011885687708855, -0.0048641907051206 ]
  - [   0.0019023073837161, -0.0013201937545091, -0.0050709350034595 ]
  - [   0.0019031165866181, -0.0010516152251512, -0.0046514188870788 ]
  - [   0.0009114462882280, -0.0011824518442154, -0.0048633171245456 ]
  - [   0.0019051013514400, -0.0010501550277695, -0.0050717955455184 ]
  - [   0.0019053751602769, -0.0013204128481448, -0.0046489015221596 ]
  - [   0.0016011029947549, -0.0011852509342134, -0.0048622973263264 ]
  - [   0.0015153414569795, -0.0011857654899359, -0.0048685390502214 ]
  - [   0.0015152539126575, -0.0011846931884065, -0.0048549147322774 ]
  - [  -0.0003934372216463,  0.0006297979853116,  0.0087141301482916 ]
  - [  -0.0000932563561946,  0.0006298256339505,  0.0086440816521645 ]
  - [  -0.0000921182800084,  0.0006296305800788,  0.0087894108146429 ]
  - [  -0.0001383346971124,  0.0006298479856923,  0.0087157990783453 ]
  - [  -0.0001846977975219,  0.0006104038329795,  0.0087375491857529 ]
  - [  -0.0001845441292971,  0.0006496439455077,  0.0086933225393295 ]
  - [  -0.0001393565908074,  0.0006293155020103,  0.0087160822004080 ]
  - [  -0.0001849050167948,  0.0006485368357971,  0.0087369121611118 ]
  - [  -0.0001847725361586,  0.0006101847393438,  0.0086940638720989 ]
  - [   0.0016195047646761, -0.0032809774857014,  0.0212498977780342 ]
  - [   0.0016362229362130, -0.0033009424805641,  0.0241608601063490 ]
  - [   0.0008497945964336, -0.0032912380993366,  0.0226736143231392 ]
  - [   0.0010138310026377, -0.0034000026062131,  0.0224486198276281 ]
  - [   0.0010134754702449, -0.0031864875927567,  0.0228957533836365 ]
  - [   0.0010292967781425, -0.0032916949130595,  0.0226738192141056 ]
  - [   0.0010157943470404, -0.0031832633540034,  0.0224510878324509 ]
  - [   0.0010140854865313, -0.0033976901322603,  0.0228955503553152 ]
  - [   0.0010317151900381, -0.0032932069152594,  0.0226743798702955 ]
  - [  -0.0004478939226829,  0.0004301090666559, -0.0033004228025675 ]
  - [  -0.0004480362404138,  0.0004315250844229, -0.0032625570893288 ]
  - [  -0.0004653695505112,  0.0004308500792831, -0.0032817348837852 ]
  - [  -0.0004564052505884,  0.0004366267821752, -0.0032862033694983 ]
  - [  -0.0004566465504467,  0.0004229737678543, -0.0032760910689831 ]
  - [  -0.0004467698745430,  0.0004300126747694, -0.0032807830721140 ]
  - [  -0.0004559361841530,  0.0004220109840389, -0.0032864399254322 ]
  - [  -0.0004558758810163,  0.0004367968067527, -0.0032761599868536 ]
  - [  -0.0004461798816919,  0.0004298377316445, -0.0032814163714647 ]
  - [   0.0037126936949790,  0.0038060564547777,  0.0183886066079140 ]
  - [   0.0038196421228349, -0.0043525914661586,  0.0181279145181179 ]
  - [   0.0003047315403819, -0.0001975852937903,  0.0182604920119047 ]
  - [   0.0037094193976372, -0.0041964435949922,  0.0183957908302546 ]
  - [   0.0038159105461091,  0.0039585446938872,  0.0181188117712736 ]
  - [   0.0003048996441066, -0.0001948277349584,  0.0182597972452641 ]
  - [   0.0001673689257586, -0.0001973788603209,  0.0182596519589424 ]
  - [   0.0001656715758145, -0.0001965759583982,  0.0182608775794506 ]
  - [   0.0005301064811647, -0.0001963912654901,  0.0182600170373917 ]
  - [  -0.0025304798036814, -0.0031533790752292,  0.0000248774886131 ]
  - [  -0.0025296062231064, -0.0031575793400407,  0.0000304058194160 ]
  - [  -0.0025274753570557, -0.0031547553371638,  0.0000288709998131 ]
  - [  -0.0025314514059573, -0.0031583867967129,  0.0000268071889877 ]
  - [  -0.0025319447740912, -0.0031542526558042,  0.0000319778919220 ]
  - [  -0.0025284970179200, -0.0031557949259877,  0.0000258758664131 ]
  - [  -0.0025306157767773, -0.0031538922339678,  0.0000265240669250 ]
  - [  -0.0025327950716019, -0.0031535169109702,  0.0000297054648399 ]
  - [  -0.0025262162089348, -0.0031537460163236,  0.0000263527035713 ]
  - [  -0.0015682613011450,  0.0017100324621424,  0.0201145187020302 ]
  - [  -0.0006711494643241,  0.0015738487709314,  0.0203008502721786 ]
  - [  -0.0006707025459036,  0.0018345704302192,  0.0199246518313885 ]
  - [  -0.0015772189944983,  0.0016986466944218,  0.0201154015958309 ]
  - [  -0.0006697853095829,  0.0018333541229367,  0.0202992521226406 ]
  - [  -0.0006696095224470,  0.0015739155933261,  0.0199263691902161 ]
  - [  -0.0008967399480753,  0.0017058905214071,  0.0201129205524921 ]
  - [  -0.0009854347445071,  0.0017050104215741,  0.0201276652514935 ]
  - [  -0.0009859404526651,  0.0017053887713701,  0.0200987979769707 ]
  - [   0.0010200274409726,  0.0000037588179111, -0.0004881392233074 ]
  - [   0.0010483834194019,  0.0000020191073418, -0.0004818369634449 ]
  - [   0.0010477137984708,  0.0000041648745537, -0.0004951097071171 ]
  - [   0.0010472032008693,  0.0000033006072044, -0.0004883897490799 ]
  - [   0.0010353596881032, -0.0000066608190536, -0.0005042529664934 ]
  - [   0.0010348724899814,  0.0000127367675304, -0.0004726946353912 ]
  - [   0.0010472573339939,  0.0000032484531403, -0.0004886914975941 ]
  - [   0.0010359007865191,  0.0000143088400364, -0.0005028829909861 ]
  - [   0.0010339990258217, -0.0000077039003372, -0.0004729237407446 ]
- atom:    1
  displacement:
    [  -0.0100000000000000,  0.0000000000000000,  0.0000000000000000 ]
  forces:
  - [   0.0183416865766048, -0.0000437446869910, -0.0111814672127366 ]