# Thermal properties / unit cell (natom)

unit:
  temperature:   K
  free_energy:   kJ/mol
  entropy:       J/K/mol
  heat_capacity: J/K/mol

natom: 12   
cutoff_frequency: 0.00000
num_modes: 165888
num_integrated_modes: 165886

zero_point_energy:      46.0582039

thermal_properties:
- temperature:         0.0000000
  free_energy:        46.0582039
  entropy:             0.0000000
  heat_capacity:       0.0000000
  energy:             46.0582039

- temperature:        10.0000000
  free_energy:        46.0559487
  entropy:             0.8505871
  heat_capacity:       2.5865312
  energy:             46.0644546

- temperature:        20.0000000
  free_energy:        46.0238865
  entropy:             6.6789085
  heat_capacity:      18.2401047
  energy:             46.1574646

- temperature:        30.0000000
  free_energy:        45.9031288
  entropy:            18.1574826
  heat_capacity:      39.7424646
  energy:             46.4478533

- temperature:        40.0000000
  free_energy:        45.6521241
  entropy:            32.2846249
  heat_capacity:      58.8952135
  energy:             46.9435091

- temperature:        50.0000000
  free_energy:        45.2546948
  entropy:            47.2736252
  heat_capacity:      75.8479854
  energy:             47.6183761

- temperature:        60.0000000
  free_energy:        44.7057818
  entropy:            62.5360749
  heat_capacity:      92.0095614
  energy:             48.4579463

- temperature:        70.0000000
  free_energy:        44.0035777
  entropy:            77.9193668
  heat_capacity:     107.9592126
  energy:             49.4579334

- temperature:        80.0000000
  free_energy:        43.1471928
  entropy:            93.3627630
  heat_capacity:     123.6271743
  energy:             50.6162139

- temperature:        90.0000000
  free_energy:        42.1363338
  entropy:           108.8023251
  heat_capacity:     138.7160522
  energy:             51.9285430

- temperature:       100.0000000
  free_energy:        40.9714114
  entropy:           124.1623447
  heat_capacity:     152.9417446
  energy:             53.3876459

- temperature:       110.0000000
  free_energy:        39.6536092
  entropy:           139.3659716
  heat_capacity:     166.1173723
  energy:             54.9838660

- temperature:       120.0000000
  free_energy:        38.1848433
  entropy:           154.3446528
  heat_capacity:     178.1581291
  energy:             56.7062016

- temperature:       130.0000000
  free_energy:        36.5676527
  entropy:           169.0428295
  heat_capacity:     189.0581692
  energy:             58.5432205

- temperature:       140.0000000
  free_energy:        34.8050617
  entropy:           183.4189382
  heat_capacity:     198.8635862
  energy:             60.4837131

- temperature:       150.0000000
  free_energy:        32.9004442
  entropy:           197.4443358
  heat_capacity:     207.6501312
  energy:             62.5170946

- temperature:       160.0000000
  free_energy:        30.8574040
  entropy:           211.1013352
  heat_capacity:     215.5073516
  energy:             64.6336176

- temperature:       170.0000000
  free_energy:        28.6796759
  entropy:           224.3810500
  heat_capacity:     222.5283008
  energy:             66.8244543

- temperature:       180.0000000
  free_energy:        26.3710481
  entropy:           237.2813886
  heat_capacity:     228.8033746
  energy:             69.0816980

- temperature:       190.0000000
  free_energy:        23.9353031
  entropy:           249.8053400
  heat_capacity:     234.4169561
  energy:             71.3983177

- temperature:       200.0000000
  free_energy:        21.3761740
  entropy:           261.9595759
  heat_capacity:     239.4458638
  energy:             73.7680892

- temperature:       210.0000000
  free_energy:        18.6973133
  entropy:           273.7533475
  heat_capacity:     243.9588990
  energy:             76.1855163

- temperature:       220.0000000
  free_energy:        15.9022721
  entropy:           285.1976341
  heat_capacity:     248.0170277
  energy:             78.6457516

- temperature:       230.0000000
  free_energy:        12.9944855
  entropy:           296.3044983
  heat_capacity:     251.6738993
  energy:             81.1445201

- temperature:       240.0000000
  free_energy:         9.9772647
  entropy:           307.0866030
  heat_capacity:     254.9765201
  energy:             83.6780494

- temperature:       250.0000000
  free_energy:         6.8537929
  entropy:           317.5568570
  heat_capacity:     257.9659719
  energy:             86.2430072

- temperature:       260.0000000
  free_energy:         3.6271240
  entropy:           327.7281575
  heat_capacity:     260.6781153
  energy:             88.8364450

- temperature:       270.0000000
  free_energy:         0.3001839
  entropy:           337.6132073
  heat_capacity:     263.1442453
  energy:             91.4557499

- temperature:       280.0000000
  free_energy:        -3.1242273
  entropy:           347.2243878
  heat_capacity:     265.3916843
  energy:             94.0986013

- temperature:       290.0000000
  free_energy:        -6.6434309
  entropy:           356.5736739
  heat_capacity:     267.4443094
  energy:             96.7629345

- temperature:       300.0000000
  free_energy:       -10.2548662
  entropy:           365.6725808
  heat_capacity:     269.3230140
  energy:             99.4469080

- temperature:       310.0000000
  free_energy:       -13.9560848
  entropy:           374.5321326
  heat_capacity:     271.0461100
  energy:            102.1488763

- temperature:       320.0000000
  free_energy:       -17.7447461
  entropy:           383.1628484
  heat_capacity:     272.6296753
  energy:            104.8673654

- temperature:       330.0000000
  free_energy:       -21.6186124
  entropy:           391.5747407
  heat_capacity:     274.0878533
  energy:            107.6010521

- temperature:       340.0000000
  free_energy:       -25.5755433
  entropy:           399.7773220
  heat_capacity:     275.4331112
  energy:            110.3487462

- temperature:       350.0000000
  free_energy:       -29.6134913
  entropy:           407.7796171
  heat_capacity:     276.6764606
  energy:            113.1093747

- temperature:       360.0000000
  free_energy:       -33.7304966
  entropy:           415.5901802
  heat_capacity:     277.8276484
  energy:            115.8819683

- temperature:       370.0000000
  free_energy:       -37.9246828
  entropy:           423.2171141
  heat_capacity:     278.8953202
  energy:            118.6656494

- temperature:       380.0000000
  free_energy:       -42.1942524
  entropy:           430.6680906
  heat_capacity:     279.8871605
  energy:            121.4596220

- temperature:       390.0000000
  free_energy:       -46.5374823
  entropy:           437.9503720
  heat_capacity:     280.8100143
  energy:            124.2631628

- temperature:       400.0000000
  free_energy:       -50.9527205
  entropy:           445.0708332
  heat_capacity:     281.6699910
  energy:            127.0756128

- temperature:       410.0000000
  free_energy:       -55.4383813
  entropy:           452.0359819
  heat_capacity:     282.4725545
  energy:            129.8963713

- temperature:       420.0000000
  free_energy:       -59.9929430
  entropy:           458.8519806
  heat_capacity:     283.2226017
  energy:            132.7248889

- temperature:       430.0000000
  free_energy:       -64.6149433
  entropy:           465.5246656
  heat_capacity:     283.9245290
  energy:            135.5606629

- temperature:       440.0000000
  free_energy:       -69.3029770
  entropy:           472.0595667
  heat_capacity:     284.5822919
  energy:            138.4032323

- temperature:       450.0000000
  free_energy:       -74.0556928
  entropy:           478.4619251
  heat_capacity:     285.1994551
  energy:            141.2521735

- temperature:       460.0000000
  free_energy:       -78.8717903
  entropy:           484.7367112
  heat_capacity:     285.7792376
  energy:            144.1070968

- temperature:       470.0000000
  free_energy:       -83.7500176
  entropy:           490.8886403
  heat_capacity:     286.3245509
  energy:            146.9676434

- temperature:       480.0000000
  free_energy:       -88.6891685
  entropy:           496.9221882
  heat_capacity:     286.8380332
  energy:            149.8334818

- temperature:       490.0000000
  free_energy:       -93.6880809
  entropy:           502.8416058
  heat_capacity:     287.3220788
  energy:            152.7043059

- temperature:       500.0000000
  free_energy:       -98.7456337
  entropy:           508.6509325
  heat_capacity:     287.7788648
  energy:            155.5798325

- temperature:       510.0000000
  free_energy:      -103.8607454
  entropy:           514.3540086
  heat_capacity:     288.2103731
  energy:            158.4597990

- temperature:       520.0000000
  free_energy:      -109.0323719
  entropy:           519.9544878
  heat_capacity:     288.6184115
  energy:            161.3439618

- temperature:       530.0000000
  free_energy:      -114.2595048
  entropy:           525.4558477
  heat_capacity:     289.0046309
  energy:            164.2320945

- temperature:       540.0000000
  free_energy:      -119.5411695
  entropy:           530.8614004
  heat_capacity:     289.3705415
  energy:            167.1239867

- temperature:       550.0000000
  free_energy:      -124.8764240
  entropy:           536.1743023
  heat_capacity:     289.7175267
  energy:            170.0194423

- temperature:       560.0000000
  free_energy:      -130.2643568
  entropy:           541.3975628
  heat_capacity:     290.0468553
  energy:            172.9182784

- temperature:       570.0000000
  free_energy:      -135.7040860
  entropy:           546.5340534
  heat_capacity:     290.3596928
  energy:            175.8203244

- temperature:       580.0000000
  free_energy:      -141.1947578
  entropy:           551.5865149
  heat_capacity:     290.6571110
  energy:            178.7254209

- temperature:       590.0000000
  free_energy:      -146.7355450
  entropy:           556.5575652
  heat_capacity:     290.9400970
  energy:            181.6334185

- temperature:       600.0000000
  free_energy:      -152.3256461
  entropy:           561.4497063
  heat_capacity:     291.2095610
  energy:            184.5441777

- temperature:       610.0000000
  free_energy:      -157.9642840
  entropy:           566.2653304
  heat_capacity:     291.4663432
  energy:            187.4575675

- temperature:       620.0000000
  free_energy:      -163.6507052
  entropy:           571.0067261
  heat_capacity:     291.7112200
  energy:            190.3734649

- temperature:       630.0000000
  free_energy:      -169.3841784
  entropy:           575.6760842
  heat_capacity:     291.9449100
  energy:            193.2917546

- temperature:       640.0000000
  free_energy:      -175.1639938
  entropy:           580.2755029
  heat_capacity:     292.1680788
  energy:            196.2123280

- temperature:       650.0000000
  free_energy:      -180.9894621
  entropy:           584.8069927
  heat_capacity:     292.3813436
  energy:            199.1350832

- temperature:       660.0000000
  free_energy:      -186.8599137
  entropy:           589.2724810
  heat_capacity:     292.5852774
  energy:            202.0599238

- temperature:       670.0000000
  free_energy:      -192.7746979
  entropy:           593.6738168
  heat_capacity:     292.7804126
  energy:            204.9867594

- temperature:       680.0000000
  free_energy:      -198.7331821
  entropy:           598.0127742
  heat_capacity:     292.9672445
  energy:            207.9155044

- temperature:       690.0000000
  free_energy:      -204.7347511
  entropy:           602.2910569
  heat_capacity:     293.1462343
  energy:            210.8460781

- temperature:       700.0000000
  free_energy:      -210.7788064
  entropy:           606.5103012
  heat_capacity:     293.3178119
  energy:            213.7784044

- temperature:       710.0000000
  free_energy:      -216.8647656
  entropy:           610.6720797
  heat_capacity:     293.4823783
  energy:            216.7124110

- temperature:       720.0000000
  free_energy:      -222.9920615
  entropy:           614.7779047
  heat_capacity:     293.6403078
  energy:            219.6480298

- temperature:       730.0000000
  free_energy:      -229.1601420
  entropy:           618.8292305
  heat_capacity:     293.7919503
  energy:            222.5851962

- temperature:       740.0000000
  free_energy:      -235.3684691
  entropy:           622.8274569
  heat_capacity:     293.9376332
  energy:            225.5238490

- temperature:       750.0000000
  free_energy:      -241.6165187
  entropy:           626.7739316
  heat_capacity:     294.0776628
  energy:            228.4639300

- temperature:       760.0000000
  free_energy:      -247.9037796
  entropy:           630.6699526
  heat_capacity:     294.2123263
  energy:            231.4053843

- temperature:       770.0000000
  free_energy:      -254.2297537
  entropy:           634.5167705
  heat_capacity:     294.3418928
  energy:            234.3481596

- temperature:       780.0000000
  free_energy:      -260.5939550
  entropy:           638.3155911
  heat_capacity:     294.4666149
  energy:            237.2922061

- temperature:       790.0000000
  free_energy:      -266.9959094
  entropy:           642.0675771
  heat_capacity:     294.5867299
  energy:            240.2374765

- temperature:       800.0000000
  free_energy:      -273.4351542
  entropy:           645.7738503
  heat_capacity:     294.7024607
  energy:            243.1839260

- temperature:       810.0000000
  free_energy:      -279.9112377
  entropy:           649.4354932
  heat_capacity:     294.8140171
  energy:            246.1315118

- temperature:       820.0000000
  free_energy:      -286.4237188
  entropy:           653.0535511
  heat_capacity:     294.9215965
  energy:            249.0801931

- temperature:       830.0000000
  free_energy:      -292.9721668
  entropy:           656.6290336
  heat_capacity:     295.0253847
  energy:            252.0299311

- temperature:       840.0000000
  free_energy:      -299.5561608
  entropy:           660.1629161
  heat_capacity:     295.1255570
  energy:            254.9806888

- temperature:       850.0000000
  free_energy:      -306.1752896
  entropy:           663.6561416
  heat_capacity:     295.2222787
  energy:            257.9324308

- temperature:       860.0000000
  free_energy:      -312.8291511
  entropy:           667.1096215
  heat_capacity:     295.3157056
  energy:            260.8851234

- temperature:       870.0000000
  free_energy:      -319.5173525
  entropy:           670.5242377
  heat_capacity:     295.4059853
  energy:            263.8387344

- temperature:       880.0000000
  free_energy:      -326.2395092
  entropy:           673.9008434
  heat_capacity:     295.4932567
  energy:            266.7932330

- temperature:       890.0000000
  free_energy:      -332.9952454
  entropy:           677.2402644
  heat_capacity:     295.5776516
  energy:            269.7485899

- temperature:       900.0000000
  free_energy:      -339.7841932
  entropy:           680.5433001
  heat_capacity:     295.6592945
  energy:            272.7047769

- temperature:       910.0000000
  free_energy:      -346.6059927
  entropy:           683.8107250
  heat_capacity:     295.7383032
  energy:            275.6617670

- temperature:       920.0000000
  free_energy:      -353.4602915
  entropy:           687.0432892
  heat_capacity:     295.8147895
  energy:            278.6195346

- temperature:       930.0000000
  free_energy:      -360.3467447
  entropy:           690.2417198
  heat_capacity:     295.8888591
  energy:            281.5780548

- temperature:       940.0000000
  free_energy:      -367.2650145
  entropy:           693.4067218
  heat_capacity:     295.9606125
  energy:            284.5373040

- temperature:       950.0000000
  free_energy:      -374.2147700
  entropy:           696.5389785
  heat_capacity:     296.0301448
  energy:            287.4972596

- temperature:       960.0000000
  free_energy:      -381.1956871
  entropy:           699.6391530
  heat_capacity:     296.0975465
  energy:            290.4578998

- temperature:       970.0000000
  free_energy:      -388.2074482
  entropy:           702.7078886
  heat_capacity:     296.1629034
  energy:            293.4192037

- temperature:       980.0000000
  free_energy:      -395.2497422
  entropy:           705.7458097
  heat_capacity:     296.2262971
  energy:            296.3811513

- temperature:       990.0000000
  free_energy:      -402.3222637
  entropy:           708.7535224
  heat_capacity:     296.2878053
  energy:            299.3437234

- temperature:      1000.0000000
  free_energy:      -409.4247139
  entropy:           711.7316153
  heat_capacity:     296.3475016
  energy:            302.3069014
