# Thermal properties / unit cell (natom)

unit:
  temperature:   K
  free_energy:   kJ/mol
  entropy:       J/K/mol
  heat_capacity: J/K/mol

natom: 15   
cutoff_frequency: 0.00000
num_modes: 172125
num_integrated_modes: 159138

zero_point_energy:      11.6315775

thermal_properties:
- temperature:         0.0000000
  free_energy:        11.6315775
  entropy:             0.0000000
  heat_capacity:       0.0000000
  energy:             11.6315775

- temperature:        10.0000000
  free_energy:        11.5105885
  entropy:            33.7032658
  heat_capacity:      56.7918340
  energy:             11.8476212

- temperature:        20.0000000
  free_energy:        10.8454799
  entropy:           102.7729309
  heat_capacity:     154.4590607
  energy:             12.9009385

- temperature:        30.0000000
  free_energy:         9.4277274
  entropy:           180.4959638
  heat_capacity:     227.5845645
  energy:             14.8426063

- temperature:        40.0000000
  free_energy:         7.2567459
  entropy:           252.2638447
  heat_capacity:     269.3687410
  energy:             17.3472997

- temperature:        50.0000000
  free_energy:         4.4122697
  entropy:           315.1833564
  heat_capacity:     293.3610762
  energy:             20.1714375

- temperature:        60.0000000
  free_energy:         0.9799244
  entropy:           370.0610076
  heat_capacity:     307.9380711
  energy:             23.1835848

- temperature:        70.0000000
  free_energy:        -2.9667905
  entropy:           418.2840906
  heat_capacity:     317.3198088
  energy:             26.3130958

- temperature:        80.0000000
  free_energy:        -7.3677507
  entropy:           461.0964199
  heat_capacity:     323.6650337
  energy:             29.5199629

- temperature:        90.0000000
  free_energy:       -12.1740190
  entropy:           499.4913872
  heat_capacity:     328.1372794
  energy:             32.7802058

- temperature:       100.0000000
  free_energy:       -17.3454479
  entropy:           534.2414966
  heat_capacity:     331.3990643
  energy:             36.0787018

- temperature:       110.0000000
  free_energy:       -22.8487156
  entropy:           565.9473216
  heat_capacity:     333.8468986
  energy:             39.4054898

- temperature:       120.0000000
  free_energy:       -28.6558276
  entropy:           595.0799137
  heat_capacity:     335.7286392
  energy:             42.7537621

- temperature:       130.0000000
  free_energy:       -34.7429907
  entropy:           622.0131405
  heat_capacity:     337.2051602
  energy:             46.1187175

- temperature:       140.0000000
  free_energy:       -41.0897669
  entropy:           647.0474615
  heat_capacity:     338.3843341
  energy:             49.4968778

- temperature:       150.0000000
  free_energy:       -47.6784297
  entropy:           670.4272880
  heat_capacity:     339.3405700
  energy:             52.8856635

- temperature:       160.0000000
  free_energy:       -54.4934717
  entropy:           692.3537167
  heat_capacity:     340.1264813
  energy:             56.2831230

- temperature:       170.0000000
  free_energy:       -61.5212198
  entropy:           712.9939583
  heat_capacity:     340.7800895
  energy:             59.6877532

- temperature:       180.0000000
  free_energy:       -68.7495339
  entropy:           732.4883989
  heat_capacity:     341.3294065
  energy:             63.0983779

- temperature:       190.0000000
  free_energy:       -76.1675667
  entropy:           750.9559520
  heat_capacity:     341.7954282
  energy:             66.5140642

- temperature:       200.0000000
  free_energy:       -83.7655700
  entropy:           768.4981626
  heat_capacity:     342.1941355
  energy:             69.9340625

- temperature:       210.0000000
  free_energy:       -91.5347380
  entropy:           785.2023899
  heat_capacity:     342.5378628
  energy:             73.3577639

- temperature:       220.0000000
  free_energy:       -99.4670778
  entropy:           801.1443031
  heat_capacity:     342.8362499
  energy:             76.7846688

- temperature:       230.0000000
  free_energy:      -107.5553037
  entropy:           816.3898569
  heat_capacity:     343.0969175
  energy:             80.2143634

- temperature:       240.0000000
  free_energy:      -115.7927473
  entropy:           830.9968715
  heat_capacity:     343.3259530
  energy:             83.6465019

- temperature:       250.0000000
  free_energy:      -124.1732832
  entropy:           845.0163066
  heat_capacity:     343.5282659
  energy:             87.0807934

- temperature:       260.0000000
  free_energy:      -132.6912658
  entropy:           858.4932974
  heat_capacity:     343.7078503
  energy:             90.5169915

- temperature:       270.0000000
  free_energy:      -141.3414753
  entropy:           871.4680037
  heat_capacity:     343.8679824
  energy:             93.9548857

- temperature:       280.0000000
  free_energy:      -150.1190716
  entropy:           883.9763108
  heat_capacity:     344.0113693
  energy:             97.3942954

- temperature:       290.0000000
  free_energy:      -159.0195545
  entropy:           896.0504115
  heat_capacity:     344.1402639
  energy:            100.8350648

- temperature:       300.0000000
  free_energy:      -168.0387294
  entropy:           907.7192938
  heat_capacity:     344.2565529
  energy:            104.2770587

- temperature:       310.0000000
  free_energy:      -177.1726773
  entropy:           919.0091498
  heat_capacity:     344.3618261
  energy:            107.7201592

- temperature:       320.0000000
  free_energy:      -186.4177284
  entropy:           929.9437231
  heat_capacity:     344.4574306
  energy:            111.1642630

- temperature:       330.0000000
  free_energy:      -195.7704396
  entropy:           940.5446031
  heat_capacity:     344.5445140
  energy:            114.6092794

- temperature:       340.0000000
  free_energy:      -205.2275740
  entropy:           950.8314768
  heat_capacity:     344.6240586
  energy:            118.0551282

- temperature:       350.0000000
  free_energy:      -214.7860827
  entropy:           960.8223455
  heat_capacity:     344.6969094
  energy:            121.5017383

- temperature:       360.0000000
  free_energy:      -224.4430893
  entropy:           970.5337106
  heat_capacity:     344.7637962
  energy:            124.9490465

- temperature:       370.0000000
  free_energy:      -234.1958759
  entropy:           979.9807359
  heat_capacity:     344.8253521
  energy:            128.3969964

- temperature:       380.0000000
  free_energy:      -244.0418696
  entropy:           989.1773874
  heat_capacity:     344.8821285
  energy:            131.8455376

- temperature:       390.0000000
  free_energy:      -253.9786321
  entropy:           998.1365559
  heat_capacity:     344.9346073
  energy:            135.2946247

- temperature:       400.0000000
  free_energy:      -264.0038490
  entropy:          1006.8701645
  heat_capacity:     344.9832113
  energy:            138.7442168

- temperature:       410.0000000
  free_energy:      -274.1153205
  entropy:          1015.3892626
  heat_capacity:     345.0283125
  energy:            142.1942772

- temperature:       420.0000000
  free_energy:      -284.3109534
  entropy:          1023.7041094
  heat_capacity:     345.0702394
  energy:            145.6447725

- temperature:       430.0000000
  free_energy:      -294.5887537
  entropy:          1031.8242467
  heat_capacity:     345.1092827
  energy:            149.0956724

- temperature:       440.0000000
  free_energy:      -304.9468190
  entropy:          1039.7585647
  heat_capacity:     345.1457009
  energy:            152.5469494

- temperature:       450.0000000
  free_energy:      -315.3833333
  entropy:          1047.5153594
  heat_capacity:     345.1797240
  energy:            155.9985784

- temperature:       460.0000000
  free_energy:      -325.8965604
  entropy:          1055.1023848
  heat_capacity:     345.2115573
  energy:            159.4505366

- temperature:       470.0000000
  free_energy:      -336.4848393
  entropy:          1062.5268984
  heat_capacity:     345.2413848
  energy:            162.9028029

- temperature:       480.0000000
  free_energy:      -347.1465794
  entropy:          1069.7957032
  heat_capacity:     345.2693714
  energy:            166.3553582

- temperature:       490.0000000
  free_energy:      -357.8802557
  entropy:          1076.9151845
  heat_capacity:     345.2956655
  energy:            169.8081847

- temperature:       500.0000000
  free_energy:      -368.6844054
  entropy:          1083.8913433
  heat_capacity:     345.3204007
  energy:            173.2612663

- temperature:       510.0000000
  free_energy:      -379.5576237
  entropy:          1090.7298267
  heat_capacity:     345.3436979
  energy:            176.7145879

- temperature:       520.0000000
  free_energy:      -390.4985608
  entropy:          1097.4359549
  heat_capacity:     345.3656664
  energy:            180.1681358

- temperature:       530.0000000
  free_energy:      -401.5059184
  entropy:          1104.0147462
  heat_capacity:     345.3864052
  energy:            183.6218971

- temperature:       540.0000000
  free_energy:      -412.5784470
  entropy:          1110.4709392
  heat_capacity:     345.4060044
  energy:            187.0758601

- temperature:       550.0000000
  free_energy:      -423.7149434
  entropy:          1116.8090130
  heat_capacity:     345.4245460
  energy:            190.5300137

- temperature:       560.0000000
  free_energy:      -434.9142477
  entropy:          1123.0332062
  heat_capacity:     345.4421047
  energy:            193.9843478

- temperature:       570.0000000
  free_energy:      -446.1752414
  entropy:          1129.1475335
  heat_capacity:     345.4587487
  energy:            197.4388528

- temperature:       580.0000000
  free_energy:      -457.4968449
  entropy:          1135.1558013
  heat_capacity:     345.4745405
  energy:            200.8935199

- temperature:       590.0000000
  free_energy:      -468.8780159
  entropy:          1141.0616218
  heat_capacity:     345.4895373
  energy:            204.3483409

- temperature:       600.0000000
  free_energy:      -480.3177473
  entropy:          1146.8684257
  heat_capacity:     345.5037914
  energy:            207.8033082

- temperature:       610.0000000
  free_energy:      -491.8150653
  entropy:          1152.5794749
  heat_capacity:     345.5173512
  energy:            211.2584144

- temperature:       620.0000000
  free_energy:      -503.3690280
  entropy:          1158.1978725
  heat_capacity:     345.5302610
  energy:            214.7136530

- temperature:       630.0000000
  free_energy:      -514.9787237
  entropy:          1163.7265736
  heat_capacity:     345.5425617
  energy:            218.1690176

- temperature:       640.0000000
  free_energy:      -526.6432698
  entropy:          1169.1683941
  heat_capacity:     345.5542909
  energy:            221.6245023

- temperature:       650.0000000
  free_energy:      -538.3618110
  entropy:          1174.5260195
  heat_capacity:     345.5654836
  energy:            225.0801017

- temperature:       660.0000000
  free_energy:      -550.1335181
  entropy:          1179.8020128
  heat_capacity:     345.5761720
  energy:            228.5358103

- temperature:       670.0000000
  free_energy:      -561.9575873
  entropy:          1184.9988221
  heat_capacity:     345.5863858
  energy:            231.9916235

- temperature:       680.0000000
  free_energy:      -573.8332384
  entropy:          1190.1187868
  heat_capacity:     345.5961528
  energy:            235.4475366

- temperature:       690.0000000
  free_energy:      -585.7597144
  entropy:          1195.1641443
  heat_capacity:     345.6054987
  energy:            238.9035452

- temperature:       700.0000000
  free_energy:      -597.7362798
  entropy:          1200.1370357
  heat_capacity:     345.6144473
  energy:            242.3596452

- temperature:       710.0000000
  free_energy:      -609.7622204
  entropy:          1205.0395116
  heat_capacity:     345.6230208
  energy:            245.8158329

- temperature:       720.0000000
  free_energy:      -621.8368419
  entropy:          1209.8735365
  heat_capacity:     345.6312399
  energy:            249.2721045

- temperature:       730.0000000
  free_energy:      -633.9594692
  entropy:          1214.6409942
  heat_capacity:     345.6391238
  energy:            252.7284565

- temperature:       740.0000000
  free_energy:      -646.1294459
  entropy:          1219.3436916
  heat_capacity:     345.6466906
  energy:            256.1848859

- temperature:       750.0000000
  free_energy:      -658.3461330
  entropy:          1223.9833631
  heat_capacity:     345.6539570
  energy:            259.6413894

- temperature:       760.0000000
  free_energy:      -670.6089086
  entropy:          1228.5616746
  heat_capacity:     345.6609386
  energy:            263.0979641

- temperature:       770.0000000
  free_energy:      -682.9171673
  entropy:          1233.0802266
  heat_capacity:     345.6676503
  energy:            266.5546072

- temperature:       780.0000000
  free_energy:      -695.2703191
  entropy:          1237.5405581
  heat_capacity:     345.6741056
  energy:            270.0113162

- temperature:       790.0000000
  free_energy:      -707.6677893
  entropy:          1241.9441492
  heat_capacity:     345.6803176
  energy:            273.4680885

- temperature:       800.0000000
  free_energy:      -720.1090177
  entropy:          1246.2924244
  heat_capacity:     345.6862982
  energy:            276.9249218

- temperature:       810.0000000
  free_energy:      -732.5934580
  entropy:          1250.5867552
  heat_capacity:     345.6920589
  energy:            280.3818138

- temperature:       820.0000000
  free_energy:      -745.1205774
  entropy:          1254.8284630
  heat_capacity:     345.6976103
  energy:            283.8387623

- temperature:       830.0000000
  free_energy:      -757.6898561
  entropy:          1259.0188209
  heat_capacity:     345.7029623
  energy:            287.2957653

- temperature:       840.0000000
  free_energy:      -770.3007867
  entropy:          1263.1590567
  heat_capacity:     345.7081245
  energy:            290.7528209

- temperature:       850.0000000
  free_energy:      -782.9528741
  entropy:          1267.2503545
  heat_capacity:     345.7131057
  energy:            294.2099272

- temperature:       860.0000000
  free_energy:      -795.6456345
  entropy:          1271.2938569
  heat_capacity:     345.7179142
  energy:            297.6670824

- temperature:       870.0000000
  free_energy:      -808.3785956
  entropy:          1275.2906673
  heat_capacity:     345.7225580
  energy:            301.1242849

- temperature:       880.0000000
  free_energy:      -821.1512958
  entropy:          1279.2418510
  heat_capacity:     345.7270444
  energy:            304.5815331

- temperature:       890.0000000
  free_energy:      -833.9632840
  entropy:          1283.1484374
  heat_capacity:     345.7313806
  energy:            308.0388253

- temperature:       900.0000000
  free_energy:      -846.8141192
  entropy:          1287.0114215
  heat_capacity:     345.7355731
  energy:            311.4961602

- temperature:       910.0000000
  free_energy:      -859.7033703
  entropy:          1290.8317655
  heat_capacity:     345.7396283
  energy:            314.9535363

- temperature:       920.0000000
  free_energy:      -872.6306155
  entropy:          1294.6103998
  heat_capacity:     345.7435520
  energy:            318.4109523

- temperature:       930.0000000
  free_energy:      -885.5954422
  entropy:          1298.3482249
  heat_capacity:     345.7473499
  energy:            321.8684069

- temperature:       940.0000000
  free_energy:      -898.5974468
  entropy:          1302.0461125
  heat_capacity:     345.7510273
  energy:            325.3258989

- temperature:       950.0000000
  free_energy:      -911.6362342
  entropy:          1305.7049066
  heat_capacity:     345.7545892
  energy:            328.7834271

- temperature:       960.0000000
  free_energy:      -924.7114174
  entropy:          1309.3254247
  heat_capacity:     345.7580405
  energy:            332.2409903

- temperature:       970.0000000
  free_energy:      -937.8226177
  entropy:          1312.9084590
  heat_capacity:     345.7613856
  energy:            335.6985876

- temperature:       980.0000000
  free_energy:      -950.9694642
  entropy:          1316.4547774
  heat_capacity:     345.7646289
  energy:            339.1562177

- temperature:       990.0000000
  free_energy:      -964.1515934
  entropy:          1319.9651244
  heat_capacity:     345.7677745
  energy:            342.6138798

- temperature:      1000.0000000
  free_energy:      -977.3686492
  entropy:          1323.4402221
  heat_capacity:     345.7708262
  energy:            346.0715729
