# Thermal properties / unit cell (natom)

unit:
  temperature:   K
  free_energy:   kJ/mol
  entropy:       J/K/mol
  heat_capacity: J/K/mol

natom: 7    
cutoff_frequency: 0.00000
num_modes: 183456
num_integrated_modes: 183454

zero_point_energy:      20.6913680

thermal_properties:
- temperature:         0.0000000
  free_energy:        20.6913680
  entropy:             0.0000000
  heat_capacity:       0.0000000
  energy:             20.6913680

- temperature:        10.0000000
  free_energy:        20.6890090
  entropy:             1.0072900
  heat_capacity:       3.3463441
  energy:             20.6990819

- temperature:        20.0000000
  free_energy:        20.6516660
  entropy:             7.3804482
  heat_capacity:      17.6653636
  energy:             20.7992749

- temperature:        30.0000000
  free_energy:        20.5285466
  entropy:            17.6607176
  heat_capacity:      34.0847436
  energy:             21.0583681

- temperature:        40.0000000
  free_energy:        20.2931071
  entropy:            29.5817922
  heat_capacity:      49.2127523
  energy:             21.4763788

- temperature:        50.0000000
  free_energy:        19.9352259
  entropy:            42.0285670
  heat_capacity:      62.5730725
  energy:             22.0366542

- temperature:        60.0000000
  free_energy:        19.4524435
  entropy:            54.5116453
  heat_capacity:      74.5177116
  energy:             22.7231422

- temperature:        70.0000000
  free_energy:        18.8455750
  entropy:            66.8232486
  heat_capacity:      85.3142182
  energy:             23.5232024

- temperature:        80.0000000
  free_energy:        18.1168897
  entropy:            78.8627528
  heat_capacity:      95.0539045
  energy:             24.4259099

- temperature:        90.0000000
  free_energy:        17.2694251
  entropy:            90.5713943
  heat_capacity:     103.7651128
  energy:             25.4208506

- temperature:       100.0000000
  free_energy:        16.3066898
  entropy:           101.9121285
  heat_capacity:     111.4844354
  energy:             26.4979027

- temperature:       110.0000000
  free_energy:        15.2324826
  entropy:           112.8632498
  heat_capacity:     118.2746773
  energy:             27.6474401

- temperature:       120.0000000
  free_energy:        14.0507566
  entropy:           123.4151561
  heat_capacity:     124.2189453
  energy:             28.8605753

- temperature:       130.0000000
  free_energy:        12.7655116
  entropy:           133.5676564
  heat_capacity:     129.4095866
  energy:             30.1293069

- temperature:       140.0000000
  free_energy:        11.3807128
  entropy:           143.3275082
  heat_capacity:     133.9391041
  energy:             31.4465640

- temperature:       150.0000000
  free_energy:         9.9002320
  entropy:           152.7062941
  heat_capacity:     137.8944647
  energy:             32.8061761

- temperature:       160.0000000
  free_energy:         8.3278084
  entropy:           161.7187124
  heat_capacity:     141.3542362
  energy:             34.2028023

- temperature:       170.0000000
  free_energy:         6.6670240
  entropy:           170.3812737
  heat_capacity:     144.3876158
  energy:             35.6318406

- temperature:       180.0000000
  free_energy:         4.9212912
  entropy:           178.7113500
  heat_capacity:     147.0545685
  energy:             37.0893342

- temperature:       190.0000000
  free_energy:         3.0938467
  entropy:           186.7265057
  heat_capacity:     149.4065353
  energy:             38.5718828

- temperature:       200.0000000
  free_energy:         1.1877531
  entropy:           194.4440441
  heat_capacity:     151.4873808
  energy:             40.0765619

- temperature:       210.0000000
  free_energy:        -0.7940980
  entropy:           201.8807124
  heat_capacity:     153.3343899
  energy:             41.6008516

- temperature:       220.0000000
  free_energy:        -2.8489784
  entropy:           209.0525213
  heat_capacity:     154.9792166
  energy:             43.1425763

- temperature:       230.0000000
  free_energy:        -4.9743162
  entropy:           215.9746447
  heat_capacity:     156.4487388
  energy:             44.6998520

- temperature:       240.0000000
  free_energy:        -7.1676868
  entropy:           222.6613750
  heat_capacity:     157.7658045
  energy:             46.2710432

- temperature:       250.0000000
  free_energy:        -9.4268039
  entropy:           229.1261159
  heat_capacity:     158.9498718
  energy:             47.8547251

- temperature:       260.0000000
  free_energy:       -11.7495110
  entropy:           235.3813998
  heat_capacity:     160.0175488
  energy:             49.4496530

- temperature:       270.0000000
  free_energy:       -14.1337727
  entropy:           241.4389202
  heat_capacity:     160.9830486
  energy:             51.0547357

- temperature:       280.0000000
  free_energy:       -16.5776666
  entropy:           247.3095742
  heat_capacity:     161.8585683
  energy:             52.6690142

- temperature:       290.0000000
  free_energy:       -19.0793752
  entropy:           253.0035088
  heat_capacity:     162.6546058
  energy:             54.2916423

- temperature:       300.0000000
  free_energy:       -21.6371793
  entropy:           258.5301699
  heat_capacity:     163.3802236
  energy:             55.9218717

- temperature:       310.0000000
  free_energy:       -24.2494504
  entropy:           263.8983508
  heat_capacity:     164.0432689
  energy:             57.5590383

- temperature:       320.0000000
  free_energy:       -26.9146454
  entropy:           269.1162397
  heat_capacity:     164.6505568
  energy:             59.2025513

- temperature:       330.0000000
  free_energy:       -29.6312997
  entropy:           274.1914643
  heat_capacity:     165.2080237
  energy:             60.8518835

- temperature:       340.0000000
  free_energy:       -32.3980229
  entropy:           279.1311351
  heat_capacity:     165.7208562
  energy:             62.5065631

- temperature:       350.0000000
  free_energy:       -35.2134927
  entropy:           283.9418851
  heat_capacity:     166.1935983
  energy:             64.1661670

- temperature:       360.0000000
  free_energy:       -38.0764515
  entropy:           288.6299064
  heat_capacity:     166.6302428
  energy:             65.8303148

- temperature:       370.0000000
  free_energy:       -40.9857011
  entropy:           293.2009850
  heat_capacity:     167.0343072
  energy:             67.4986633

- temperature:       380.0000000
  free_energy:       -43.9400995
  entropy:           297.6605321
  heat_capacity:     167.4088989
  energy:             69.1709027

- temperature:       390.0000000
  free_energy:       -46.9385569
  entropy:           302.0136133
  heat_capacity:     167.7567700
  energy:             70.8467523

- temperature:       400.0000000
  free_energy:       -49.9800327
  entropy:           306.2649748
  heat_capacity:     168.0803642
  energy:             72.5259572

- temperature:       410.0000000
  free_energy:       -53.0635322
  entropy:           310.4190686
  heat_capacity:     168.3818563
  energy:             74.2082859

- temperature:       420.0000000
  free_energy:       -56.1881038
  entropy:           314.4800738
  heat_capacity:     168.6631867
  energy:             75.8935272

- temperature:       430.0000000
  free_energy:       -59.3528365
  entropy:           318.4519180
  heat_capacity:     168.9260902
  energy:             77.5814882

- temperature:       440.0000000
  free_energy:       -62.5568573
  entropy:           322.3382956
  heat_capacity:     169.1721216
  energy:             79.2719928

- temperature:       450.0000000
  free_energy:       -65.7993291
  entropy:           326.1426850
  heat_capacity:     169.4026773
  energy:             80.9648791

- temperature:       460.0000000
  free_energy:       -69.0794487
  entropy:           329.8683643
  heat_capacity:     169.6190137
  energy:             82.6599989

- temperature:       470.0000000
  free_energy:       -72.3964444
  entropy:           333.5184259
  heat_capacity:     169.8222639
  energy:             84.3572158

- temperature:       480.0000000
  free_energy:       -75.7495749
  entropy:           337.0957893
  heat_capacity:     170.0134515
  energy:             86.0564040

- temperature:       490.0000000
  free_energy:       -79.1381271
  entropy:           340.6032138
  heat_capacity:     170.1935029
  energy:             87.7574477

- temperature:       500.0000000
  free_energy:       -82.5614147
  entropy:           344.0433089
  heat_capacity:     170.3632582
  energy:             89.4602397

- temperature:       510.0000000
  free_energy:       -86.0187771
  entropy:           347.4185454
  heat_capacity:     170.5234807
  energy:             91.1646811

- temperature:       520.0000000
  free_energy:       -89.5095773
  entropy:           350.7312638
  heat_capacity:     170.6748647
  energy:             92.8706799

- temperature:       530.0000000
  free_energy:       -93.0332013
  entropy:           353.9836837
  heat_capacity:     170.8180429
  energy:             94.5781510

- temperature:       540.0000000
  free_energy:       -96.5890570
  entropy:           357.1779117
  heat_capacity:     170.9535932
  energy:             96.2870153

- temperature:       550.0000000
  free_energy:      -100.1765723
  entropy:           360.3159482
  heat_capacity:     171.0820436
  energy:             97.9971992

- temperature:       560.0000000
  free_energy:      -103.7951950
  entropy:           363.3996949
  heat_capacity:     171.2038777
  energy:             99.7086342

- temperature:       570.0000000
  free_energy:      -107.4443913
  entropy:           366.4309605
  heat_capacity:     171.3195389
  energy:            101.4212562

- temperature:       580.0000000
  free_energy:      -111.1236450
  entropy:           369.4114668
  heat_capacity:     171.4294343
  energy:            103.1350057

- temperature:       590.0000000
  free_energy:      -114.8324569
  entropy:           372.3428539
  heat_capacity:     171.5339384
  energy:            104.8498269

- temperature:       600.0000000
  free_energy:      -118.5703436
  entropy:           375.2266854
  heat_capacity:     171.6333957
  energy:            106.5656677

- temperature:       610.0000000
  free_energy:      -122.3368370
  entropy:           378.0644527
  heat_capacity:     171.7281241
  energy:            108.2824791

- temperature:       620.0000000
  free_energy:      -126.1314838
  entropy:           380.8575793
  heat_capacity:     171.8184168
  energy:            110.0002154

- temperature:       630.0000000
  free_energy:      -129.9538444
  entropy:           383.6074252
  heat_capacity:     171.9045448
  energy:            111.7188335

- temperature:       640.0000000
  free_energy:      -133.8034924
  entropy:           386.3152900
  heat_capacity:     171.9867589
  energy:            113.4382932

- temperature:       650.0000000
  free_energy:      -137.6800144
  entropy:           388.9824167
  heat_capacity:     172.0652914
  energy:            115.1585565

- temperature:       660.0000000
  free_energy:      -141.5830089
  entropy:           391.6099946
  heat_capacity:     172.1403576
  energy:            116.8795875

- temperature:       670.0000000
  free_energy:      -145.5120862
  entropy:           394.1991626
  heat_capacity:     172.2121576
  energy:            118.6013527

- temperature:       680.0000000
  free_energy:      -149.4668678
  entropy:           396.7510120
  heat_capacity:     172.2808772
  energy:            120.3238204

- temperature:       690.0000000
  free_energy:      -153.4469856
  entropy:           399.2665886
  heat_capacity:     172.3466891
  energy:            122.0469606

- temperature:       700.0000000
  free_energy:      -157.4520820
  entropy:           401.7468957
  heat_capacity:     172.4097545
  energy:            123.7707450

- temperature:       710.0000000
  free_energy:      -161.4818091
  entropy:           404.1928960
  heat_capacity:     172.4702232
  energy:            125.4951470

- temperature:       720.0000000
  free_energy:      -165.5358286
  entropy:           406.6055138
  heat_capacity:     172.5282353
  energy:            127.2201413

- temperature:       730.0000000
  free_energy:      -169.6138111
  entropy:           408.9856371
  heat_capacity:     172.5839214
  energy:            128.9457040

- temperature:       740.0000000
  free_energy:      -173.7154359
  entropy:           411.3341193
  heat_capacity:     172.6374038
  energy:            130.6718124

- temperature:       750.0000000
  free_energy:      -177.8403908
  entropy:           413.6517811
  heat_capacity:     172.6887968
  energy:            132.3984451

- temperature:       760.0000000
  free_energy:      -181.9883714
  entropy:           415.9394120
  heat_capacity:     172.7382072
  energy:            134.1255817

- temperature:       770.0000000
  free_energy:      -186.1590814
  entropy:           418.1977719
  heat_capacity:     172.7857354
  energy:            135.8532029

- temperature:       780.0000000
  free_energy:      -190.3522317
  entropy:           420.4275925
  heat_capacity:     172.8314755
  energy:            137.5812904

- temperature:       790.0000000
  free_energy:      -194.5675405
  entropy:           422.6295788
  heat_capacity:     172.8755156
  energy:            139.3098268

- temperature:       800.0000000
  free_energy:      -198.8047328
  entropy:           424.8044102
  heat_capacity:     172.9179387
  energy:            141.0387954

- temperature:       810.0000000
  free_energy:      -203.0635404
  entropy:           426.9527417
  heat_capacity:     172.9588227
  energy:            142.7681804

- temperature:       820.0000000
  free_energy:      -207.3437014
  entropy:           429.0752053
  heat_capacity:     172.9982409
  energy:            144.4979669

- temperature:       830.0000000
  free_energy:      -211.6449603
  entropy:           431.1724107
  heat_capacity:     173.0362623
  energy:            146.2281406

- temperature:       840.0000000
  free_energy:      -215.9670674
  entropy:           433.2449466
  heat_capacity:     173.0729519
  energy:            147.9586877

- temperature:       850.0000000
  free_energy:      -220.3097789
  entropy:           435.2933815
  heat_capacity:     173.1083710
  energy:            149.6895954

- temperature:       860.0000000
  free_energy:      -224.6728565
  entropy:           437.3182647
  heat_capacity:     173.1425774
  energy:            151.4208511

- temperature:       870.0000000
  free_energy:      -229.0560674
  entropy:           439.3201270
  heat_capacity:     173.1756256
  energy:            153.1524431

- temperature:       880.0000000
  free_energy:      -233.4591840
  entropy:           441.2994818
  heat_capacity:     173.2075672
  energy:            154.8843600

- temperature:       890.0000000
  free_energy:      -237.8819837
  entropy:           443.2568254
  heat_capacity:     173.2384509
  energy:            156.6165909

- temperature:       900.0000000
  free_energy:      -242.3242488
  entropy:           445.1926382
  heat_capacity:     173.2683229
  energy:            158.3491256

- temperature:       910.0000000
  free_energy:      -246.7857663
  entropy:           447.1073850
  heat_capacity:     173.2972265
  energy:            160.0819541

- temperature:       920.0000000
  free_energy:      -251.2663278
  entropy:           449.0015161
  heat_capacity:     173.3252033
  energy:            161.8150670

- temperature:       930.0000000
  free_energy:      -255.7657293
  entropy:           450.8754673
  heat_capacity:     173.3522922
  energy:            163.5484552

- temperature:       940.0000000
  free_energy:      -260.2837712
  entropy:           452.7296610
  heat_capacity:     173.3785303
  energy:            165.2821100

- temperature:       950.0000000
  free_energy:      -264.8202580
  entropy:           454.5645065
  heat_capacity:     173.4039529
  energy:            167.0160231

- temperature:       960.0000000
  free_energy:      -269.3749982
  entropy:           456.3804007
  heat_capacity:     173.4285932
  energy:            168.7501865

- temperature:       970.0000000
  free_energy:      -273.9478042
  entropy:           458.1777285
  heat_capacity:     173.4524830
  energy:            170.4845925

- temperature:       980.0000000
  free_energy:      -278.5384921
  entropy:           459.9568632
  heat_capacity:     173.4756524
  energy:            172.2192338

- temperature:       990.0000000
  free_energy:      -283.1468820
  entropy:           461.7181669
  heat_capacity:     173.4981299
  energy:            173.9541032

- temperature:      1000.0000000
  free_energy:      -287.7727972
  entropy:           463.4619913
  heat_capacity:     173.5199428
  energy:            175.6891941
