phonopy:
  version: "2.37.1"
  frequency_unit_conversion_factor: 15.633302
  symmetry_tolerance: 1.00000e-05

space_group:
  type: "Amm2"
  number: 38
  Hall_symbol: "A 2 -2"

primitive_matrix:
- [  0.000000000000000,  0.000000000000000, -1.000000000000000 ]
- [ -0.000000000000000,  1.000000000000000,  0.000000000000000 ]
- [  1.000000000000000,  0.000000000000000,  0.000000000000000 ]

supercell_matrix:
- [   2,   0,   0 ]
- [   0,   2,   0 ]
- [   0,   0,   3 ]

primitive_cell:
  lattice:
  - [     0.000000048646819,     0.000000023950683,     4.794395078773737 ] # a
  - [    -3.175838717914053,     4.272712608744103,     0.000000000000000 ] # b
  - [    -5.323722591642195,     0.000000000000000,     0.000000000000000 ] # c
  points:
  - symbol: Li # 1
    coordinates: [  0.500000000374220,  0.818658745640969,  0.818658757592380 ]
    mass: 6.940000
  - symbol: Li # 2
    coordinates: [  0.000000000172841,  0.642416912717468,  0.642416906581969 ]
    mass: 6.940000
  - symbol: Li # 3
    coordinates: [  0.499999997765541,  0.472230609763910,  0.472230605909377 ]
    mass: 6.940000
  - symbol: Li # 4
    coordinates: [  0.999999999935275,  0.301923969236988,  0.301923951710330 ]
    mass: 6.940000
  - symbol: Li # 5
    coordinates: [  0.499999999589016,  0.125863728359380,  0.125863739757155 ]
    mass: 6.940000
  - symbol: Sn # 6
    coordinates: [  0.000000002071367,  0.972239367714075,  0.972239371935536 ]
    mass: 118.710000
  reciprocal_lattice: # without 2pi
  - [    -0.000000000000000,     0.000000000000000,     0.208576886879287 ] # a*
  - [    -0.000000000000000,     0.234043356427367,    -0.000000001169177 ] # b*
  - [    -0.187838487596990,    -0.139617333588997,     0.000000002603389 ] # c*

unit_cell:
  lattice:
  - [     5.323722591642194,     0.000000000000000,     0.000000000000000 ] # a
  - [    -3.175838717914053,     4.272712608744103,     0.000000000000000 ] # b
  - [     0.000000048646819,     0.000000023950683,     4.794395078773737 ] # c
  points:
  - symbol: Li # 1
    coordinates: [  0.181341242407620,  0.818658745640969,  0.500000000374220 ]
    mass: 6.940000
    reduced_to: 1
  - symbol: Li # 2
    coordinates: [  0.357583093418031,  0.642416912717468,  0.000000000172841 ]
    mass: 6.940000
    reduced_to: 2
  - symbol: Li # 3
    coordinates: [  0.527769394090623,  0.472230609763910,  0.499999997765541 ]
    mass: 6.940000
    reduced_to: 3
  - symbol: Li # 4
    coordinates: [  0.698076048289670,  0.301923969236988,  0.999999999935275 ]
    mass: 6.940000
    reduced_to: 4
  - symbol: Li # 5
    coordinates: [  0.874136260242845,  0.125863728359380,  0.499999999589016 ]
    mass: 6.940000
    reduced_to: 5
  - symbol: Sn # 6
    coordinates: [  0.027760628064464,  0.972239367714075,  0.000000002071367 ]
    mass: 118.710000
    reduced_to: 6

supercell:
  lattice:
  - [    10.647445183284388,     0.000000000000000,     0.000000000000000 ] # a
  - [    -6.351677435828106,     8.545425217488205,     0.000000000000000 ] # b
  - [     0.000000145940457,     0.000000071852048,    14.383185236321212 ] # c
  points:
  - symbol: Li # 1
    coordinates: [  0.090670621203810,  0.409329372820485,  0.166666666791407 ]
    mass: 6.940000
    reduced_to: 1
  - symbol: Li # 2
    coordinates: [  0.590670621203810,  0.409329372820485,  0.166666666791407 ]
    mass: 6.940000
    reduced_to: 1
  - symbol: Li # 3
    coordinates: [  0.090670621203810,  0.909329372820485,  0.166666666791407 ]
    mass: 6.940000
    reduced_to: 1
  - symbol: Li # 4
    coordinates: [  0.590670621203810,  0.909329372820485,  0.166666666791407 ]
    mass: 6.940000
    reduced_to: 1
  - symbol: Li # 5
    coordinates: [  0.090670621203810,  0.409329372820485,  0.500000000124740 ]
    mass: 6.940000
    reduced_to: 1
  - symbol: Li # 6
    coordinates: [  0.590670621203810,  0.409329372820485,  0.500000000124740 ]
    mass: 6.940000
    reduced_to: 1
  - symbol: Li # 7
    coordinates: [  0.090670621203810,  0.909329372820485,  0.500000000124740 ]
    mass: 6.940000
    reduced_to: 1
  - symbol: Li # 8
    coordinates: [  0.590670621203810,  0.909329372820485,  0.500000000124740 ]
    mass: 6.940000
    reduced_to: 1
  - symbol: Li # 9
    coordinates: [  0.090670621203810,  0.409329372820485,  0.833333333458073 ]
    mass: 6.940000
    reduced_to: 1
  - symbol: Li # 10
    coordinates: [  0.590670621203810,  0.409329372820485,  0.833333333458073 ]
    mass: 6.940000
    reduced_to: 1
  - symbol: Li # 11
    coordinates: [  0.090670621203810,  0.909329372820485,  0.833333333458073 ]
    mass: 6.940000
    reduced_to: 1
  - symbol: Li # 12
    coordinates: [  0.590670621203810,  0.909329372820485,  0.833333333458073 ]
    mass: 6.940000
    reduced_to: 1
  - symbol: Li # 13
    coordinates: [  0.178791546709016,  0.321208456358734,  0.000000000057614 ]
    mass: 6.940000
    reduced_to: 13
  - symbol: Li # 14
    coordinates: [  0.678791546709016,  0.321208456358734,  0.000000000057614 ]
    mass: 6.940000
    reduced_to: 13
  - symbol: Li # 15
    coordinates: [  0.178791546709016,  0.821208456358734,  0.000000000057614 ]
    mass: 6.940000
    reduced_to: 13
  - symbol: Li # 16
    coordinates: [  0.678791546709016,  0.821208456358734,  0.000000000057614 ]
    mass: 6.940000
    reduced_to: 13
  - symbol: Li # 17
    coordinates: [  0.178791546709016,  0.321208456358734,  0.333333333390947 ]
    mass: 6.940000
    reduced_to: 13
  - symbol: Li # 18
    coordinates: [  0.678791546709016,  0.321208456358734,  0.333333333390947 ]
    mass: 6.940000
    reduced_to: 13
  - symbol: Li # 19
    coordinates: [  0.178791546709016,  0.821208456358734,  0.333333333390947 ]
    mass: 6.940000
    reduced_to: 13
  - symbol: Li # 20
    coordinates: [  0.678791546709016,  0.821208456358734,  0.333333333390947 ]
    mass: 6.940000
    reduced_to: 13
  - symbol: Li # 21
    coordinates: [  0.178791546709016,  0.321208456358734,  0.666666666724280 ]
    mass: 6.940000
    reduced_to: 13
  - symbol: Li # 22
    coordinates: [  0.678791546709016,  0.321208456358734,  0.666666666724280 ]
    mass: 6.940000
    reduced_to: 13
  - symbol: Li # 23
    coordinates: [  0.178791546709016,  0.821208456358734,  0.666666666724280 ]
    mass: 6.940000
    reduced_to: 13
  - symbol: Li # 24
    coordinates: [  0.678791546709016,  0.821208456358734,  0.666666666724280 ]
    mass: 6.940000
    reduced_to: 13
  - symbol: Li # 25
    coordinates: [  0.263884697045311,  0.236115304881955,  0.166666665921847 ]
    mass: 6.940000
    reduced_to: 25
  - symbol: Li # 26
    coordinates: [  0.763884697045311,  0.236115304881955,  0.166666665921847 ]
    mass: 6.940000
    reduced_to: 25
  - symbol: Li # 27
    coordinates: [  0.263884697045311,  0.736115304881955,  0.166666665921847 ]
    mass: 6.940000
    reduced_to: 25
  - symbol: Li # 28
    coordinates: [  0.763884697045311,  0.736115304881955,  0.166666665921847 ]
    mass: 6.940000
    reduced_to: 25
  - symbol: Li # 29
    coordinates: [  0.263884697045311,  0.236115304881955,  0.499999999255180 ]
    mass: 6.940000
    reduced_to: 25
  - symbol: Li # 30
    coordinates: [  0.763884697045311,  0.236115304881955,  0.499999999255180 ]
    mass: 6.940000
    reduced_to: 25
  - symbol: Li # 31
    coordinates: [  0.263884697045311,  0.736115304881955,  0.499999999255180 ]
    mass: 6.940000
    reduced_to: 25
  - symbol: Li # 32
    coordinates: [  0.763884697045311,  0.736115304881955,  0.499999999255180 ]
    mass: 6.940000
    reduced_to: 25
  - symbol: Li # 33
    coordinates: [  0.263884697045311,  0.236115304881955,  0.833333332588513 ]
    mass: 6.940000
    reduced_to: 25
  - symbol: Li # 34
    coordinates: [  0.763884697045311,  0.236115304881955,  0.833333332588513 ]
    mass: 6.940000
    reduced_to: 25
  - symbol: Li # 35
    coordinates: [  0.263884697045311,  0.736115304881955,  0.833333332588513 ]
    mass: 6.940000
    reduced_to: 25
  - symbol: Li # 36
    coordinates: [  0.763884697045311,  0.736115304881955,  0.833333332588513 ]
    mass: 6.940000
    reduced_to: 25
  - symbol: Li # 37
    coordinates: [  0.349038024144835,  0.150961984618494,  0.333333333311758 ]
    mass: 6.940000
    reduced_to: 37
  - symbol: Li # 38
    coordinates: [  0.849038024144835,  0.150961984618494,  0.333333333311758 ]
    mass: 6.940000
    reduced_to: 37
  - symbol: Li # 39
    coordinates: [  0.349038024144835,  0.650961984618494,  0.333333333311758 ]
    mass: 6.940000
    reduced_to: 37
  - symbol: Li # 40
    coordinates: [  0.849038024144835,  0.650961984618494,  0.333333333311758 ]
    mass: 6.940000
    reduced_to: 37
  - symbol: Li # 41
    coordinates: [  0.349038024144835,  0.150961984618494,  0.666666666645092 ]
    mass: 6.940000
    reduced_to: 37
  - symbol: Li # 42
    coordinates: [  0.849038024144835,  0.150961984618494,  0.666666666645092 ]
    mass: 6.940000
    reduced_to: 37
  - symbol: Li # 43
    coordinates: [  0.349038024144835,  0.650961984618494,  0.666666666645092 ]
    mass: 6.940000
    reduced_to: 37
  - symbol: Li # 44
    coordinates: [  0.849038024144835,  0.650961984618494,  0.666666666645092 ]
    mass: 6.940000
    reduced_to: 37
  - symbol: Li # 45
    coordinates: [  0.349038024144835,  0.150961984618494,  0.999999999978425 ]
    mass: 6.940000
    reduced_to: 37
  - symbol: Li # 46
    coordinates: [  0.849038024144835,  0.150961984618494,  0.999999999978425 ]
    mass: 6.940000
    reduced_to: 37
  - symbol: Li # 47
    coordinates: [  0.349038024144835,  0.650961984618494,  0.999999999978425 ]
    mass: 6.940000
    reduced_to: 37
  - symbol: Li # 48
    coordinates: [  0.849038024144835,  0.650961984618494,  0.999999999978425 ]
    mass: 6.940000
    reduced_to: 37
  - symbol: Li # 49
    coordinates: [  0.437068130121423,  0.062931864179690,  0.166666666529672 ]
    mass: 6.940000
    reduced_to: 49
  - symbol: Li # 50
    coordinates: [  0.937068130121423,  0.062931864179690,  0.166666666529672 ]
    mass: 6.940000
    reduced_to: 49
  - symbol: Li # 51
    coordinates: [  0.437068130121423,  0.562931864179690,  0.166666666529672 ]
    mass: 6.940000
    reduced_to: 49
  - symbol: Li # 52
    coordinates: [  0.937068130121423,  0.562931864179690,  0.166666666529672 ]
    mass: 6.940000
    reduced_to: 49
  - symbol: Li # 53
    coordinates: [  0.437068130121423,  0.062931864179690,  0.499999999863005 ]
    mass: 6.940000
    reduced_to: 49
  - symbol: Li # 54
    coordinates: [  0.937068130121423,  0.062931864179690,  0.499999999863005 ]
    mass: 6.940000
    reduced_to: 49
  - symbol: Li # 55
    coordinates: [  0.437068130121423,  0.562931864179690,  0.499999999863005 ]
    mass: 6.940000
    reduced_to: 49
  - symbol: Li # 56
    coordinates: [  0.937068130121423,  0.562931864179690,  0.499999999863005 ]
    mass: 6.940000
    reduced_to: 49
  - symbol: Li # 57
    coordinates: [  0.437068130121423,  0.062931864179690,  0.833333333196339 ]
    mass: 6.940000
    reduced_to: 49
  - symbol: Li # 58
    coordinates: [  0.937068130121423,  0.062931864179690,  0.833333333196339 ]
    mass: 6.940000
    reduced_to: 49
  - symbol: Li # 59
    coordinates: [  0.437068130121423,  0.562931864179690,  0.833333333196339 ]
    mass: 6.940000
    reduced_to: 49
  - symbol: Li # 60
    coordinates: [  0.937068130121423,  0.562931864179690,  0.833333333196339 ]
    mass: 6.940000
    reduced_to: 49
  - symbol: Sn # 61
    coordinates: [  0.013880314032232,  0.486119683857038,  0.000000000690456 ]
    mass: 118.710000
    reduced_to: 61
  - symbol: Sn # 62
    coordinates: [  0.513880314032232,  0.486119683857038,  0.000000000690456 ]
    mass: 118.710000
    reduced_to: 61
  - symbol: Sn # 63
    coordinates: [  0.013880314032232,  0.986119683857038,  0.000000000690456 ]
    mass: 118.710000
    reduced_to: 61
  - symbol: Sn # 64
    coordinates: [  0.513880314032232,  0.986119683857038,  0.000000000690456 ]
    mass: 118.710000
    reduced_to: 61
  - symbol: Sn # 65
    coordinates: [  0.013880314032232,  0.486119683857038,  0.333333334023789 ]
    mass: 118.710000
    reduced_to: 61
  - symbol: Sn # 66
    coordinates: [  0.513880314032232,  0.486119683857038,  0.333333334023789 ]
    mass: 118.710000
    reduced_to: 61
  - symbol: Sn # 67
    coordinates: [  0.013880314032232,  0.986119683857038,  0.333333334023789 ]
    mass: 118.710000
    reduced_to: 61
  - symbol: Sn # 68
    coordinates: [  0.513880314032232,  0.986119683857038,  0.333333334023789 ]
    mass: 118.710000
    reduced_to: 61
  - symbol: Sn # 69
    coordinates: [  0.013880314032232,  0.486119683857038,  0.666666667357122 ]
    mass: 118.710000
    reduced_to: 61
  - symbol: Sn # 70
    coordinates: [  0.513880314032232,  0.486119683857038,  0.666666667357122 ]
    mass: 118.710000
    reduced_to: 61
  - symbol: Sn # 71
    coordinates: [  0.013880314032232,  0.986119683857038,  0.666666667357122 ]
    mass: 118.710000
    reduced_to: 61
  - symbol: Sn # 72
    coordinates: [  0.513880314032232,  0.986119683857038,  0.666666667357122 ]
    mass: 118.710000
    reduced_to: 61

displacements:
- atom:    1
  displacement:
    [   0.0059498339254292,  0.0000000000401512,  0.0080373799375053 ]
  forces:
  - [   0.0325625129044056, -0.0207989234477282, -0.0202650576829910 ]
  - [   0.0441740378737450, -0.0222288426011801, -0.0000455318659078 ]
  - [   0.0441883318126202, -0.0222163535654545, -0.0000454335822724 ]
  - [   0.0441088117659092, -0.0226562023162842,  0.0000024745240808 ]
  - [   0.0442143902182579, -0.0222426913678646, -0.0004182872071397 ]
  - [   0.0442267693579197, -0.0222237575799227,  0.0000194013846340 ]
  - [   0.0442158281803131, -0.0222348868846893,  0.0000223202005145 ]
  - [   0.0442019551992416, -0.0222199242562056,  0.0000123148784041 ]
  - [   0.0446364916861057, -0.0224553756415844, -0.0007400519098155 ]
  - [   0.0442195385694504, -0.0222284644842148,  0.0000258615618804 ]
  - [   0.0442143157124519, -0.0222264993935823,  0.0000232955571846 ]
  - [   0.0442155152559280, -0.0222264043986797,  0.0000029196962714 ]
  - [  -0.0330998003482819,  0.0166161172091961,  0.0006317405495793 ]
  - [  -0.0326456129550934,  0.0160736292600632, -0.0001987424911931 ]
  - [  -0.0323266983032227,  0.0165800508111715, -0.0000659120705677 ]
  - [  -0.0322998240590096,  0.0162584874778986,  0.0000211202386708 ]
  - [  -0.0302462521940470,  0.0151783078908920,  0.0029395590536296 ]
  - [  -0.0321881771087646,  0.0163855366408825,  0.0001471037976444 ]
  - [  -0.0323068723082542,  0.0160304326564074,  0.0000136810122058 ]
  - [  -0.0322328805923462,  0.0162245389074087, -0.0000041107969082 ]
  - [  -0.0322730913758278,  0.0162241887301207,  0.0000725411809981 ]
  - [  -0.0322619006037712,  0.0162139702588320, -0.0000238635802816 ]
  - [  -0.0322596244513988,  0.0162220075726509, -0.0000242664591497 ]
  - [  -0.0322568342089653,  0.0162161216139793, -0.0000119652195281 ]
  - [   0.0007822853513062, -0.0003203936503269,  0.0002468873281032 ]
  - [   0.0023116418160498,  0.0015049884095788, -0.0005251865368336 ]
  - [  -0.0001744831679389, -0.0000615920871496, -0.0005321130156517 ]
  - [  -0.0000190697610378,  0.0000327085144818, -0.0000803582370281 ]
  - [  -0.0000321366824210,  0.0000037907739170,  0.0000837945844978 ]
  - [  -0.0000853044912219,  0.0000473810359836,  0.0000481162423966 ]
  - [  -0.0000426206970587,  0.0001028855331242,  0.0001349788653897 ]
  - [  -0.0000021285377443,  0.0000070915557444,  0.0000304616987705 ]
  - [  -0.0000262758694589,  0.0000012954697013,  0.0000184320961125 ]
  - [   0.0000110510736704, -0.0001105477567762,  0.0000944073617575 ]
  - [   0.0001414258731529,  0.0001176740042865,  0.0000073470073403 ]
  - [  -0.0000272968318313,  0.0000208232086152,  0.0000134445726871 ]
  - [   0.0305817965418100, -0.0153801478445530,  0.0000294983219646 ]
  - [   0.0304131209850311, -0.0155370533466339,  0.0004431219713297 ]
  - [   0.0306482762098312, -0.0148593280464411,  0.0006379948463291 ]
  - [   0.0308625176548958, -0.0155198816210032,  0.0001096318665077 ]
  - [   0.0305320061743259, -0.0153480842709541, -0.0000081020352809 ]
  - [   0.0305329784750938, -0.0153498249128461, -0.0000055432265071 ]
  - [   0.0305340401828289, -0.0153494346886873, -0.0000045714359658 ]
  - [   0.0305371843278408, -0.0153515748679638,  0.0000143771394505 ]
  - [   0.0305583141744137, -0.0153680657967925, -0.0000315218021569 ]
  - [   0.0308758970350027, -0.0151247354224324,  0.0004343711188994 ]
  - [   0.0305830948054790, -0.0154827628284693,  0.0002516299136914 ]
  - [   0.0303520038723946, -0.0152623886242509,  0.0001798656012397 ]
  - [  -0.0433609932661057,  0.0218660049140453, -0.0000238358043134 ]
  - [  -0.0432598143815994,  0.0212107952684164, -0.0000526457079104 ]
  - [  -0.0412701442837715,  0.0226842444390059, -0.0000565803493373 ]
  - [  -0.0414797514677048,  0.0207873396575451, -0.0005130957579240 ]
  - [  -0.0433843024075031,  0.0218102037906647,  0.0000213505700231 ]
  - [  -0.0434046052396297,  0.0218036677688360,  0.0000512700135005 ]
  - [  -0.0433998741209507,  0.0218373723328114,  0.0000681412493577 ]
  - [  -0.0434682741761208,  0.0218145288527012, -0.0001107187417801 ]
  - [  -0.0434225052595139,  0.0218301750719547, -0.0000068347435445 ]
  - [  -0.0434135720133781,  0.0218663327395916,  0.0000441333540948 ]
  - [  -0.0434560105204582,  0.0218069013208151,  0.0000268136645900 ]
  - [  -0.0435630306601524,  0.0218628067523241, -0.0001868556137197 ]
  - [   0.0068228095769882, -0.0033107176423073,  0.0116048455238342 ]
  - [   0.0009816419333220, -0.0003953799605370,  0.0000348784960806 ]
  - [   0.0009051617234945, -0.0006027631461620, -0.0000599548220634 ]
  - [   0.0009238249040209, -0.0003699548542500,  0.0001444146037102 ]
  - [  -0.0016621369868517,  0.0009361077100039,  0.0057002343237400 ]
  - [   0.0006484647747129, -0.0005981326103210, -0.0001338248839602 ]
  - [   0.0008727572858334, -0.0002215951681137, -0.0000346302986145 ]
  - [   0.0009960043244064, -0.0004036501049995,  0.0001670010387897 ]
  - [   0.0009297281503677, -0.0004647281020880, -0.0002358337515034 ]
  - [   0.0009441226720810, -0.0004768781363964, -0.0000401380093535 ]
  - [   0.0009475219994783, -0.0004737004637718, -0.0000401288270950 ]
  - [   0.0009437277913094, -0.0004768706858158, -0.0000500567257404 ]
- atom:    1
  displacement:
    [  -0.0059498339254292, -0.0000000000401512, -0.0080373799375053 ]
  forces:
  - [   0.0561561435461044, -0.0237864218652248,  0.0206337794661522 ]
  - [   0.0442487820982933, -0.0222206879407167,  0.0000451997329947 ]
  - [   0.0442329496145248, -0.0222305823117495,  0.0000453648754046 ]
  - [   0.0443112626671791, -0.0217911992222071, -0.0000022621825337 ]
  - [   0.0442128218710423, -0.0222081728279591,  0.0004265545285307 ]
  - [   0.0441962182521820, -0.0222251303493977, -0.0000222620728891 ]
  - [   0.0442058667540550, -0.0222130753099918, -0.0000239069922827 ]
  - [   0.0442187823355198, -0.0222278460860252, -0.0000144429504871 ]
  - [   0.0437822565436363, -0.0219923295080662,  0.0007359019364230 ]
  - [   0.0442024655640125, -0.0222209077328444, -0.0000256857092609 ]
  - [   0.0442051775753498, -0.0222209841012955, -0.0000235595216509 ]
  - [   0.0442048758268356, -0.0222205556929111, -0.0000032885000110 ]
  - [  -0.0314271785318851,  0.0158238802105188, -0.0006179237389006 ]
  - [  -0.0318735465407372,  0.0163579098880291,  0.0001965505944099 ]
  - [  -0.0321871638298035,  0.0158523544669151,  0.0000636589611531 ]
  - [  -0.0322199612855911,  0.0161762759089470, -0.0000214733518078 ]
  - [  -0.0342549420893192,  0.0172423496842384, -0.0029013804160058 ]
  - [  -0.0323301777243614,  0.0160479508340359, -0.0001445800589863 ]
  - [  -0.0322131887078285,  0.0164074152708054, -0.0000124061480165 ]
  - [  -0.0322883874177933,  0.0162102170288563,  0.0000046128434406 ]
  - [  -0.0322435274720192,  0.0162098743021488, -0.0000703975238139 ]
  - [  -0.0322550348937511,  0.0162182860076427,  0.0000260412507487 ]
  - [  -0.0322576165199280,  0.0162129700183868,  0.0000256969597103 ]
  - [  -0.0322632715106010,  0.0162187293171883,  0.0000128072042571 ]
  - [  -0.0008191205561161,  0.0003364114090800, -0.0002471590414643 ]
  - [  -0.0023751910775900, -0.0014911745674908,  0.0005394558538683 ]
  - [   0.0001295171678066,  0.0000661478843540,  0.0005322135984898 ]
  - [  -0.0000280318781734, -0.0000070189125836,  0.0000819191336632 ]
  - [  -0.0000152124557644,  0.0000189418205991, -0.0000830066855997 ]
  - [   0.0000311299227178, -0.0000217796768993, -0.0000496781285619 ]
  - [  -0.0000073099508882, -0.0000758857931942, -0.0001381406473229 ]
  - [  -0.0000445061596110,  0.0000156355090439, -0.0000319816172123 ]
  - [  -0.0000189440324903,  0.0000214185565710, -0.0000183099764399 ]
  - [  -0.0000648032873869,  0.0001396541483700, -0.0000913930489332 ]
  - [  -0.0001944497926161, -0.0000973155256361, -0.0000032901734812 ]
  - [  -0.0000184288946912,  0.0000029823277146, -0.0000127926468849 ]
  - [   0.0304825827479362, -0.0153168179094791, -0.0000290827847493 ]
  - [   0.0306485574692488, -0.0151644991710782, -0.0004452010325622 ]
  - [   0.0304250791668892, -0.0158250331878662, -0.0006255945772864 ]
  - [   0.0302040614187717, -0.0151795288547873, -0.0001086169213522 ]
  - [   0.0305303428322077, -0.0153483087196946,  0.0000093911130534 ]
  - [   0.0305317565798759, -0.0153494365513325,  0.0000063322104324 ]
  - [   0.0305316001176834, -0.0153481084853411,  0.0000072347202149 ]
  - [   0.0305251255631447, -0.0153445582836866, -0.0000141033660839 ]
  - [   0.0305032804608345, -0.0153270447626710,  0.0000301996115013 ]
  - [   0.0301928203552961, -0.0155846774578094, -0.0004446826060303 ]
  - [   0.0304798223078251, -0.0152148539200425, -0.0002521428978071 ]
  - [   0.0307162068784237, -0.0154358865693212, -0.0001812382688513 ]
  - [  -0.0434445291757584,  0.0217696614563465,  0.0000229678116739 ]
  - [  -0.0435521677136421,  0.0224351566284895,  0.0000511833059136 ]
  - [  -0.0455274656414986,  0.0209625922143459,  0.0000474544285680 ]
  - [  -0.0453526414930820,  0.0228676237165928,  0.0005363931995817 ]
  - [  -0.0434237793087959,  0.0218262001872063, -0.0000224998220801 ]
  - [  -0.0434038415551186,  0.0218336619436741, -0.0000522925110999 ]
  - [  -0.0434094890952110,  0.0218009967356920, -0.0000701709504938 ]
  - [  -0.0433424115180969,  0.0218235589563847,  0.0001128073054133 ]
  - [  -0.0433844029903412,  0.0218071341514587,  0.0000066587235779 ]
  - [  -0.0433929599821568,  0.0217693131417036, -0.0000446930353064 ]
  - [  -0.0433516837656498,  0.0218303557485342, -0.0000272184915957 ]
  - [  -0.0432450771331787,  0.0217754133045673,  0.0001792523398763 ]
  - [  -0.0051621310412884,  0.0024983659386635, -0.0120554901659489 ]
  - [   0.0009152125567198, -0.0005548093467951, -0.0000386994215660 ]
  - [   0.0009900387376547, -0.0003542192280293,  0.0000564008951187 ]
  - [   0.0009675858891569, -0.0005830936133862, -0.0001461654901505 ]
  - [   0.0034909732639790, -0.0018705669790506, -0.0056724986061454 ]
  - [   0.0012130045797676, -0.0003591291606426,  0.0001175722063635 ]
  - [   0.0010138247162104, -0.0007158108055592,  0.0000274255871773 ]
  - [   0.0008966898894869, -0.0005451031029224, -0.0001684650778770 ]
  - [   0.0009592603892088, -0.0004843845963478,  0.0002406182175037 ]
  - [   0.0009455513209105, -0.0004734434187412,  0.0000419612770202 ]
  - [   0.0009437203407288, -0.0004758648574352,  0.0000411570072174 ]
  - [   0.0009472221136093, -0.0004732422530651,  0.0000533945858479 ]
- atom:   13
  displacement:
    [   0.0059498339254292,  0.0000000000401512,  0.0080373799375053 ]
  forces:
  - [   0.0432473272085190, -0.0217644926160574,  0.0007186202565208 ]
  - [   0.0438196249306202, -0.0223178137093782, -0.0001955941261258 ]
  - [   0.0440999902784824, -0.0218859761953354, -0.0000340577244060 ]
  - [   0.0442215502262115, -0.0222081020474434, -0.0000168103724718 ]
  - [   0.0441966280341148, -0.0222175102680922,  0.0000700939781382 ]
  - [   0.0442076511681080, -0.0222215261310339, -0.0000267020441242 ]
  - [   0.0442098006606102, -0.0222243256866932, -0.0000259968583123 ]
  - [   0.0442138984799385, -0.0222254283726215, -0.0000137193128467 ]
  - [   0.0463321879506111, -0.0233131106942892,  0.0028057631570846 ]
  - [   0.0442851930856705, -0.0221026092767715,  0.0001449318224331 ]
  - [   0.0442035309970379, -0.0223866011947393, -0.0000181803698069 ]
  - [   0.0441869571805000, -0.0221905671060085,  0.0000340035185218 ]
  - [  -0.0429511032998562,  0.0152522064745426, -0.0117637068033218 ]
  - [  -0.0322935245931149,  0.0161978118121624, -0.0000548056887055 ]
  - [  -0.0320643670856953,  0.0163661353290081, -0.0000535225954081 ]
  - [  -0.0320644006133080,  0.0160246286541224, -0.0000666809937684 ]
  - [  -0.0321845263242722,  0.0161769129335880, -0.0003421825240366 ]
  - [  -0.0322587713599205,  0.0162037014961243,  0.0000263491747319 ]
  - [  -0.0322657339274883,  0.0162335019558668,  0.0000064628839027 ]
  - [  -0.0322593450546265,  0.0162156671285629, -0.0000178550999408 ]
  - [  -0.0323033407330513,  0.0162364374846220, -0.0002514676889405 ]
  - [  -0.0321940854191780,  0.0162347629666328, -0.0000218858585868 ]
  - [  -0.0322505384683609,  0.0161624215543270, -0.0000032606026252 ]
  - [  -0.0322685763239861,  0.0162205770611763, -0.0000108588792500 ]
  - [   0.0024708169512451, -0.0013422629563138,  0.0040913764387369 ]
  - [   0.0000320617109537,  0.0001180481631309, -0.0000713444896974 ]
  - [   0.0000264586415142, -0.0002058115787804, -0.0001488141715527 ]
  - [   0.0000053265830502,  0.0000679362565279,  0.0000921376049519 ]
  - [  -0.0000260823871940,  0.0000128558604047, -0.0000133702997118 ]
  - [  -0.0000234553590417,  0.0000144829973578,  0.0000063875268097 ]
  - [  -0.0000244353432208,  0.0000094803981483,  0.0000051489914767 ]
  - [  -0.0000240259105340,  0.0000116673763841, -0.0000274367630482 ]
  - [  -0.0012343255802989,  0.0005257811862975,  0.0014186162734404 ]
  - [  -0.0003316542133689,  0.0001288843341172, -0.0000706446953700 ]
  - [  -0.0002025751164183,  0.0000850940123200,  0.0000035995399230 ]
  - [   0.0000644100364298,  0.0000356095843017,  0.0003096871078014 ]
  - [   0.0305374264717102, -0.0153582720085979,  0.0000855398684507 ]
  - [   0.0305300410836935, -0.0153667265549302,  0.0000070860551205 ]
  - [   0.0305286850780249, -0.0153286950662732,  0.0000305152243527 ]
  - [   0.0305250696837902, -0.0153408627957106,  0.0000157530648721 ]
  - [   0.0305014513432980, -0.0153405852615833,  0.0000571769851376 ]
  - [   0.0305446553975344, -0.0152957458049059,  0.0000178912669071 ]
  - [   0.0304795596748590, -0.0153824007138610, -0.0000049318132369 ]
  - [   0.0305550415068865, -0.0153557807207108,  0.0000377284595743 ]
  - [   0.0312854498624802, -0.0157228559255600, -0.0000045886481530 ]
  - [   0.0323854982852936, -0.0141767961904407,  0.0001163062406704 ]
  - [   0.0303544867783785, -0.0156866461038589,  0.0001152888871729 ]
  - [   0.0296412855386734, -0.0152832111343741, -0.0001928400160978 ]
  - [  -0.0433253124356270,  0.0217719711363316,  0.0000069607049227 ]
  - [  -0.0432883538305759,  0.0216999389231205,  0.0002711659180932 ]
  - [  -0.0430654995143414,  0.0220098514109850,  0.0004687673645094 ]
  - [  -0.0433780141174793,  0.0218014884740114,  0.0003308650047984 ]
  - [  -0.0434033125638962,  0.0218183919787407, -0.0000094287097454 ]
  - [  -0.0434036329388618,  0.0218172874301672, -0.0000066237698775 ]
  - [  -0.0434029810130596,  0.0218194983899593, -0.0000072008187999 ]
  - [  -0.0433988124132156,  0.0218154340982437,  0.0000133390276460 ]
  - [  -0.0434055626392365,  0.0218130312860012, -0.0000092494301498 ]
  - [  -0.0432955473661423,  0.0223230160772800,  0.0006066378555261 ]
  - [  -0.0435746386647224,  0.0216324161738157,  0.0004212298663333 ]
  - [  -0.0432831794023514,  0.0217532329261303, -0.0000459426737507 ]
  - [   0.0024706178810447, -0.0011443551629782,  0.0002943503495771 ]
  - [   0.0058451350778341,  0.0021360386162996,  0.0002068140020128 ]
  - [   0.0011345092207193, -0.0011963061988354,  0.0002210475504398 ]
  - [   0.0007743010646664, -0.0004423148930073, -0.0001658424735069 ]
  - [   0.0008686464279890, -0.0004618857055902, -0.0000011576048564 ]
  - [   0.0010570248123258, -0.0003674216568470,  0.0000872896271176 ]
  - [   0.0009423736482859, -0.0005936734378338,  0.0001064389944077 ]
  - [   0.0009272521710955, -0.0004509054124355,  0.0000290460884571 ]
  - [   0.0009877756237984, -0.0005201045423746, -0.0000410221546190 ]
  - [   0.0008414071053267, -0.0005207564681768,  0.0002071831986541 ]
  - [   0.0009373072534800, -0.0003300234675407,  0.0001840963959694 ]
  - [   0.0009712688624859, -0.0004738010466099,  0.0000660344958305 ]
- atom:   13
  displacement:
    [  -0.0059498339254292, -0.0000000000401512, -0.0080373799375053 ]
  forces:
  - [   0.0451797731220722, -0.0226873420178890, -0.0007233677897602 ]
  - [   0.0445987507700920, -0.0221318416297436,  0.0001946451375261 ]
  - [   0.0443216487765312, -0.0225602760910988,  0.0000346744636772 ]
  - [   0.0441988781094551, -0.0222387500107288,  0.0000162674114108 ]
  - [   0.0442262627184391, -0.0222317315638065, -0.0000728209633962 ]
  - [   0.0442144796252251, -0.0222267974168062,  0.0000232245729421 ]
  - [   0.0442117154598236, -0.0222234968096018,  0.0000239090441028 ]
  - [   0.0442073680460453, -0.0222226697951555,  0.0000112187117338 ]
  - [   0.0420641563832760, -0.0211188383400440, -0.0028417659923434 ]
  - [   0.0441364087164402, -0.0223442874848843, -0.0001415745937265 ]
  - [   0.0442148149013519, -0.0220607910305262,  0.0000166565150721 ]
  - [   0.0442336201667786, -0.0222561806440353, -0.0000328896567225 ]
  - [  -0.0216204673051834,  0.0171067807823420,  0.0117263793945312 ]
  - [  -0.0322256982326508,  0.0162318535149097,  0.0000539248721907 ]
  - [  -0.0324455201625824,  0.0160664934664965,  0.0000554221587663 ]
  - [  -0.0324564725160599,  0.0164067763835192,  0.0000644660321996 ]