# Tetrahedron method
       -1.1097576795        0.0000000000
       -1.0431722310        0.0000000000
       -0.9765867825        0.0000000000
       -0.9100013340        0.0000000000
       -0.8434158855        0.0000000000
       -0.7768304370        0.0000000000
       -0.7102449885        0.0000000000
       -0.6436595400        0.0000000000
       -0.5770740915        0.0000000000
       -0.5104886430        0.0000000000
       -0.4439031945        0.0000000000
       -0.3773177459        0.0000000000
       -0.3107322974        0.0000000000
       -0.2441468489        0.0000000000
       -0.1775614004        0.0000000000
       -0.1109759519        0.0000000000
       -0.0443905034        0.0000000000
        0.0221949451        0.0000960378
        0.0887803936        0.0014412277
        0.1553658421        0.0041403338
        0.2219512906        0.0090339024
        0.2885367391        0.0170411655
        0.3551221876        0.0306107915
        0.4217076361        0.0465078711
        0.4882930846        0.0684189901
        0.5548785331        0.1055817656
        0.6214639817        0.1552507955
        0.6880494302        0.1933613028
        0.7546348787        0.2268092157
        0.8212203272        0.2690452240
        0.8878057757        0.3180910409
        0.9543912242        0.3773932495
        1.0209766727        0.4502410694
        1.0875621212        0.5466773981
        1.1541475697        0.6673111122
        1.2207330182        0.7832574645
        1.2873184667        1.0634772961
        1.3539039152        0.8963980970
        1.4204893637        0.9357411797
        1.4870748122        1.0022998119
        1.5536602607        1.1078949000
        1.6202457092        1.2446024826
        1.6868311578        1.5337129796
        1.7534166063        2.0084115375
        1.8200020548        2.0407038836
        1.8865875033        2.3965625543
        1.9531729518        2.7675804870
        2.0197584003        1.9297709620
        2.0863438488        1.4802626562
        2.1529292973        1.5760229723
        2.2195147458        1.9260067074
        2.2861001943        1.3953956426
        2.3526856428        1.2327613859
        2.4192710913        1.3905222443
        2.4858565398        1.2933590903
        2.5524419883        1.3607339643
        2.6190274368        1.4366327896
        2.6856128853        2.2960886498
        2.7521983339        1.1290712245
        2.8187837824        1.3194174101
        2.8853692309        1.1639024026
        2.9519546794        1.1699902659
        3.0185401279        1.3653314513
        3.0851255764        1.1402140858
        3.1517110249        0.8452730366
        3.2182964734        0.7099354174
        3.2848819219        1.3869050513
        3.3514673704        0.9508507737
        3.4180528189        0.9565705288
        3.4846382674        0.9825674127
        3.5512237159        1.0034260789
        3.6178091644        0.9953468982
        3.6843946129        0.9724585324
        3.7509800615        1.0114841941
        3.8175655100        0.8828879408
        3.8841509585        0.8455248251
        3.9507364070        0.8104630707
        4.0173218555        0.9630529241
        4.0839073040        1.0634715635
        4.1504927525        1.1994303921
        4.2170782010        1.4214707011
        4.2836636495        1.6315640767
        4.3502490980        1.8013115568
        4.4168345465        1.7249544743
        4.4834199950        1.6344743326
        4.5500054435        1.1837825603
        4.6165908920        0.9594520534
        4.6831763405        0.7351867624
        4.7497617890        0.6821476594
        4.8163472376        0.8078301614
        4.8829326861        0.7276805514
        4.9495181346        1.0108595327
        5.0161035831        1.5003243228
        5.0826890316        1.5244016687
        5.1492744801        1.1950396174
        5.2158599286        1.0884265469
        5.2824453771        0.8534391574
        5.3490308256        0.8236240011
        5.4156162741        0.8437217182
        5.4822017226        0.8331887273
        5.5487871711        1.0066882974
        5.6153726196        1.0885355398
        5.6819580681        0.8044283371
        5.7485435166        0.7333628524
        5.8151289651        0.7358354693
        5.8817144137        0.6288518603
        5.9482998622        0.5104080378
        6.0148853107        0.5904843774
        6.0814707592        0.7946728205
        6.1480562077        1.1865563931
        6.2146416562        1.9864929921
        6.2812271047        2.5593626333
        6.3478125532        2.0452955740
        6.4143980017        1.9730060676
        6.4809834502        2.1231849976
        6.5475688987        2.4515479508
        6.6141543472        3.0534426216
        6.6807397957        2.7059203352
        6.7473252442        2.3809111743
        6.8139106927        2.4385412103
        6.8804961413        2.7124708635
        6.9470815898        2.4878792363
        7.0136670383        2.3849600101
        7.0802524868        2.5492455297
        7.1468379353        2.2340335131
        7.2134233838        2.6508406322
        7.2800088323        2.7574345046
        7.3465942808        2.6430051029
        7.4131797293        2.7370766331
        7.4797651778        2.3299717717
        7.5463506263        2.2374796710
        7.6129360748        2.4725286372
        7.6795215233        2.4568639374
        7.7461069718        2.3965475618
        7.8126924203        2.3545682690
        7.8792778688        2.4011246703
        7.9458633174        2.3567334426
        8.0124487659        2.2472996184
        8.0790342144        2.0076822485
        8.1456196629        2.0355945825
        8.2122051114        1.7622307109
        8.2787905599        1.8725232756
        8.3453760084        2.1246534328
        8.4119614569        2.4182380621
        8.4785469054        2.4280087660
        8.5451323539        2.1358950567
        8.6117178024        2.2346875307
        8.6783032509        1.8698227178
        8.7448886994        1.8806423845
        8.8114741479        1.8735728838
        8.8780595964        1.8205094266
        8.9446450449        2.1188469403
        9.0112304935        2.1818894957
        9.0778159420        2.2322606070
        9.1444013905        2.6616081967
        9.2109868390        2.6962282920
        9.2775722875        3.3891049598
        9.3441577360        2.9832542727
        9.4107431845        3.0755114677
        9.4773286330        3.0667823241
        9.5439140815        2.5715629212
        9.6104995300        2.8047302348
        9.6770849785        3.6763314207
        9.7436704270        3.5128203790
        9.8102558755        3.7592331107
        9.8768413240        4.5436719336
        9.9434267725        4.3244835365
       10.0100122211        4.2657873231
       10.0765976696        3.4214037975
       10.1431831181        4.1952095687
       10.2097685666        3.3945036944
       10.2763540151        3.3409123842
       10.3429394636        2.7704510824
       10.4095249121        2.7248032921
       10.4761103606        2.6571657415
       10.5426958091        1.8970879916
       10.6092812576        1.4757932886
       10.6758667061        1.1514792570
       10.7424521546        0.8994914269
       10.8090376031        0.7132904627
       10.8756230516        0.5693855731
       10.9422085001        0.5428997709
       11.0087939486        0.3188145946
       11.0753793972        0.1345974978
       11.1419648457        0.0000000000
       11.2085502942        0.0000000000
       11.2751357427        0.0000000000
       11.3417211912        0.0000000000
       11.4083066397        0.0000000000
       11.4748920882        0.0000000000
       11.5414775367        0.0000000000
       11.6080629852        0.0000000000
       11.6746484337        0.0000000000
       11.7412338822        0.0000000000
       11.8078193307        0.0000000000
       11.8744047792        0.0000000000
       11.9409902277        0.0000000000
       12.0075756762        0.0000000000
       12.0741611247        0.0000000000
       12.1407465733        0.0000000000
       12.2073320218        0.0000000000
