phonopy:
  version: "2.37.1"
  frequency_unit_conversion_factor: 15.633302
  symmetry_tolerance: 1.00000e-05

space_group:
  type: "P1"
  number: 1
  Hall_symbol: "P 1"

primitive_matrix:
- [ -1.000000000000000, -0.000000000000000, -0.000000000000000 ]
- [  0.000000000000000,  1.000000000000000, -0.000000000000000 ]
- [  0.000000000000000,  0.000000000000000, -1.000000000000000 ]

supercell_matrix:
- [   3,   0,   0 ]
- [   0,   2,   0 ]
- [   0,   0,   2 ]

primitive_cell:
  lattice:
  - [    -4.711389545628557,     0.000000000000000,     0.000000000000000 ] # a
  - [    -0.000866317603755,     5.380345154760704,     0.000000000000000 ] # b
  - [    -0.001394209891404,     1.224941799775643,    -7.031530917003407 ] # c
  points:
  - symbol: Li # 1
    coordinates: [  0.723304237652442,  0.306140322769207,  0.350769692089993 ]
    mass: 6.940000
  - symbol: Li # 2
    coordinates: [  0.722999337475212,  0.877950986968785,  0.137519724333863 ]
    mass: 6.940000
  - symbol: Li # 3
    coordinates: [  0.223480019092073,  0.179540834428306,  0.036921248375480 ]
    mass: 6.940000
  - symbol: Li # 4
    coordinates: [  0.723439174480970,  0.505303382412392,  0.951140070265137 ]
    mass: 6.940000
  - symbol: Li # 5
    coordinates: [  0.223532994858336,  0.005330822273460,  0.451161917511449 ]
    mass: 6.940000
  - symbol: Li # 6
    coordinates: [  0.223204999150270,  0.806976417529609,  0.850849114747660 ]
    mass: 6.940000
  - symbol: Li # 7
    coordinates: [  0.723621152527633,  0.679792679345836,  0.537163025059268 ]
    mass: 6.940000
  - symbol: Li # 8
    coordinates: [  0.223374805909099,  0.378500284667282,  0.637845162263447 ]
    mass: 6.940000
  - symbol: Sn # 9
    coordinates: [  0.723326689458869,  0.092299894475144,  0.744216624747798 ]
    mass: 118.710000
  - symbol: Sn # 10
    coordinates: [  0.223182439677038,  0.592310315661360,  0.244405413227687 ]
    mass: 118.710000
  reciprocal_lattice: # without 2pi
  - [    -0.212251606519747,    -0.000034175744839,     0.000036131532931 ] # a*
  - [    -0.000000000000000,     0.185861681962015,     0.032378403209653 ] # b*
  - [    -0.000000000000000,     0.000000000000000,    -0.142216540295917 ] # c*

unit_cell:
  lattice:
  - [     4.711389545628557,     0.000000000000000,     0.000000000000000 ] # a
  - [    -0.000866317603755,     5.380345154760704,     0.000000000000000 ] # b
  - [     0.001394209891404,    -1.224941799775644,     7.031530917003409 ] # c
  points:
  - symbol: Li # 1
    coordinates: [  0.276695762347558,  0.306140322769207,  0.649230307910007 ]
    mass: 6.940000
    reduced_to: 1
  - symbol: Li # 2
    coordinates: [  0.277000662524788,  0.877950986968785,  0.862480275666137 ]
    mass: 6.940000
    reduced_to: 2
  - symbol: Li # 3
    coordinates: [  0.776519980907927,  0.179540834428306,  0.963078751624519 ]
    mass: 6.940000
    reduced_to: 3
  - symbol: Li # 4
    coordinates: [  0.276560825519030,  0.505303382412392,  0.048859929734863 ]
    mass: 6.940000
    reduced_to: 4
  - symbol: Li # 5
    coordinates: [  0.776467005141664,  0.005330822273460,  0.548838082488550 ]
    mass: 6.940000
    reduced_to: 5
  - symbol: Li # 6
    coordinates: [  0.776795000849730,  0.806976417529609,  0.149150885252339 ]
    mass: 6.940000
    reduced_to: 6
  - symbol: Li # 7
    coordinates: [  0.276378847472367,  0.679792679345836,  0.462836974940732 ]
    mass: 6.940000
    reduced_to: 7
  - symbol: Li # 8
    coordinates: [  0.776625194090901,  0.378500284667282,  0.362154837736553 ]
    mass: 6.940000
    reduced_to: 8
  - symbol: Sn # 9
    coordinates: [  0.276673310541131,  0.092299894475144,  0.255783375252202 ]
    mass: 118.710000
    reduced_to: 9
  - symbol: Sn # 10
    coordinates: [  0.776817560322962,  0.592310315661360,  0.755594586772313 ]
    mass: 118.710000
    reduced_to: 10

supercell:
  lattice:
  - [    14.134168636885672,     0.000000000000000,     0.000000000000000 ] # a
  - [    -0.001732635207510,    10.760690309521408,     0.000000000000000 ] # b
  - [     0.002788419782808,    -2.449883599551287,    14.063061834006819 ] # c
  points:
  - symbol: Li # 1
    coordinates: [  0.092231920782519,  0.153070161384604,  0.324615153955004 ]
    mass: 6.940000
    reduced_to: 1
  - symbol: Li # 2
    coordinates: [  0.425565254115853,  0.153070161384604,  0.324615153955004 ]
    mass: 6.940000
    reduced_to: 1
  - symbol: Li # 3
    coordinates: [  0.758898587449186,  0.153070161384604,  0.324615153955004 ]
    mass: 6.940000
    reduced_to: 1
  - symbol: Li # 4
    coordinates: [  0.092231920782519,  0.653070161384604,  0.324615153955004 ]
    mass: 6.940000
    reduced_to: 1
  - symbol: Li # 5
    coordinates: [  0.425565254115853,  0.653070161384604,  0.324615153955004 ]
    mass: 6.940000
    reduced_to: 1
  - symbol: Li # 6
    coordinates: [  0.758898587449186,  0.653070161384604,  0.324615153955004 ]
    mass: 6.940000
    reduced_to: 1
  - symbol: Li # 7
    coordinates: [  0.092231920782519,  0.153070161384604,  0.824615153955004 ]
    mass: 6.940000
    reduced_to: 1
  - symbol: Li # 8
    coordinates: [  0.425565254115853,  0.153070161384604,  0.824615153955004 ]
    mass: 6.940000
    reduced_to: 1
  - symbol: Li # 9
    coordinates: [  0.758898587449186,  0.153070161384604,  0.824615153955004 ]
    mass: 6.940000
    reduced_to: 1
  - symbol: Li # 10
    coordinates: [  0.092231920782519,  0.653070161384604,  0.824615153955004 ]
    mass: 6.940000
    reduced_to: 1
  - symbol: Li # 11
    coordinates: [  0.425565254115853,  0.653070161384604,  0.824615153955004 ]
    mass: 6.940000
    reduced_to: 1
  - symbol: Li # 12
    coordinates: [  0.758898587449186,  0.653070161384604,  0.824615153955004 ]
    mass: 6.940000
    reduced_to: 1
  - symbol: Li # 13
    coordinates: [  0.092333554174929,  0.438975493484392,  0.431240137833069 ]
    mass: 6.940000
    reduced_to: 13
  - symbol: Li # 14
    coordinates: [  0.425666887508263,  0.438975493484392,  0.431240137833069 ]
    mass: 6.940000
    reduced_to: 13
  - symbol: Li # 15
    coordinates: [  0.759000220841596,  0.438975493484392,  0.431240137833069 ]
    mass: 6.940000
    reduced_to: 13
  - symbol: Li # 16
    coordinates: [  0.092333554174929,  0.938975493484392,  0.431240137833069 ]
    mass: 6.940000
    reduced_to: 13
  - symbol: Li # 17
    coordinates: [  0.425666887508263,  0.938975493484392,  0.431240137833069 ]
    mass: 6.940000
    reduced_to: 13
  - symbol: Li # 18
    coordinates: [  0.759000220841596,  0.938975493484392,  0.431240137833069 ]
    mass: 6.940000
    reduced_to: 13
  - symbol: Li # 19
    coordinates: [  0.092333554174929,  0.438975493484392,  0.931240137833069 ]
    mass: 6.940000
    reduced_to: 13
  - symbol: Li # 20
    coordinates: [  0.425666887508263,  0.438975493484392,  0.931240137833069 ]
    mass: 6.940000
    reduced_to: 13
  - symbol: Li # 21
    coordinates: [  0.759000220841596,  0.438975493484392,  0.931240137833069 ]
    mass: 6.940000
    reduced_to: 13
  - symbol: Li # 22
    coordinates: [  0.092333554174929,  0.938975493484392,  0.931240137833069 ]
    mass: 6.940000
    reduced_to: 13
  - symbol: Li # 23
    coordinates: [  0.425666887508263,  0.938975493484392,  0.931240137833069 ]
    mass: 6.940000
    reduced_to: 13
  - symbol: Li # 24
    coordinates: [  0.759000220841596,  0.938975493484392,  0.931240137833069 ]
    mass: 6.940000
    reduced_to: 13
  - symbol: Li # 25
    coordinates: [  0.258839993635976,  0.089770417214153,  0.481539375812260 ]
    mass: 6.940000
    reduced_to: 25
  - symbol: Li # 26
    coordinates: [  0.592173326969309,  0.089770417214153,  0.481539375812260 ]
    mass: 6.940000
    reduced_to: 25
  - symbol: Li # 27
    coordinates: [  0.925506660302642,  0.089770417214153,  0.481539375812260 ]
    mass: 6.940000
    reduced_to: 25
  - symbol: Li # 28
    coordinates: [  0.258839993635976,  0.589770417214153,  0.481539375812260 ]
    mass: 6.940000
    reduced_to: 25
  - symbol: Li # 29
    coordinates: [  0.592173326969309,  0.589770417214153,  0.481539375812260 ]
    mass: 6.940000
    reduced_to: 25
  - symbol: Li # 30
    coordinates: [  0.925506660302642,  0.589770417214153,  0.481539375812260 ]
    mass: 6.940000
    reduced_to: 25
  - symbol: Li # 31
    coordinates: [  0.258839993635976,  0.089770417214153,  0.981539375812260 ]
    mass: 6.940000
    reduced_to: 25
  - symbol: Li # 32
    coordinates: [  0.592173326969309,  0.089770417214153,  0.981539375812260 ]
    mass: 6.940000
    reduced_to: 25
  - symbol: Li # 33
    coordinates: [  0.925506660302642,  0.089770417214153,  0.981539375812260 ]
    mass: 6.940000
    reduced_to: 25
  - symbol: Li # 34
    coordinates: [  0.258839993635976,  0.589770417214153,  0.981539375812260 ]
    mass: 6.940000
    reduced_to: 25
  - symbol: Li # 35
    coordinates: [  0.592173326969309,  0.589770417214153,  0.981539375812260 ]
    mass: 6.940000
    reduced_to: 25
  - symbol: Li # 36
    coordinates: [  0.925506660302642,  0.589770417214153,  0.981539375812260 ]
    mass: 6.940000
    reduced_to: 25
  - symbol: Li # 37
    coordinates: [  0.092186941839677,  0.252651691206196,  0.024429964867432 ]
    mass: 6.940000
    reduced_to: 37
  - symbol: Li # 38
    coordinates: [  0.425520275173010,  0.252651691206196,  0.024429964867432 ]
    mass: 6.940000
    reduced_to: 37
  - symbol: Li # 39
    coordinates: [  0.758853608506343,  0.252651691206196,  0.024429964867432 ]
    mass: 6.940000
    reduced_to: 37
  - symbol: Li # 40
    coordinates: [  0.092186941839677,  0.752651691206196,  0.024429964867432 ]
    mass: 6.940000
    reduced_to: 37
  - symbol: Li # 41
    coordinates: [  0.425520275173010,  0.752651691206196,  0.024429964867432 ]
    mass: 6.940000
    reduced_to: 37
  - symbol: Li # 42
    coordinates: [  0.758853608506343,  0.752651691206196,  0.024429964867432 ]
    mass: 6.940000
    reduced_to: 37
  - symbol: Li # 43
    coordinates: [  0.092186941839677,  0.252651691206196,  0.524429964867432 ]
    mass: 6.940000
    reduced_to: 37
  - symbol: Li # 44
    coordinates: [  0.425520275173010,  0.252651691206196,  0.524429964867432 ]
    mass: 6.940000
    reduced_to: 37
  - symbol: Li # 45
    coordinates: [  0.758853608506343,  0.252651691206196,  0.524429964867432 ]
    mass: 6.940000
    reduced_to: 37
  - symbol: Li # 46
    coordinates: [  0.092186941839677,  0.752651691206196,  0.524429964867432 ]
    mass: 6.940000
    reduced_to: 37
  - symbol: Li # 47
    coordinates: [  0.425520275173010,  0.752651691206196,  0.524429964867432 ]
    mass: 6.940000
    reduced_to: 37
  - symbol: Li # 48
    coordinates: [  0.758853608506343,  0.752651691206196,  0.524429964867432 ]
    mass: 6.940000
    reduced_to: 37
  - symbol: Li # 49
    coordinates: [  0.258822335047221,  0.002665411136730,  0.274419041244275 ]
    mass: 6.940000
    reduced_to: 49
  - symbol: Li # 50
    coordinates: [  0.592155668380555,  0.002665411136730,  0.274419041244275 ]
    mass: 6.940000
    reduced_to: 49
  - symbol: Li # 51
    coordinates: [  0.925489001713888,  0.002665411136730,  0.274419041244275 ]
    mass: 6.940000
    reduced_to: 49
  - symbol: Li # 52
    coordinates: [  0.258822335047221,  0.502665411136730,  0.274419041244275 ]
    mass: 6.940000
    reduced_to: 49
  - symbol: Li # 53
    coordinates: [  0.592155668380555,  0.502665411136730,  0.274419041244275 ]
    mass: 6.940000
    reduced_to: 49
  - symbol: Li # 54
    coordinates: [  0.925489001713888,  0.502665411136730,  0.274419041244275 ]
    mass: 6.940000
    reduced_to: 49
  - symbol: Li # 55
    coordinates: [  0.258822335047221,  0.002665411136730,  0.774419041244275 ]
    mass: 6.940000
    reduced_to: 49
  - symbol: Li # 56
    coordinates: [  0.592155668380555,  0.002665411136730,  0.774419041244275 ]
    mass: 6.940000
    reduced_to: 49
  - symbol: Li # 57
    coordinates: [  0.925489001713888,  0.002665411136730,  0.774419041244275 ]
    mass: 6.940000
    reduced_to: 49
  - symbol: Li # 58
    coordinates: [  0.258822335047221,  0.502665411136730,  0.774419041244275 ]
    mass: 6.940000
    reduced_to: 49
  - symbol: Li # 59
    coordinates: [  0.592155668380555,  0.502665411136730,  0.774419041244275 ]
    mass: 6.940000
    reduced_to: 49
  - symbol: Li # 60
    coordinates: [  0.925489001713888,  0.502665411136730,  0.774419041244275 ]
    mass: 6.940000
    reduced_to: 49
  - symbol: Li # 61
    coordinates: [  0.258931666949910,  0.403488208764805,  0.074575442626170 ]
    mass: 6.940000
    reduced_to: 61
  - symbol: Li # 62
    coordinates: [  0.592265000283243,  0.403488208764805,  0.074575442626170 ]
    mass: 6.940000
    reduced_to: 61
  - symbol: Li # 63
    coordinates: [  0.925598333616577,  0.403488208764805,  0.074575442626170 ]
    mass: 6.940000
    reduced_to: 61
  - symbol: Li # 64
    coordinates: [  0.258931666949910,  0.903488208764805,  0.074575442626170 ]
    mass: 6.940000
    reduced_to: 61
  - symbol: Li # 65
    coordinates: [  0.592265000283243,  0.903488208764805,  0.074575442626170 ]
    mass: 6.940000
    reduced_to: 61
  - symbol: Li # 66
    coordinates: [  0.925598333616577,  0.903488208764805,  0.074575442626170 ]
    mass: 6.940000
    reduced_to: 61
  - symbol: Li # 67
    coordinates: [  0.258931666949910,  0.403488208764805,  0.574575442626170 ]
    mass: 6.940000
    reduced_to: 61
  - symbol: Li # 68
    coordinates: [  0.592265000283243,  0.403488208764805,  0.574575442626170 ]
    mass: 6.940000
    reduced_to: 61
  - symbol: Li # 69
    coordinates: [  0.925598333616577,  0.403488208764805,  0.574575442626170 ]
    mass: 6.940000
    reduced_to: 61
  - symbol: Li # 70
    coordinates: [  0.258931666949910,  0.903488208764805,  0.574575442626170 ]
    mass: 6.940000
    reduced_to: 61
  - symbol: Li # 71
    coordinates: [  0.592265000283243,  0.903488208764805,  0.574575442626170 ]
    mass: 6.940000
    reduced_to: 61
  - symbol: Li # 72
    coordinates: [  0.925598333616577,  0.903488208764805,  0.574575442626170 ]
    mass: 6.940000
    reduced_to: 61
  - symbol: Li # 73
    coordinates: [  0.092126282490789,  0.339896339672918,  0.231418487470366 ]
    mass: 6.940000
    reduced_to: 73
  - symbol: Li # 74
    coordinates: [  0.425459615824122,  0.339896339672918,  0.231418487470366 ]
    mass: 6.940000
    reduced_to: 73
  - symbol: Li # 75
    coordinates: [  0.758792949157456,  0.339896339672918,  0.231418487470366 ]
    mass: 6.940000
    reduced_to: 73
  - symbol: Li # 76
    coordinates: [  0.092126282490789,  0.839896339672918,  0.231418487470366 ]
    mass: 6.940000
    reduced_to: 73
  - symbol: Li # 77
    coordinates: [  0.425459615824122,  0.839896339672918,  0.231418487470366 ]
    mass: 6.940000
    reduced_to: 73
  - symbol: Li # 78
    coordinates: [  0.758792949157456,  0.839896339672918,  0.231418487470366 ]
    mass: 6.940000
    reduced_to: 73
  - symbol: Li # 79
    coordinates: [  0.092126282490789,  0.339896339672918,  0.731418487470366 ]
    mass: 6.940000
    reduced_to: 73
  - symbol: Li # 80
    coordinates: [  0.425459615824122,  0.339896339672918,  0.731418487470366 ]
    mass: 6.940000
    reduced_to: 73
  - symbol: Li # 81
    coordinates: [  0.758792949157456,  0.339896339672918,  0.731418487470366 ]
    mass: 6.940000
    reduced_to: 73
  - symbol: Li # 82
    coordinates: [  0.092126282490789,  0.839896339672918,  0.731418487470366 ]
    mass: 6.940000
    reduced_to: 73
  - symbol: Li # 83
    coordinates: [  0.425459615824122,  0.839896339672918,  0.731418487470366 ]
    mass: 6.940000
    reduced_to: 73
  - symbol: Li # 84
    coordinates: [  0.758792949157456,  0.839896339672918,  0.731418487470366 ]
    mass: 6.940000
    reduced_to: 73
  - symbol: Li # 85
    coordinates: [  0.258875064696967,  0.189250142333641,  0.181077418868277 ]
    mass: 6.940000
    reduced_to: 85
  - symbol: Li # 86
    coordinates: [  0.592208398030300,  0.189250142333641,  0.181077418868277 ]
    mass: 6.940000
    reduced_to: 85
  - symbol: Li # 87
    coordinates: [  0.925541731363634,  0.189250142333641,  0.181077418868277 ]
    mass: 6.940000
    reduced_to: 85
  - symbol: Li # 88
    coordinates: [  0.258875064696967,  0.689250142333641,  0.181077418868277 ]
    mass: 6.940000
    reduced_to: 85
  - symbol: Li # 89
    coordinates: [  0.592208398030300,  0.689250142333641,  0.181077418868277 ]
    mass: 6.940000
    reduced_to: 85
  - symbol: Li # 90
    coordinates: [  0.925541731363634,  0.689250142333641,  0.181077418868277 ]
    mass: 6.940000
    reduced_to: 85
  - symbol: Li # 91
    coordinates: [  0.258875064696967,  0.189250142333641,  0.681077418868277 ]
    mass: 6.940000
    reduced_to: 85
  - symbol: Li # 92
    coordinates: [  0.592208398030300,  0.189250142333641,  0.681077418868277 ]
    mass: 6.940000
    reduced_to: 85
  - symbol: Li # 93
    coordinates: [  0.925541731363634,  0.189250142333641,  0.681077418868277 ]
    mass: 6.940000
    reduced_to: 85
  - symbol: Li # 94
    coordinates: [  0.258875064696967,  0.689250142333641,  0.681077418868277 ]
    mass: 6.940000
    reduced_to: 85
  - symbol: Li # 95
    coordinates: [  0.592208398030300,  0.689250142333641,  0.681077418868277 ]
    mass: 6.940000
    reduced_to: 85
  - symbol: Li # 96
    coordinates: [  0.925541731363634,  0.689250142333641,  0.681077418868277 ]
    mass: 6.940000
    reduced_to: 85
  - symbol: Sn # 97
    coordinates: [  0.092224436847044,  0.046149947237572,  0.127891687626101 ]
    mass: 118.710000
    reduced_to: 97
  - symbol: Sn # 98
    coordinates: [  0.425557770180377,  0.046149947237572,  0.127891687626101 ]
    mass: 118.710000
    reduced_to: 97
  - symbol: Sn # 99
    coordinates: [  0.758891103513710,  0.046149947237572,  0.127891687626101 ]
    mass: 118.710000
    reduced_to: 97
  - symbol: Sn # 100
    coordinates: [  0.092224436847044,  0.546149947237572,  0.127891687626101 ]
    mass: 118.710000
    reduced_to: 97
  - symbol: Sn # 101
    coordinates: [  0.425557770180377,  0.546149947237572,  0.127891687626101 ]
    mass: 118.710000
    reduced_to: 97
  - symbol: Sn # 102
    coordinates: [  0.758891103513710,  0.546149947237572,  0.127891687626101 ]
    mass: 118.710000
    reduced_to: 97
  - symbol: Sn # 103
    coordinates: [  0.092224436847044,  0.046149947237572,  0.627891687626101 ]
    mass: 118.710000
    reduced_to: 97
  - symbol: Sn # 104
    coordinates: [  0.425557770180377,  0.046149947237572,  0.627891687626101 ]
    mass: 118.710000
    reduced_to: 97
  - symbol: Sn # 105
    coordinates: [  0.758891103513710,  0.046149947237572,  0.627891687626101 ]
    mass: 118.710000
    reduced_to: 97
  - symbol: Sn # 106
    coordinates: [  0.092224436847044,  0.546149947237572,  0.627891687626101 ]
    mass: 118.710000
    reduced_to: 97
  - symbol: Sn # 107
    coordinates: [  0.425557770180377,  0.546149947237572,  0.627891687626101 ]
    mass: 118.710000
    reduced_to: 97
  - symbol: Sn # 108
    coordinates: [  0.758891103513710,  0.546149947237572,  0.627891687626101 ]
    mass: 118.710000
    reduced_to: 97
  - symbol: Sn # 109
    coordinates: [  0.258939186774321,  0.296155157830680,  0.377797293386157 ]
    mass: 118.710000
    reduced_to: 109
  - symbol: Sn # 110
    coordinates: [  0.592272520107654,  0.296155157830680,  0.377797293386157 ]
    mass: 118.710000
    reduced_to: 109
  - symbol: Sn # 111
    coordinates: [  0.925605853440987,  0.296155157830680,  0.377797293386157 ]
    mass: 118.710000
    reduced_to: 109
  - symbol: Sn # 112
    coordinates: [  0.258939186774321,  0.796155157830680,  0.377797293386157 ]
    mass: 118.710000
    reduced_to: 109
  - symbol: Sn # 113
    coordinates: [  0.592272520107654,  0.796155157830680,  0.377797293386157 ]
    mass: 118.710000
    reduced_to: 109
  - symbol: Sn # 114
    coordinates: [  0.925605853440987,  0.796155157830680,  0.377797293386157 ]
    mass: 118.710000
    reduced_to: 109
  - symbol: Sn # 115
    coordinates: [  0.258939186774321,  0.296155157830680,  0.877797293386157 ]
    mass: 118.710000
    reduced_to: 109
  - symbol: Sn # 116
    coordinates: [  0.592272520107654,  0.296155157830680,  0.877797293386157 ]
    mass: 118.710000
    reduced_to: 109
  - symbol: Sn # 117
    coordinates: [  0.925605853440987,  0.296155157830680,  0.877797293386157 ]
    mass: 118.710000
    reduced_to: 109
  - symbol: Sn # 118
    coordinates: [  0.258939186774321,  0.796155157830680,  0.877797293386157 ]
    mass: 118.710000
    reduced_to: 109
  - symbol: Sn # 119
    coordinates: [  0.592272520107654,  0.796155157830680,  0.877797293386157 ]
    mass: 118.710000
    reduced_to: 109
  - symbol: Sn # 120
    coordinates: [  0.925605853440987,  0.796155157830680,  0.877797293386157 ]
    mass: 118.710000
    reduced_to: 109

displacements:
- atom:    1
  displacement:
    [   0.0100000000000000,  0.0000000000000000,  0.0000000000000000 ]
  forces:
  - [  -0.0243261028081179, -0.0127275362610817,  0.0022378899157047 ]
  - [  -0.0003473748220131, -0.0125530809164047,  0.0023237690329552 ]
  - [  -0.0003417613916099, -0.0126633048057556,  0.0023067519068718 ]
  - [  -0.0001066781769623, -0.0126076526939869,  0.0023152530193329 ]
  - [   0.0000037233694457, -0.0126046091318130,  0.0023141913115978 ]
  - [   0.0000032479874790, -0.0126104988157749,  0.0023163668811321 ]
  - [  -0.0000299889361486, -0.0126071758568287,  0.0023158565163612 ]
  - [  -0.0000326433219016, -0.0126042887568474,  0.0023186802864075 ]
  - [  -0.0000330915208906, -0.0126106254756451,  0.0023120008409023 ]
  - [  -0.0000305277062580, -0.0126074180006981,  0.0023162737488747 ]
  - [  -0.0000333077041432, -0.0126053728163242,  0.0023196227848530 ]
  - [  -0.0000334773212671, -0.0126097463071346,  0.0023128874599934 ]
  - [  -0.0031095726881176,  0.0188061594963074, -0.0046602748334408 ]
  - [  -0.0032116356305778,  0.0185869187116623, -0.0047329124063253 ]
  - [  -0.0032119578681886,  0.0190190076828003, -0.0045902132987976 ]
  - [  -0.0031844009645283,  0.0188091956079006, -0.0046661067754030 ]
  - [  -0.0027220696210861,  0.0187524370849133, -0.0046384222805500 ]
  - [  -0.0027213250286877,  0.0188546702265739, -0.0046870149672031 ]
  - [  -0.0028096395544708,  0.0188022367656231, -0.0046631582081318 ]
  - [  -0.0028161127120256,  0.0187996625900269, -0.0046606268733740 ]
  - [  -0.0028165136463940,  0.0188053771853447, -0.0046659503132105 ]
  - [  -0.0029311161488295,  0.0188016518950462, -0.0046644546091557 ]
  - [  -0.0028065978549421,  0.0187999345362186, -0.0046643763780594 ]
  - [  -0.0028055557049811,  0.0188045352697372, -0.0046612210571766 ]
  - [   0.0020750020630658,  0.0106833921745420, -0.0139090614393353 ]
  - [   0.0014655489940196,  0.0109088253229856, -0.0143518615514040 ]
  - [   0.0020667966455221,  0.0111277066171169, -0.0147835109382868 ]
  - [   0.0015938994474709,  0.0107323247939348, -0.0144248837605119 ]
  - [   0.0014387518167496,  0.0109096802771091, -0.0143523290753365 ]
  - [   0.0015940029406920,  0.0110786780714989, -0.0142838703468442 ]
  - [   0.0016056093154475,  0.0109852114692330, -0.0144786611199379 ]
  - [   0.0014563726726919,  0.0109080318361521, -0.0143510838970542 ]
  - [   0.0016058136243373,  0.0108316885307431, -0.0142222736030817 ]
  - [   0.0014643867034465,  0.0109086800366640, -0.0143581395968795 ]
  - [   0.0014667180366814,  0.0109082711860538, -0.0143517386168242 ]
  - [   0.0014652672689408,  0.0109077151864767, -0.0143455322831869 ]
  - [   0.0007998766377568, -0.0089306533336639,  0.0091852005571127 ]
  - [   0.0008161109290086, -0.0089395195245743,  0.0092047788202763 ]
  - [   0.0008155565010384, -0.0089227128773928,  0.0091651314869523 ]
  - [   0.0008080713450909, -0.0089299883693457,  0.0091854371130466 ]
  - [   0.0008428134024143, -0.0089324191212654,  0.0091897211968899 ]
  - [   0.0008423663675785, -0.0089266858994961,  0.0091801527887583 ]
  - [   0.0001625263248570, -0.0089342501014471,  0.0091724339872599 ]
  - [   0.0008249779348262, -0.0087221730500460,  0.0090738590806723 ]
  - [   0.0008305360097438, -0.0091375391930342,  0.0092918705195189 ]
  - [   0.0007841414771974, -0.0089305676519871,  0.0091854166239500 ]
  - [   0.0008487876038998, -0.0089549589902163,  0.0091887284070253 ]
  - [   0.0008481509867124, -0.0089074429124594,  0.0091816876083612 ]
  - [   0.0040339548140764, -0.0071063674986362,  0.0064903926104307 ]
  - [   0.0011371948057786, -0.0051219239830971,  0.0077425464987755 ]
  - [   0.0040012309327722, -0.0031774304807186,  0.0089797619730234 ]
  - [   0.0010851414408535, -0.0052360650151968,  0.0078228013589978 ]
  - [   0.0010716506512836, -0.0051207467913628,  0.0077428207732737 ]
  - [   0.0010838580783457, -0.0050060041248798,  0.0076641901396215 ]
  - [   0.0010889421682805, -0.0051244348287582,  0.0077417939901352 ]
  - [   0.0010894970037043, -0.0051204338669777,  0.0077418871223927 ]
  - [   0.0010888093383983, -0.0051171071827412,  0.0077420677989721 ]
  - [   0.0010874543804675, -0.0051149837672710,  0.0077729607000947 ]
  - [   0.0010940809734166, -0.0051206350326538,  0.0077419346198440 ]
  - [   0.0010879598557949, -0.0051254387944937,  0.0077118035405874 ]
  - [  -0.0015541738830507, -0.0221707001328468,  0.0023723356425762 ]
  - [  -0.0015601750928909, -0.0221956223249435,  0.0024137273430824 ]
  - [  -0.0015542036853731, -0.0222201608121395,  0.0024539791047573 ]
  - [  -0.0014850752195343, -0.0222049355506897,  0.0026322398334742 ]
  - [  -0.0015951448585838, -0.0221955105662346,  0.0024137385189533 ]
  - [  -0.0014855746412650, -0.0221846103668213,  0.0021979399025440 ]
  - [  -0.0014848009450361, -0.0221926756203175,  0.0021045878529549 ]
  - [  -0.0015935851261020, -0.0221965238451958,  0.0024140626192093 ]
  - [  -0.0014852456515655, -0.0222015157341957,  0.0027172993868589 ]
  - [  -0.0015543563058600, -0.0221860297024250,  0.0024382695555687 ]
  - [  -0.0015594534343109, -0.0221968218684196,  0.0024142563343048 ]
  - [  -0.0015536665450782, -0.0222069807350636,  0.0023903362452984 ]
  - [  -0.0000582227949053,  0.0026338864117861, -0.0070138424634933 ]
  - [   0.0010972204618156,  0.0027300249785185, -0.0069383974187076 ]
  - [   0.0011026480933651,  0.0025887787342072, -0.0071144243702292 ]
  - [   0.0011913166381419,  0.0026670023798943, -0.0070262961089611 ]
  - [   0.0010348225478083,  0.0027150847017765, -0.0070590926334262 ]
  - [   0.0010313596576452,  0.0026052352041006, -0.0070011834613979 ]
  - [   0.0010346048511565,  0.0026596337556839, -0.0070285443216562 ]
  - [   0.0010384594788775,  0.0026621203869581, -0.0070306700654328 ]
  - [   0.0010382818290964,  0.0026567950844765, -0.0070252250880003 ]
  - [   0.0010453613940626,  0.0026611927896738, -0.0070287785492837 ]
  - [   0.0010387519141659,  0.0026619862765074, -0.0070277233608067 ]
  - [   0.0010392267722636,  0.0026604942977428, -0.0070294635370374 ]
  - [   0.0011646689381450,  0.0140658207237720, -0.0017708875238895 ]
  - [  -0.0000105447288661,  0.0141395106911659, -0.0008238218724728 ]
  - [   0.0011382522061467,  0.0142208561301231,  0.0000841245055199 ]
  - [  -0.0000059939229686,  0.0141056701540947, -0.0008671134710312 ]
  - [  -0.0000218554669118,  0.0141383074223995, -0.0008235275745392 ]
  - [  -0.0000066317261371,  0.0141732320189476, -0.0007796660065651 ]
  - [  -0.0000154990630108,  0.0141188427805901, -0.0007518380880356 ]
  - [  -0.0000096187923191,  0.0141392424702644, -0.0008221678435802 ]
  - [  -0.0000145885633174,  0.0141580998897552, -0.0008927807211876 ]
  - [  -0.0000153153996507,  0.0141357854008675, -0.0008148625493050 ]
  - [  -0.0000137017123052,  0.0141384899616241, -0.0008226893842220 ]
  - [  -0.0000152499769683,  0.0141414850950241, -0.0008300393819809 ]
  - [   0.0014668649528176,  0.0032051764428616, -0.0014433423057199 ]
  - [   0.0006831709761173,  0.0033701732754707, -0.0014144822489470 ]
  - [   0.0006829821504653,  0.0030289520509541, -0.0015249357093126 ]
  - [   0.0007203309796751,  0.0032023461535573, -0.0014689846429974 ]
  - [   0.0006614068988711,  0.0031433193944395, -0.0014024095144123 ]
  - [   0.0006620688363910,  0.0032590539194643, -0.0015341031830758 ]
  - [   0.0007488513365388,  0.0031975097954273, -0.0014664083719254 ]
  - [   0.0006325505673885,  0.0032675378024578, -0.0015615336596966 ]
  - [   0.0006362646818161,  0.0031314641237259, -0.0013830401003361 ]
  - [   0.0009234596509486,  0.0031995438039303, -0.0014724005013704 ]
  - [   0.0005878086667508,  0.0031156274490058, -0.0016064292285591 ]
  - [   0.0005872840993106,  0.0032853591255844, -0.0013386723585427 ]
  - [   0.0083500593900681,  0.0037707854062319,  0.0095188841223717 ]
  - [  -0.0010883584618568, -0.0008540712296963,  0.0066807158291340 ]
  - [   0.0081054195761681, -0.0053092148154974,  0.0039396360516548 ]
  - [  -0.0008154213428497, -0.0006240494549274,  0.0065830778330564 ]
  - [  -0.0007498413324356, -0.0008555743843317,  0.0066785551607609 ]
  - [  -0.0008144080638885, -0.0010842941701412,  0.0067736767232418 ]
  - [  -0.0007266551256180, -0.0008597937412560,  0.0066810660064220 ]
  - [  -0.0007177442312241, -0.0008561778813601,  0.0066800983622670 ]
  - [  -0.0007240325212479, -0.0008524004369974,  0.0066778417676687 ]
  - [  -0.0007258057594299, -0.0008567161858082,  0.0066654719412327 ]
  - [  -0.0007193684577942, -0.0008556209504604,  0.0066791325807571 ]
  - [  -0.0007265731692314, -0.0008546467870474,  0.0066931918263435 ]
- atom:    1
  displacement:
    [  -0.0100000000000000,  0.0000000000000000,  0.0000000000000000 ]
  forces:
  - [   0.0242627821862698, -0.0128085054457188,  0.0022184439003468 ]
  - [   0.0002787689445540, -0.0126637890934944,  0.0023068115115166 ]
  - [   0.0002844770206138, -0.0125540234148502,  0.0023236274719238 ]
  - [   0.0000428624989581, -0.0126074217259884,  0.0023151151835918 ]
  - [  -0.0000679852091707, -0.0126110911369324,  0.0023168735206127 ]
  - [  -0.0000683548860252, -0.0126053877174854,  0.0023140199482441 ]
  - [  -0.0000345286680385, -0.0126071497797966,  0.0023159384727478 ]