20
Lattice="4.444138698657948 -0.0005944608025155778 -0.0005087419771288913 0.0006024994315718661 4.441272574982693 0.00027560711940556175 0.0005330956443717787 0.0010836051255263522 22.518914411176663" Properties=species:S:1:pos:R:3:forces:R:3 structure_index=0 total_energy=-63.223060607910156 stress="0.008291317149996758 1.885027955950136e-07 1.4182863196765538e-05 1.00294236915488e-07 0.013559718616306782 1.1857380286528496e-06 1.4185884538164828e-05 1.1924522596018505e-06 0.005363370757550001" pbc="T T T"
Li       4.16519521       0.14268345       3.77742793      -0.00042768      -0.00039697      -0.01903289
Li       4.17333828       2.35552299      10.75803592      -0.00026058      -0.00049571      -0.00506133
Li       4.16574652       2.35613742      19.60622388      -0.00014654      -0.00132905       0.03107384
Li       4.16284883       0.13861198      21.97767671       0.00035783       0.00082277      -0.00675771
Ga       1.94687537       2.35551108      17.48171243       0.00074095      -0.00078784       0.03293204
Ga       1.94081713       0.14161151       1.67970375       0.00144837      -0.00009739      -0.00933461
Ga       1.94294727       2.36257969       3.81325431       0.00126241      -0.00051260      -0.02858471
Ga       1.95181869       2.35361061      12.89873169      -0.00008388       0.00026119       0.01308230
Ga       1.94875082       0.13116556      15.18994148       0.00050428       0.00204765      -0.00909203
Ga       4.17245339       0.13713075       8.69256591       0.00044858      -0.00085561      -0.01142871
Ga       1.95131458       0.13605938      10.78500885      -0.00045882       0.00003367      -0.01383504
Ga       4.16607307       0.13237737      17.53839906      -0.00022296       0.00163033       0.03749885
Sn       1.95128809       2.35755645       8.72070778      -0.00099931       0.00037951      -0.00592595
Sn       1.94284780       0.13527298      19.56297424       0.00053625       0.00315537      -0.00125255
Sn       4.17401437       0.13208375      12.83798280      -0.00132849       0.00189994       0.01035799
Sn       4.16782502       2.36133661       6.07198923      -0.00264846       0.00157336       0.00092120
Sn       4.17082630       2.35240328      15.41705328      -0.00125926      -0.00200351       0.02178271
Sn       1.94457801       0.14136670       6.10168698       0.00183917      -0.00175815      -0.03775463
Sn       1.94138923       2.35944996      21.93698489       0.00139612      -0.00124425       0.00941120
Sn       4.16388947       2.36319925       1.70617781      -0.00069799      -0.00232270      -0.00899996
10
Lattice="3.2955177383345617 -0.0004858766432294894 0.0002600925169996664 0.0007277607655958809 3.2955074928019563 0.0005410455175045163 -0.0012482506014935113 -0.0023779778089280746 19.860902885270146" Properties=species:S:1:pos:R:3:forces:R:3 structure_index=1 total_energy=-32.11532974243164 stress="-0.006190803367644548 0.0002737092727329582 0.00016035776934586465 0.0002737608156166971 -0.006296937353909016 0.0003252848982810974 0.00016042830247897655 0.0003252702590543777 0.029026152566075325" pbc="T T T"
Li       2.79401942       2.69194274      14.84908879      -0.00024542      -0.00030827      -0.00707297
Li       2.79425060       2.69195778       6.30134004       0.00008134       0.00006908       0.00744924
Li       2.79321524       2.69091658      18.60210200       0.00024060       0.00015620       0.00403138
Li       2.79449901       2.69260035       2.55162645      -0.00010689      -0.00005555      -0.00683170
Ga       2.79366328       2.69196013      10.57407590       0.00012926      -0.00011644       0.00264976
Sn       1.14582354       1.04400308      12.79124238       0.00002962       0.00036125       0.00613865
Sn       1.14617931       1.04422772       8.35800203      -0.00019003       0.00007917      -0.00784727
Sn       1.14633765       1.04529619       0.64529018       0.00003608       0.00021385       0.00130153
Sn       1.14623537       1.04480571       4.44070530       0.00002901      -0.00005808      -0.02773053
Sn       1.14550377       1.04412876      16.71034874      -0.00000356      -0.00034120       0.02791191
12
Lattice="4.6992717289668 0.005210864875669738 0.00071410058961113 -2.3522529789314763 4.071875011836009 -0.0024265998978808237 -0.0008633257254526562 0.008505469584557118 12.45613020696029" Properties=species:S:1:pos:R:3:forces:R:3 structure_index=2 total_energy=-34.69148635864258 stress="-0.03204181790351868 0.0049475086852908134 0.0007149089360609651 0.004947425331920385 -0.026537325233221054 0.000371932314010337 0.000714853114914149 0.0003720101958606392 -0.021688448265194893" pbc="T T T"
Li      -0.72265703       3.89561392       3.85124665       0.00083906       0.00064075      -0.04049456
Li       3.97868202       1.18478426       5.12198556       0.00177623      -0.00013200       0.01092425
Li      -0.72393394       3.90162643       9.81636367       0.00095173      -0.00068745       0.02672204
Li       3.97845974       1.18881905       8.52796143       0.00065404      -0.00008981      -0.02221534
Li      -0.72156793       3.89806762       6.90660089      -0.00083900       0.00033676       0.00707843
Li      -0.72163681       3.89121841       0.57686462       0.00041310      -0.00046204      -0.01147596
Ga       1.62661976       2.54675592      10.82508714      -0.00084759      -0.00016429       0.02274022
Ga       1.62852215       2.54020724       2.73535141      -0.00126260      -0.00014663      -0.01948336
Ga       1.62836347       2.54450583       8.25595483      -0.00157488       0.00173406       0.02732774
Sn       3.97927634       1.18323548       2.10200006       0.00092707      -0.00108866      -0.01609802
Sn       1.62850119       2.54142396       5.52420668      -0.00208050       0.00068683      -0.00087187
Sn       3.97720192       1.19049315      11.55522996       0.00104333      -0.00062749       0.01584644
10
Lattice="4.0189239834745525 0.0013301301126081783 -1.0545053819441241 -0.32377879422062655 5.67806745234775 -1.2268448239453837 0.0026544141898924827 0.06534035165535695 8.19217595482664" Properties=species:S:1:pos:R:3:forces:R:3 structure_index=3 total_energy=-29.212059020996094 stress="0.02190389111638069 0.0011195528786629438 -0.0009887040359899402 0.0011195688275620341 0.028297368437051773 0.005134290084242821 -0.0009886586340144277 0.005134321749210358 0.018451038748025894" pbc="T T T"
Li       0.48154416       2.63677956       5.94510093       0.00028317      -0.00156135       0.00059591
Li       3.60177968       4.82178376       1.47429429       0.01003235       0.01865532       0.03086339
Li       0.31977393       5.47532508       5.33243770      -0.00012998      -0.00001429      -0.00167849
Li       1.37722745       0.38838564       1.16653949      -0.00913159      -0.02095358      -0.02748147
Ga       2.07082675       3.81316051       3.82116165      -0.00685326      -0.02336600      -0.02695614
Ga       2.22074130       0.80914916       4.38997773       0.00487758       0.00849671       0.01468905
Ga       2.75885904       4.39794910      -1.74642908      -0.00471274      -0.00457865      -0.01502940
Ga       2.91151855       1.46073750       7.01471138       0.00651276       0.02290833       0.02608433
Sn       1.19702098       3.21976983       0.48351633       0.00719273       0.01894546       0.03688043
Sn       3.78302974       1.98969195       2.16041615      -0.00807103      -0.01853196      -0.03796761
7
Lattice="4.210931158022334 0.0012771812198703828 -0.0028179725095658446 -2.1088739661546776 4.717968995997829 -0.7154594922170221 0.004873574552561335 0.08889792890736774 6.905041395833551" Properties=species:S:1:pos:R:3:forces:R:3 structure_index=4 total_energy=-21.005329132080078 stress="-0.013834912329912186 -0.0013823250774294138 -0.00029477127827703953 -0.0013823043555021286 0.006878797896206379 -0.034122660756111145 -0.000294790806947276 -0.0341227725148201 -0.03761632740497589" pbc="T T T"
Li      -0.55231825       3.26559950       0.66137701       0.00087726      -0.04323857      -0.00153268
Li       3.66067113       0.67237657       1.97876748       0.00199565       0.03923190       0.00532119
Li      -0.54891864       2.01450991       4.77657184       0.00188858      -0.00383543      -0.00306340
Ga       1.55743487       0.08062776       4.00022914      -0.00182605      -0.02683761      -0.02327435
Ga       1.55741080       3.94084947       5.54647267       0.00205365       0.03347627       0.02132458
Sn       1.55376299       2.84741724       2.78310589       0.00280354      -0.04239538      -0.00082339
Sn       1.55705023       1.08592348      -0.14284330      -0.00779263       0.04359881       0.00204807
4
Lattice="4.05822593847082 0.005965420964268755 -0.006127486955539484 -0.008943957789922017 4.057749810764091 -0.010894878656819653 0.007234479461527908 0.012964707819195757 4.4469632387475295" Properties=species:S:1:pos:R:3:forces:R:3 structure_index=5 total_energy=-11.800247192382812 stress="0.06821316480636597 -0.027619143947958946 0.001770736649632454 -0.02761911228299141 0.06568015366792679 0.0032308343797922134 0.0017707449151203036 0.0032308364752680063 0.09999993443489075" pbc="T T T"
Li       2.04731915       3.48497821       0.48842949       0.00023000      -0.00023381       0.00006107
Li       0.02296438       1.45287577       0.49679870      -0.00060525       0.00047266       0.00034093
Ga       0.02169500       3.48857691       2.71492683       0.00061299      -0.00051201      -0.00000855
Sn       2.05543629       1.46257471       2.71741347      -0.00023774       0.00027316      -0.00039344
20
Lattice="6.390070141303911 -0.03578651391227557 1.492316392453089 2.554922166728375 6.807389967085302 2.9332762593221067 -0.12166135939967206 0.11938047427839159 8.959619593758347" Properties=species:S:1:pos:R:3:forces:R:3 structure_index=6 total_energy=-57.73926544189453 stress="0.01768835447728634 0.00458267517387867 -0.0013510964345186949 0.004582797642797232 0.0177103690803051 -0.004179471638053656 -0.001350906677544117 -0.004179685842245817 0.015187010169029236" pbc="T T T"
Li       7.60906179       3.89706636      11.41255114       0.00136776      -0.01005586       0.01059592
Li       4.32074464       0.03192682       2.50011560      -0.01221944      -0.02622394       0.00480567
Li       1.94015993       1.20042304       6.90411839       0.00281235       0.02351710      -0.03320593
Ga       5.91201983       1.91584702       3.95358679       0.00594327       0.03496390       0.00292485
Ga       5.98506574       2.01308096       9.91413602       0.00303382      -0.01114942      -0.02203429
Ga       6.06164233       1.93630203       6.95933516       0.00037018      -0.02350625      -0.01436893
Ga       2.90701292       5.96780161       5.55588248      -0.01846961       0.01514547       0.02426641
Ga       3.80411210       2.93022724       2.30928707       0.01378285       0.00373063      -0.03060619
Ga       2.99934072       5.89450072       8.48177883       0.01193675      -0.00641155      -0.00617352
Ga       1.93287297       1.01260789       1.07402177       0.00558426       0.01536401       0.00959883
Ga       5.27582023       4.91377419       7.02041824      -0.00580224       0.02061132       0.01071245
Ga       2.06620977       1.02426158       3.98217625       0.03010855       0.01186327       0.02148137
Ga       3.65304459       3.07781895       8.46618072       0.00110165      -0.00396760       0.00039596
Ga       5.03253008       4.80174658       4.05772152       0.01540534      -0.00100960       0.01713010
Ga       3.64676018       2.92315772       5.61763973       0.00364704      -0.01128937       0.00364571
Ga       7.57143315       3.99215066       8.55419724      -0.01488071      -0.01213925      -0.00121473
Ga       2.98856246       6.06487246      11.25438032      -0.01750197      -0.00195394      -0.02277867
Ga       6.92187138       6.82101321       8.35744128      -0.01802885      -0.02149401       0.02046302
Sn       6.70260011       6.74226175      11.34623040      -0.03340412       0.00082721       0.01388532
Sn       7.72319606       3.97970824       5.37505375       0.02521310       0.00317784      -0.00952338
18
Lattice="5.1706455221282805 0.03180267730679541 -1.6122552788705549 -0.6200075236021094 7.613979644043807 -2.147753498877121 -0.031557600837077024 -0.19980193100853028 9.540426157534405" Properties=species:S:1:pos:R:3:forces:R:3 structure_index=7 total_energy=-55.756954193115234 stress="-0.017727021127939224 0.0004537472559604794 3.115960134891793e-05 0.0004538281064014882 -0.011768894270062447 -0.0018101243767887354 3.110839315922931e-05 -0.0018100348534062505 -0.013739774003624916" pbc="T T T"
Li       0.78731869       3.34389839       3.15311413      -0.00153246      -0.02287735       0.04128169
Li       2.08645116       6.93704596       1.64524899       0.00266328      -0.00160643      -0.01557457
Li       3.57069283       3.72149893       6.47269805      -0.00563616       0.00627093      -0.00069211
Li       1.33514948       2.95857539      -1.05094681      -0.00598417       0.02501669      -0.00505319
Li       3.78224226       2.42704098       3.57786111      -0.01646584      -0.00960307       0.02501594
Li      -0.09336173       6.05605744       3.71191726       0.00072465       0.00134663      -0.03635492
Li       4.60485823       6.69729173      -3.10449841       0.02407137      -0.00340046       0.01530832
Ga       2.98950529       4.17215474       1.19133538      -0.01622600      -0.00023776      -0.00025076
Ga       2.22755022       5.64718139      -1.13702150      -0.00436469       0.01802527       0.00147509
Ga       0.62389876       4.40111488       6.18134976       0.01584255       0.00250316      -0.00495216
Ga       0.11495930       4.97685492       0.78565784      -0.00726819      -0.00507136       0.01490079
Sn       4.29156552       2.19735342      -0.70744895       0.00362773       0.00459329      -0.00420249
Sn       2.91562030       5.23661485       4.03238654       0.02768175       0.00174482      -0.01423708
Sn       2.07244755       1.23069837       1.45869027       0.00952073       0.00688742      -0.01679530
Sn       1.56613021       7.28686882       6.02045616       0.00533067      -0.00101674      -0.01523812
Sn       4.94689118       0.13571685       1.86992622       0.00167714       0.01188793      -0.01579107
Sn       4.42726745       0.69154892       5.96757913      -0.01392063      -0.01262229       0.01286258
Sn       1.53331734       1.62618223       5.60384508      -0.01974175      -0.02184071       0.01829734
10
Lattice="3.0621058269205492 -0.0004630916305999936 -0.0003405801515996419 0.0006961487768161646 4.574332025883065 0.00036364396997224687 1.5771407237891983e-05 -0.001839662259318791 15.504940400628472" Properties=species:S:1:pos:R:3:forces:R:3 structure_index=8 total_energy=-32.110694885253906 stress="0.02378462441265583 9.858704288490117e-06 2.280390435771551e-05 9.887668056762777e-06 0.010968415066599846 -2.4421427951892838e-05 2.2694855942972936e-05 -2.447020960971713e-05 0.022397024556994438" pbc="T T T"
Li       0.69353556       1.61381962      14.18988902      -0.00008471       0.00070396      -0.03171417
Li       0.69373697       1.61733945       1.71521825      -0.00004561      -0.00020610       0.00450953
Li       0.69242565       1.61686582       8.18553629       0.00010924      -0.00030891       0.04163289
Li       0.69306642       1.61482769      11.15795554      -0.00010762       0.00019163       0.03419031
Ga       2.22409487       3.90470875       6.74486481      -0.00004972      -0.00019622       0.01562844
Sn       2.22405255       3.90280345       9.66945563       0.00023388      -0.00023952       0.00470283
Sn       2.22465938       3.90090003      12.67596440      -0.00001714       0.00059547      -0.00601879
Sn       2.22505732       3.90308961       0.16787418      -0.00012086       0.00022143      -0.00529844
Sn       2.22509163       3.90492556       3.25783962       0.00021894      -0.00050864      -0.04983703
Sn       0.69308735       1.61809498       5.21325227      -0.00013641      -0.00025310      -0.00779555
3
Lattice="3.927416251883675 -0.0009765783671104018 2.2714683008170002 1.3077130537190458 3.7024252401633233 2.2723782610062493 -0.0024382764217486482 -0.0019394837029835476 4.536140847690537" Properties=species:S:1:pos:R:3:forces:R:3 structure_index=9 total_energy=-9.425342559814453 stress="-0.04507634416222572 -0.0013574304757639766 0.009311191737651825 -0.0013576000928878784 -0.05764550715684891 0.00921403057873249 0.009311063215136528 0.00921428482979536 -0.04409355670213699" pbc="T T T"
Li       4.35758364       1.94151125       3.72358007      -0.00024420       0.00183661      -0.00034278
Ga       1.73805552       2.86915681       3.72119575       0.00268086      -0.00219238       0.00079293
Sn       1.73911696       0.09131767       3.71859628      -0.00243665       0.00035578      -0.00045014
20
Lattice="6.569192035223724 0.13664192873866293 -0.0026838210208644424 -0.09720670901855978 6.700655281274437 -0.0008546748901423458 0.0028715792294285608 0.0013306593374013747 8.742987173403444" Properties=species:S:1:pos:R:3:forces:R:3 structure_index=10 total_energy=-58.145843505859375 stress="0.003859016578644514 0.002226699609309435 9.736970241647214e-05 0.002226581797003746 -0.0014554135268554091 -4.303665264160372e-05 9.747644071467221e-05 -4.3021540477639064e-05 0.0044850814156234264" pbc="T T T"
Li       0.11177594       3.78184789       0.32551664       0.00637887       0.02254320      -0.00109013
Li       1.51627895       0.86861871       4.69801038      -0.02170961       0.02278951      -0.00057069
Li       5.97113275       1.75171159       2.50944596       0.01090592       0.00495276      -0.00108276
Li       5.97661871       1.74963623       6.88078406       0.01085557       0.00169901       0.00184885
Li       4.72951520       4.48463733       6.88191784      -0.00562194      -0.03985713      -0.00118238
Li       3.40562749       0.40715380       2.51095697      -0.00167012       0.00152543       0.00121584
Li       0.11641112       3.78429563       4.69703252       0.00259408       0.01896474       0.00139906
Li       2.20427115       3.11959176       2.51252895       0.00793901       0.01374153      -0.00142387
Li       3.41566857       0.41432703       6.88200774      -0.00309846      -0.00732330      -0.00047033
Li       4.72194320       4.47933797       2.50908430      -0.00431758      -0.03982800       0.00099473
Li       2.21090273       3.11535072       6.87972484       0.00487992       0.01693048       0.00263035
Li       1.51082038       0.86965015       0.32511256      -0.01816517       0.01842834      -0.00082257
Ga       2.79926961       5.06968055       4.69407581      -0.01504417      -0.03661991      -0.00154670
Ga       2.79527265       5.06805927       0.32696670      -0.01728284      -0.03674494       0.00050987
Sn       5.22013788       6.50043173       0.32448696       0.04330770       0.00051489       0.00050691
Sn       0.82371777       5.66160056       2.51091464      -0.01173131       0.00235436      -0.00103899
Sn       4.03717794       2.45832602       0.32403455      -0.00312694       0.01929940       0.00149601
Sn       0.84184202       5.65785628       6.88210739      -0.01877612       0.00286676       0.00200634
Sn       4.04219042       2.46014953       4.69615766      -0.00585149       0.01842171      -0.00199876
Sn       5.22480229       6.50259147       4.69429316       0.03953462      -0.00465882      -0.00138077
12
Lattice="4.3124593845963455 0.0022437106862612127 -0.0014683035310342678 -0.003324636043707816 6.194676021529239 0.26554641598687867 0.0027372182605511193 0.1172202451073534 9.21881218337497" Properties=species:S:1:pos:R:3:forces:R:3 structure_index=11 total_energy=-36.91896438598633 stress="-0.026566194370388985 -0.0005542582948692143 -0.001203014049679041 -0.0005542962462641299 -0.02358407713472843 -0.021504675969481468 -0.001203007297590375 -0.021504739299416542 -0.014746524393558502" pbc="T T T"
Li       1.32728844       0.39042186       0.99976011      -0.00093965      -0.03097086      -0.01627156
Li       1.32559734       3.48796870       4.02581581       0.00003301      -0.01948309      -0.01992235
Li       3.48232029       5.06610949       8.61022812       0.00057917       0.02745441       0.01834158
Li       3.48315236       1.96641866       5.58586521       0.00026375       0.01917218       0.01931183
Ga       1.32701750       3.47277120       6.99371831      -0.00048299      -0.01780455       0.00154383
Ga       3.48236279       1.97943835       2.61823708      -0.00005489       0.01825954      -0.00248390
Ga       3.48179265       4.90921655       5.64411268      -0.00005376      -0.03067929       0.01525846
Ga       1.32697215       0.54577295       3.96545545       0.00073969       0.02873849      -0.01593947
Sn       3.48067561       5.16211922       2.74954085       0.00042440       0.02374085       0.04287009
Sn       3.48453552       1.98001558       8.63518034      -0.00001637       0.00458642      -0.01486213
Sn       1.32841051       0.28929857       6.85912922      -0.00013803      -0.01919885      -0.04096385
Sn       1.32502374       3.47469961       0.97581149      -0.00035435      -0.00381524       0.01311746
8
Lattice="4.604659901567217 0.0007795757972833652 -0.001861412483312585 -0.0007345145742962666 4.108619783931657 -0.00195784359934467 0.0031937444997187934 0.003958284754763043 8.190469093337478" Properties=species:S:1:pos:R:3:forces:R:3 structure_index=12 total_energy=-24.721378326416016 stress="-0.005053290165960789 -0.00014883402036502957 -0.00040221065864898264 -0.0001488545531174168 -0.01793527416884899 0.0001892408326966688 -0.0004022194189019501 0.00018931571685243398 -0.017759734764695168" pbc="T T T"
Li       0.63699313       2.58260126       3.34608036      -0.00045189      -0.00020390      -0.00446006
Li       0.63808242       0.52973710       5.45240141      -0.00030993      -0.00129000       0.00205327
Li       0.63844363       2.58440149       7.55941954       0.00030545       0.00026924       0.00281680
Li       0.63647773       0.52704393       1.35866534       0.00010874       0.00012723      -0.00066859
Ga       2.93871905       2.58158856       1.35640145      -0.00031393       0.00111259      -0.00059872
Sn       2.93942013       0.52851355       3.35317867       0.00057011       0.00008574       0.03014748
Sn       2.93984500       2.58392198       5.45151262       0.00039012      -0.00026582       0.00057043
Sn       2.94132394       0.53047796       7.55176582      -0.00029868       0.00016493      -0.02986062
10
Lattice="4.613866733765455 -0.0013616505751125785 0.0009093056177579971 -2.3104577545678864 4.000294308125979 -0.0009749616987969543 0.0012223056754576854 0.00017478261864491108 12.020143993135944" Properties=species:S:1:pos:R:3:forces:R:3 structure_index=13 total_energy=-30.25521469116211 stress="0.030132217332720757 0.00033784465631470084 0.0005873147747479379 0.0003378453548066318 0.02953297272324562 -0.00022677876404486597 0.0005874681519344449 -0.00022677978267893195 0.00274285557679832" pbc="T T T"
Li       2.54628675       0.85644341      11.06317956      -0.00066352      -0.00090741      -0.02564800
Li       2.54868450       0.85819168       5.12222022       0.00053989       0.00088573      -0.00143714
Li       2.54693461       0.85977027       7.82240941       0.00310071      -0.00076704       0.00266230
Li       2.54588987       0.85563200       1.88222779      -0.00016729      -0.00083371       0.02367850
Ga       0.24004231       2.19043618       3.30679261      -0.00529048      -0.00204227      -0.02964517
Ga       0.23755839       2.19239486       9.63416777       0.00141830      -0.00406625       0.04083140
Sn       2.54585284       3.52365894       4.04464341       0.00266614       0.00090161       0.02861228
Sn       2.54506247       3.52502139       8.89371523      -0.00416127       0.00281697      -0.02506336
Sn       0.23831630       2.18911725       0.46151759       0.00056504       0.00205713      -0.00664094
Sn       0.24139303       2.19421735       6.47472651       0.00199246       0.00195524      -0.00734986
11
Lattice="4.4744254284670335 0.001798247318144026 -1.3838475459341544 -0.8059538060954752 5.730126496534287 -2.5972583918363528 -0.02806036992342168 0.03674961854590217 7.829757278134353" Properties=species:S:1:pos:R:3:forces:R:3 structure_index=14 total_energy=-28.914398193359375 stress="0.02487824484705925 3.070556704187766e-05 0.002468678168952465 3.064098200411536e-05 0.016517197713255882 -2.242175287392456e-05 0.002468649297952652 -2.2369787984644063e-05 0.030892014503479004" pbc="T T T"
Li       3.03580546       5.47179548      -3.31836600       0.00151794      -0.00997057       0.00501513
Li       2.14465802       0.61980118       1.71736584       0.00045898       0.00606301      -0.00044981
Li      -0.60558452       4.93734097       0.75459103      -0.00071111      -0.00251339      -0.00161069
Li       1.77148309       3.27893932       0.51392631       0.00143571      -0.00590643       0.00393342
Li       2.60518519       2.98660773       3.20869620       0.00116387       0.00234125       0.00163440
Li       0.66180758       1.57430699       4.84556365      -0.00013604      -0.00470312       0.00097955
Li       0.22795183       4.64308534       3.44822606      -0.00060472       0.00659935      -0.00167247
Li       3.46588869       2.41756335      -1.93233929      -0.00097518       0.01034310      -0.00305809
Ga       1.01360511       3.94542316      -1.93265334      -0.00054107      -0.00078175      -0.00147756
Sn       2.95799142       0.04225903       4.34237636       0.00405420       0.00738485       0.01375783
Sn      -0.15171513       2.15023948       2.21943591      -0.00566260      -0.00885629      -0.01705172
12
Lattice="4.718408064463971 0.007353594677463342 -1.0980815041011112 -0.051119992206119756 6.057802391038246 -0.13461129991632995 0.3021627712027798 0.18100427951677903 7.640090039635649" Properties=species:S:1:pos:R:3:forces:R:3 structure_index=15 total_energy=-35.299232482910156 stress="0.025554224848747253 0.0004645681183319539 0.009454648941755295 0.0004645775770768523 0.01290860865265131 -0.002852660370990634 0.009454680606722832 -0.002852619858458638 0.0064503103494644165" pbc="T T T"
Li       0.48301657       5.81890246       6.88740262       0.03293393      -0.00770229       0.00642685
Li       3.91511777       1.31929261       3.43465008      -0.02434596       0.00627371       0.01794225
Li       3.23382971       2.72081020       0.80230286      -0.01828554      -0.00100260      -0.00869471
Li       2.84154425       4.36348646       6.14800014       0.02264019      -0.00676219      -0.03749662
Li       0.95838331       4.20571845       1.76128957       0.00002149       0.01239290       0.02275468
Li       1.58973649       2.79942377       4.22015327      -0.02481004       0.00684703       0.01205149
Ga       1.56573478       5.80423599       4.26595932      -0.00550953       0.01602424      -0.00812475
Ga       3.16797651       5.77375439       0.60193906      -0.01160081      -0.01021466      -0.00574670
Ga       2.84977957       1.23787983       6.15971096       0.01016290      -0.01700232      -0.01219196
Sn       1.03778224       1.11344879       2.02365054       0.00238942       0.01059769      -0.00795278
Sn       0.55254361       2.81114764       6.98782608       0.02784695      -0.01157856       0.01360487
Sn       3.79078295       4.36163647       3.14495088      -0.01144300       0.00212707       0.00742731
9
Lattice="3.860523579954082 0.00046317845525864634 1.255381885014893 2.0945339705675856 6.484542158941477 0.11830463821215263 -0.06551007808548902 0.0035943978085502238 6.763395853438777" Properties=species:S:1:pos:R:3:forces:R:3 structure_index=16 total_energy=-26.366724014282227 stress="0.031586550176143646 -0.005138884764164686 0.01917727291584015 -0.005138869863003492 -0.041348326951265335 0.01422953326255083 0.019177138805389404 0.014229525811970234 -0.02043043076992035" pbc="T T T"
Li       4.66462074       3.98371340       5.47506374       0.00287607       0.02732795      -0.00974341
Li       3.41459901       3.95702467       2.75273058      -0.00593369      -0.00862613       0.02177546
Li       5.40776728       6.33601799       3.19150592       0.00598048       0.00862953      -0.02244421
Li       4.09230830       6.31300388       7.23208059      -0.00300248      -0.02718741       0.01019997
Ga       2.73769122       1.97882519       4.84161115      -0.00859865       0.00790479       0.02132780
Ga       1.43360796       1.90399638       2.28504457       0.00015835       0.00016491      -0.00001091
Ga       3.92452729       1.83336987       7.74744205       0.00870896      -0.00734324      -0.02111062
Sn       2.06601515       3.98714227       6.89815529      -0.00349199       0.00370480       0.01422985
Sn       2.83038137       6.30942150       4.55382065       0.00330294      -0.00457520      -0.01422390
12
Lattice="4.300857641117381 0.004689659591713221 -0.003547140437121509 -0.006881182583331375 6.114442726303686 -0.24633923874596908 0.00783121301381184 -0.2857704527290485 9.396018763545976" Properties=species:S:1:pos:R:3:forces:R:3 structure_index=17 total_energy=-36.81983184814453 stress="-0.010858923196792603 0.00013847205264028162 -2.276867780892644e-05 0.0001385003124596551 -0.015959255397319794 -0.006796839646995068 -2.2798607460572384e-05 -0.0067970771342515945 -0.024039987474679947" pbc="T T T"
Li       2.99859401       2.64418910       9.17153137       0.00055189       0.01657752       0.01214258
Li       2.98978819       5.82936790       2.58806280       0.00075036      -0.00824212      -0.01950047
Li       0.84650274       1.23560285       4.42377221      -0.00014374       0.02082502      -0.01929615