# Thermal properties / unit cell (natom)

unit:
  temperature:   K
  free_energy:   kJ/mol
  entropy:       J/K/mol
  heat_capacity: J/K/mol

natom: 10   
cutoff_frequency: 0.00000
num_modes: 223080
num_integrated_modes: 223080

zero_point_energy:      38.9746533

thermal_properties:
- temperature:         0.0000000
  free_energy:        38.9746533
  entropy:             0.0000000
  heat_capacity:       0.0000000
  energy:             38.9746533

- temperature:        10.0000000
  free_energy:        38.9731085
  entropy:             0.5258706
  heat_capacity:       1.7195065
  energy:             38.9783672

- temperature:        20.0000000
  free_energy:        38.9498511
  entropy:             5.1231834
  heat_capacity:      15.0346432
  energy:             39.0523148

- temperature:        30.0000000
  free_energy:        38.8539388
  entropy:            14.6290750
  heat_capacity:      32.8907457
  energy:             39.2928111

- temperature:        40.0000000
  free_energy:        38.6502326
  entropy:            26.3106718
  heat_capacity:      48.7154051
  energy:             39.7026595

- temperature:        50.0000000
  free_energy:        38.3253671
  entropy:            38.7297070
  heat_capacity:      62.9533827
  energy:             40.2618525

- temperature:        60.0000000
  free_energy:        37.8747873
  entropy:            51.4131047
  heat_capacity:      76.5234661
  energy:             40.9595736

- temperature:        70.0000000
  free_energy:        37.2967422
  entropy:            64.2074173
  heat_capacity:      89.7631877
  energy:             41.7912614

- temperature:        80.0000000
  free_energy:        36.5905158
  entropy:            77.0388842
  heat_capacity:     102.6355200
  energy:             42.7536266

- temperature:        90.0000000
  free_energy:        35.7560465
  entropy:            89.8457356
  heat_capacity:     114.9653930
  energy:             43.8421627

- temperature:       100.0000000
  free_energy:        34.7938886
  entropy:           102.5664370
  heat_capacity:     126.5766388
  energy:             45.0505323

- temperature:       110.0000000
  free_energy:        33.7052003
  entropy:           115.1426120
  heat_capacity:     137.3477544
  energy:             46.3708877

- temperature:       120.0000000
  free_energy:        32.4916890
  entropy:           127.5233346
  heat_capacity:     147.2211820
  energy:             47.7944892

- temperature:       130.0000000
  free_energy:        31.1555233
  entropy:           139.6675151
  heat_capacity:     156.1925215
  energy:             49.3123003

- temperature:       140.0000000
  free_energy:        29.6992310
  entropy:           151.5443463
  heat_capacity:     164.2945482
  energy:             50.9154394

- temperature:       150.0000000
  free_energy:        28.1255995
  entropy:           163.1325158
  heat_capacity:     171.5826304
  energy:             52.5954768

- temperature:       160.0000000
  free_energy:        26.4375875
  entropy:           174.4188359
  heat_capacity:     178.1236003
  energy:             54.3446013

- temperature:       170.0000000
  free_energy:        24.6382514
  entropy:           185.3967216
  heat_capacity:     183.9881068
  energy:             56.1556941

- temperature:       180.0000000
  free_energy:        22.7306864
  entropy:           196.0647482
  heat_capacity:     189.2457746
  energy:             58.0223411

- temperature:       190.0000000
  free_energy:        20.7179814
  entropy:           206.4253964
  heat_capacity:     193.9623964
  energy:             59.9388067

- temperature:       200.0000000
  free_energy:        18.6031855
  entropy:           216.4840122
  heat_capacity:     198.1984966
  energy:             61.8999879

- temperature:       210.0000000
  free_energy:        16.3892835
  entropy:           226.2479734
  heat_capacity:     202.0087750
  energy:             63.9013579

- temperature:       220.0000000
  free_energy:        14.0791791
  entropy:           235.7260381
  heat_capacity:     205.4420841
  energy:             65.9389075

- temperature:       230.0000000
  free_energy:        11.6756836
  entropy:           244.9278445
  heat_capacity:     208.5417097
  energy:             68.0090879

- temperature:       240.0000000
  free_energy:         9.1815093
  entropy:           253.8635325
  heat_capacity:     211.3458070
  energy:             70.1087571

- temperature:       250.0000000
  free_energy:         6.5992655
  entropy:           262.5434624
  heat_capacity:     213.8879005
  energy:             72.2351311

- temperature:       260.0000000
  free_energy:         3.9314580
  entropy:           270.9780085
  heat_capacity:     216.1973928
  energy:             74.3857402

- temperature:       270.0000000
  free_energy:         1.1804891
  entropy:           279.1774102
  heat_capacity:     218.3000512
  energy:             76.5583899

- temperature:       280.0000000
  free_energy:        -1.6513398
  entropy:           287.1516683
  heat_capacity:     220.2184573
  energy:             78.7511273

- temperature:       290.0000000
  free_energy:        -4.5618261
  entropy:           294.9104732
  heat_capacity:     221.9724122
  energy:             80.9622111

- temperature:       300.0000000
  free_energy:        -7.5488622
  entropy:           302.4631593
  heat_capacity:     223.5792955
  energy:             83.1900856

- temperature:       310.0000000
  free_energy:       -10.6104321
  entropy:           309.8186775
  heat_capacity:     225.0543817
  energy:             85.4333579

- temperature:       320.0000000
  free_energy:       -13.7446071
  entropy:           316.9855812
  heat_capacity:     226.4111153
  energy:             87.6907789

- temperature:       330.0000000
  free_energy:       -16.9495422
  entropy:           323.9720231
  heat_capacity:     227.6613506
  energy:             89.9612254

- temperature:       340.0000000
  free_energy:       -20.2234719
  entropy:           330.7857584
  heat_capacity:     228.8155581
  energy:             92.2436859

- temperature:       350.0000000
  free_energy:       -23.5647063
  entropy:           337.4341536
  heat_capacity:     229.8830041
  energy:             94.5372475

- temperature:       360.0000000
  free_energy:       -26.9716272
  entropy:           343.9241986
  heat_capacity:     230.8719047
  energy:             96.8410843

- temperature:       370.0000000
  free_energy:       -30.4426846
  entropy:           350.2625209
  heat_capacity:     231.7895592
  energy:             99.1544481

- temperature:       380.0000000
  free_energy:       -33.9763929
  entropy:           356.4554015
  heat_capacity:     232.6424653
  energy:            101.4766597

- temperature:       390.0000000
  free_energy:       -37.5713277
  entropy:           362.5087915
  heat_capacity:     233.4364188
  energy:            103.8071010

- temperature:       400.0000000
  free_energy:       -41.2261226
  entropy:           368.4283286
  heat_capacity:     234.1765990
  energy:            106.1452089

- temperature:       410.0000000
  free_energy:       -44.9394659
  entropy:           374.2193541
  heat_capacity:     234.8676437
  energy:            108.4904693

- temperature:       420.0000000
  free_energy:       -48.7100982
  entropy:           379.8869287
  heat_capacity:     235.5137134
  energy:            110.8424119

- temperature:       430.0000000
  free_energy:       -52.5368090
  entropy:           385.4358491
  heat_capacity:     236.1185478
  energy:            113.2006061

- temperature:       440.0000000
  free_energy:       -56.4184348
  entropy:           390.8706625
  heat_capacity:     236.6855142
  energy:            115.5646567

- temperature:       450.0000000
  free_energy:       -60.3538563
  entropy:           396.1956814
  heat_capacity:     237.2176504
  energy:            117.9342003

- temperature:       460.0000000
  free_energy:       -64.3419961
  entropy:           401.4149976
  heat_capacity:     237.7177013
  energy:            120.3089028

- temperature:       470.0000000
  free_energy:       -68.3818169
  entropy:           406.5324949
  heat_capacity:     238.1881519
  energy:            122.6884557

- temperature:       480.0000000
  free_energy:       -72.4723189
  entropy:           411.5518617
  heat_capacity:     238.6312553
  energy:            125.0725747

- temperature:       490.0000000
  free_energy:       -76.6125387
  entropy:           416.4766025
  heat_capacity:     239.0490581
  energy:            127.4609965

- temperature:       500.0000000
  free_energy:       -80.8015467
  entropy:           421.3100488
  heat_capacity:     239.4434218
  energy:            129.8534777

- temperature:       510.0000000
  free_energy:       -85.0384459
  entropy:           426.0553695
  heat_capacity:     239.8160426
  energy:            132.2497925

- temperature:       520.0000000
  free_energy:       -89.3223704
  entropy:           430.7155801
  heat_capacity:     240.1684682
  energy:            134.6497313

- temperature:       530.0000000
  free_energy:       -93.6524834
  entropy:           435.2935522
  heat_capacity:     240.5021130
  energy:            137.0530993

- temperature:       540.0000000
  free_energy:       -98.0279764
  entropy:           439.7920216
  heat_capacity:     240.8182713
  energy:            139.4597152

- temperature:       550.0000000
  free_energy:      -102.4480676
  entropy:           444.2135962
  heat_capacity:     241.1181292
  energy:            141.8694104

- temperature:       560.0000000
  free_energy:      -106.9120004
  entropy:           448.5607634
  heat_capacity:     241.4027754
  energy:            144.2820271

- temperature:       570.0000000
  free_energy:      -111.4190427
  entropy:           452.8358969
  heat_capacity:     241.6732100
  energy:            146.6974185

- temperature:       580.0000000
  free_energy:      -115.9684857
  entropy:           457.0412634
  heat_capacity:     241.9303535
  energy:            149.1154470

- temperature:       590.0000000
  free_energy:      -120.5596427
  entropy:           461.1790284
  heat_capacity:     242.1750535
  energy:            151.5359841

- temperature:       600.0000000
  free_energy:      -125.1918479
  entropy:           465.2512619
  heat_capacity:     242.4080921
  energy:            153.9589092

- temperature:       610.0000000
  free_energy:      -129.8644561
  entropy:           469.2599435
  heat_capacity:     242.6301915
  energy:            156.3841095

- temperature:       620.0000000
  free_energy:      -134.5768412
  entropy:           473.2069679
  heat_capacity:     242.8420194
  energy:            158.8114788

- temperature:       630.0000000
  free_energy:      -139.3283960
  entropy:           477.0941487
  heat_capacity:     243.0441937
  energy:            161.2409177

- temperature:       640.0000000
  free_energy:      -144.1185305
  entropy:           480.9232234
  heat_capacity:     243.2372870
  energy:            163.6723324

- temperature:       650.0000000
  free_energy:      -148.9466723
  entropy:           484.6958573
  heat_capacity:     243.4218306
  energy:            166.1056349

- temperature:       660.0000000
  free_energy:      -153.8122649
  entropy:           488.4136471
  heat_capacity:     243.5983176
  energy:            168.5407422

- temperature:       670.0000000
  free_energy:      -158.7147675
  entropy:           492.0781247
  heat_capacity:     243.7672066
  energy:            170.9775760

- temperature:       680.0000000
  free_energy:      -163.6536546
  entropy:           495.6907603
  heat_capacity:     243.9289240
  energy:            173.4160624

- temperature:       690.0000000
  free_energy:      -168.6284147
  entropy:           499.2529660
  heat_capacity:     244.0838673
  energy:            175.8561319

- temperature:       700.0000000
  free_energy:      -173.6385503
  entropy:           502.7660982
  heat_capacity:     244.2324067
  energy:            178.2977184

- temperature:       710.0000000
  free_energy:      -178.6835774
  entropy:           506.2314609
  heat_capacity:     244.3748879
  energy:            180.7407598

- temperature:       720.0000000
  free_energy:      -183.7630245
  entropy:           509.6503077
  heat_capacity:     244.5116336
  energy:            183.1851971

- temperature:       730.0000000
  free_energy:      -188.8764325
  entropy:           513.0238451
  heat_capacity:     244.6429455
  energy:            185.6309744

- temperature:       740.0000000
  free_energy:      -194.0233542
  entropy:           516.3532339
  heat_capacity:     244.7691058
  energy:            188.0780388

- temperature:       750.0000000
  free_energy:      -199.2033538
  entropy:           519.6395920
  heat_capacity:     244.8903788
  energy:            190.5263402

- temperature:       760.0000000
  free_energy:      -204.4160062
  entropy:           522.8839963
  heat_capacity:     245.0070122
  energy:            192.9758309

- temperature:       770.0000000
  free_energy:      -209.6608973
  entropy:           526.0874845
  heat_capacity:     245.1192383
  energy:            195.4264658

- temperature:       780.0000000
  free_energy:      -214.9376229
  entropy:           529.2510572
  heat_capacity:     245.2272749
  energy:            197.8782017

- temperature:       790.0000000
  free_energy:      -220.2457886
  entropy:           532.3756792
  heat_capacity:     245.3313270
  energy:            200.3309980

- temperature:       800.0000000
  free_energy:      -225.5850097
  entropy:           535.4622817
  heat_capacity:     245.4315869
  energy:            202.7848156

- temperature:       810.0000000
  free_energy:      -230.9549105
  entropy:           538.5117632
  heat_capacity:     245.5282357
  energy:            205.2396177

- temperature:       820.0000000
  free_energy:      -236.3551242
  entropy:           541.5249915
  heat_capacity:     245.6214438
  energy:            207.6953689

- temperature:       830.0000000
  free_energy:      -241.7852923
  entropy:           544.5028047
  heat_capacity:     245.7113719
  energy:            210.1520356

- temperature:       840.0000000
  free_energy:      -247.2450649
  entropy:           547.4460128
  heat_capacity:     245.7981712
  energy:            212.6095859

- temperature:       850.0000000
  free_energy:      -252.7340998
  entropy:           550.3553987
  heat_capacity:     245.8819845
  energy:            215.0679891

- temperature:       860.0000000
  free_energy:      -258.2520627
  entropy:           553.2317195
  heat_capacity:     245.9629466
  energy:            217.5272161

- temperature:       870.0000000
  free_energy:      -263.7986264
  entropy:           556.0757074
  heat_capacity:     246.0411847
  energy:            219.9872390

- temperature:       880.0000000
  free_energy:      -269.3734714
  entropy:           558.8880710
  heat_capacity:     246.1168192
  energy:            222.4480311

- temperature:       890.0000000
  free_energy:      -274.9762847
  entropy:           561.6694964
  heat_capacity:     246.1899636
  energy:            224.9095670

- temperature:       900.0000000
  free_energy:      -280.6067604
  entropy:           564.4206476
  heat_capacity:     246.2607258
  energy:            227.3718224

- temperature:       910.0000000
  free_energy:      -286.2645989
  entropy:           567.1421680
  heat_capacity:     246.3292075
  energy:            229.8347740

- temperature:       920.0000000
  free_energy:      -291.9495071
  entropy:           569.8346808
  heat_capacity:     246.3955053
  energy:            232.2983993

- temperature:       930.0000000
  free_energy:      -297.6611979
  entropy:           572.4987903
  heat_capacity:     246.4597108
  energy:            234.7626771

- temperature:       940.0000000
  free_energy:      -303.3993902
  entropy:           575.1350819
  heat_capacity:     246.5219107
  energy:            237.2275868

- temperature:       950.0000000
  free_energy:      -309.1638087
  entropy:           577.7441237
  heat_capacity:     246.5821872
  energy:            239.6931089

- temperature:       960.0000000
  free_energy:      -314.9541836
  entropy:           580.3264667
  heat_capacity:     246.6406187
  energy:            242.1592244

- temperature:       970.0000000
  free_energy:      -320.7702508
  entropy:           582.8826455
  heat_capacity:     246.6972794
  energy:            244.6259154

- temperature:       980.0000000
  free_energy:      -326.6117511
  entropy:           585.4131790
  heat_capacity:     246.7522398
  energy:            247.0931643

- temperature:       990.0000000
  free_energy:      -332.4784306
  entropy:           587.9185710
  heat_capacity:     246.8055671
  energy:            249.5609547

- temperature:      1000.0000000
  free_energy:      -338.3700403
  entropy:           590.3993108
  heat_capacity:     246.8573251
  energy:            252.0292705
