# Thermal properties / unit cell (natom)

unit:
  temperature:   K
  free_energy:   kJ/mol
  entropy:       J/K/mol
  heat_capacity: J/K/mol

natom: 9    
cutoff_frequency: 0.00000
num_modes: 171072
num_integrated_modes: 169382

zero_point_energy:      28.2953454

thermal_properties:
- temperature:         0.0000000
  free_energy:        28.2953454
  entropy:             0.0000000
  heat_capacity:       0.0000000
  energy:             28.2953454

- temperature:        10.0000000
  free_energy:        28.2830573
  entropy:             3.7490998
  heat_capacity:       7.6230480
  energy:             28.3205483

- temperature:        20.0000000
  free_energy:        28.1962383
  entropy:            14.6085198
  heat_capacity:      27.0815880
  energy:             28.4884087

- temperature:        30.0000000
  free_energy:        27.9772886
  entropy:            29.5511621
  heat_capacity:      47.3887499
  energy:             28.8638234

- temperature:        40.0000000
  free_energy:        27.6021574
  entropy:            45.4841042
  heat_capacity:      63.5095476
  energy:             29.4215215

- temperature:        50.0000000
  free_energy:        27.0686870
  entropy:            61.1257805
  heat_capacity:      76.9022095
  energy:             30.1249760

- temperature:        60.0000000
  free_energy:        26.3814001
  entropy:            76.2474126
  heat_capacity:      89.2572912
  energy:             30.9562448

- temperature:        70.0000000
  free_energy:        25.5452793
  entropy:            90.9063819
  heat_capacity:     101.1731385
  energy:             31.9087260

- temperature:        80.0000000
  free_energy:        24.5645875
  entropy:           105.1692625
  heat_capacity:     112.6106626
  energy:             32.9781285

- temperature:        90.0000000
  free_energy:        23.4431273
  entropy:           119.0611904
  heat_capacity:     123.3586487
  energy:             34.1586345

- temperature:       100.0000000
  free_energy:        22.1846128
  entropy:           132.5780580
  heat_capacity:     133.2449950
  energy:             35.4424186

- temperature:       110.0000000
  free_energy:        20.7928671
  entropy:           145.7046708
  heat_capacity:     142.1879536
  energy:             36.8203809

- temperature:       120.0000000
  free_energy:        19.2718703
  entropy:           158.4262058
  heat_capacity:     150.1837909
  energy:             38.2830150

- temperature:       130.0000000
  free_energy:        17.6257253
  entropy:           170.7333009
  heat_capacity:     157.2797930
  energy:             39.8210544

- temperature:       140.0000000
  free_energy:        15.8585952
  entropy:           182.6233109
  heat_capacity:     163.5505048
  energy:             41.4258588

- temperature:       150.0000000
  free_energy:        13.9746382
  entropy:           194.0997302
  heat_capacity:     169.0812033
  energy:             43.0895977

- temperature:       160.0000000
  free_energy:        11.9779517
  entropy:           205.1709461
  heat_capacity:     173.9578007
  energy:             44.8053031

- temperature:       170.0000000
  free_energy:         9.8725304
  entropy:           215.8489057
  heat_capacity:     178.2613306
  energy:             46.5668444

- temperature:       180.0000000
  free_energy:         7.6622368
  entropy:           226.1479377
  heat_capacity:     182.0653609
  energy:             48.3688656

- temperature:       190.0000000
  free_energy:         5.3507823
  entropy:           236.0838039
  heat_capacity:     185.4351421
  energy:             50.2067050

- temperature:       200.0000000
  free_energy:         2.9417164
  entropy:           245.6729777
  heat_capacity:     188.4277148
  energy:             52.0763119

- temperature:       210.0000000
  free_energy:         0.4384228
  entropy:           254.9321173
  heat_capacity:     191.0924998
  energy:             53.9741675

- temperature:       220.0000000
  free_energy:        -2.1558808
  entropy:           263.8776943
  heat_capacity:     193.4720908
  energy:             55.8972120

- temperature:       230.0000000
  free_energy:        -4.8381394
  entropy:           272.5257417
  heat_capacity:     195.6030956
  energy:             57.8427812

- temperature:       240.0000000
  free_energy:        -7.6054554
  entropy:           280.8916911
  heat_capacity:     197.5169433
  energy:             59.8085505

- temperature:       250.0000000
  free_energy:       -10.4550820
  entropy:           288.9902746
  heat_capacity:     199.2406207
  energy:             61.7924866

- temperature:       260.0000000
  free_energy:       -13.3844163
  entropy:           296.8354731
  heat_capacity:     200.7973219
  energy:             63.7928067

- temperature:       270.0000000
  free_energy:       -16.3909910
  entropy:           304.4404975
  heat_capacity:     202.2070127
  energy:             65.8079433

- temperature:       280.0000000
  free_energy:       -19.4724673
  entropy:           311.8177922
  heat_capacity:     203.4869136
  energy:             67.8365146

- temperature:       290.0000000
  free_energy:       -22.6266268
  entropy:           318.9790539
  heat_capacity:     204.6519106
  energy:             69.8772988

- temperature:       300.0000000
  free_energy:       -25.8513649
  entropy:           325.9352595
  heat_capacity:     205.7149034
  energy:             71.9292130

- temperature:       310.0000000
  free_energy:       -29.1446829
  entropy:           332.6967008
  heat_capacity:     206.6870984
  energy:             73.9912944

- temperature:       320.0000000
  free_energy:       -32.5046819
  entropy:           339.2730214
  heat_capacity:     207.5782571
  energy:             76.0626849

- temperature:       330.0000000
  free_energy:       -35.9295564
  entropy:           345.6732555
  heat_capacity:     208.3969047
  energy:             78.1426179

- temperature:       340.0000000
  free_energy:       -39.4175883
  entropy:           351.9058666
  heat_capacity:     209.1505066
  energy:             80.2304063

- temperature:       350.0000000
  free_energy:       -42.9671415
  entropy:           357.9787847
  heat_capacity:     209.8456172
  energy:             82.3254332

- temperature:       360.0000000
  free_energy:       -46.5766565
  entropy:           363.8994432
  heat_capacity:     210.4880062
  energy:             84.4271430

- temperature:       370.0000000
  free_energy:       -50.2446461
  entropy:           369.6748127
  heat_capacity:     211.0827656
  energy:             86.5350346

- temperature:       380.0000000
  free_energy:       -53.9696903
  entropy:           375.3114341
  heat_capacity:     211.6344003
  energy:             88.6486546

- temperature:       390.0000000
  free_energy:       -57.7504328
  entropy:           380.8154488
  heat_capacity:     212.1469059
  energy:             90.7675922

- temperature:       400.0000000
  free_energy:       -61.5855766
  entropy:           386.1926269
  heat_capacity:     212.6238344
  energy:             92.8914742

- temperature:       410.0000000
  free_energy:       -65.4738807
  entropy:           391.4483941
  heat_capacity:     213.0683511
  energy:             95.0199609

- temperature:       420.0000000
  free_energy:       -69.4141568
  entropy:           396.5878558
  heat_capacity:     213.4832827
  energy:             97.1527426

- temperature:       430.0000000
  free_energy:       -73.4052662
  entropy:           401.6158199
  heat_capacity:     213.8711593
  energy:             99.2895364

- temperature:       440.0000000
  free_energy:       -77.4461167
  entropy:           406.5368179
  heat_capacity:     214.2342505
  energy:            101.4300832

- temperature:       450.0000000
  free_energy:       -81.5356602
  entropy:           411.3551241
  heat_capacity:     214.5745961
  energy:            103.5741456

- temperature:       460.0000000
  free_energy:       -85.6728903
  entropy:           416.0747735
  heat_capacity:     214.8940330
  energy:            105.7215055

- temperature:       470.0000000
  free_energy:       -89.8568396
  entropy:           420.6995781
  heat_capacity:     215.1942189
  energy:            107.8719621

- temperature:       480.0000000
  free_energy:       -94.0865778
  entropy:           425.2331426
  heat_capacity:     215.4766525
  energy:            110.0253307

- temperature:       490.0000000
  free_energy:       -98.3612097
  entropy:           429.6788780
  heat_capacity:     215.7426910
  energy:            112.1814405

- temperature:       500.0000000
  free_energy:      -102.6798734
  entropy:           434.0400147
  heat_capacity:     215.9935660
  energy:            114.3401340

- temperature:       510.0000000
  free_energy:      -107.0417382
  entropy:           438.3196143
  heat_capacity:     216.2303967
  energy:            116.5012651

- temperature:       520.0000000
  free_energy:      -111.4460036
  entropy:           442.5205809
  heat_capacity:     216.4542019
  energy:            118.6646985

- temperature:       530.0000000
  free_energy:      -115.8918969
  entropy:           446.6456711
  heat_capacity:     216.6659107
  energy:            120.8303088

- temperature:       540.0000000
  free_energy:      -120.3786728
  entropy:           450.6975038
  heat_capacity:     216.8663717
  energy:            122.9979792

- temperature:       550.0000000
  free_energy:      -124.9056111
  entropy:           454.6785681
  heat_capacity:     217.0563608
  energy:            125.1676013

- temperature:       560.0000000
  free_energy:      -129.4720162
  entropy:           458.5912323
  heat_capacity:     217.2365888
  energy:            127.3390739

- temperature:       570.0000000
  free_energy:      -134.0772153
  entropy:           462.4377509
  heat_capacity:     217.4077079
  energy:            129.5123027

- temperature:       580.0000000
  free_energy:      -138.7205579
  entropy:           466.2202717
  heat_capacity:     217.5703169
  energy:            131.6871997

- temperature:       590.0000000
  free_energy:      -143.4014142
  entropy:           469.9408420
  heat_capacity:     217.7249667
  energy:            133.8636825

- temperature:       600.0000000
  free_energy:      -148.1191747
  entropy:           473.6014149
  heat_capacity:     217.8721646
  energy:            136.0416742

- temperature:       610.0000000
  free_energy:      -152.8732488
  entropy:           477.2038546
  heat_capacity:     218.0123786
  energy:            138.2211026

- temperature:       620.0000000
  free_energy:      -157.6630640
  entropy:           480.7499418
  heat_capacity:     218.1460405
  energy:            140.4018999

- temperature:       630.0000000
  free_energy:      -162.4880654
  entropy:           484.2413783
  heat_capacity:     218.2735498
  energy:            142.5840029

- temperature:       640.0000000
  free_energy:      -167.3477148
  entropy:           487.6797914
  heat_capacity:     218.3952758
  energy:            144.7673517

- temperature:       650.0000000
  free_energy:      -172.2414897
  entropy:           491.0667384
  heat_capacity:     218.5115610
  energy:            146.9518902

- temperature:       660.0000000
  free_energy:      -177.1688830
  entropy:           494.4037103
  heat_capacity:     218.6227231
  energy:            149.1375658

- temperature:       670.0000000
  free_energy:      -182.1294021
  entropy:           497.6921354
  heat_capacity:     218.7290567
  energy:            151.3243286

- temperature:       680.0000000
  free_energy:      -187.1225685
  entropy:           500.9333827
  heat_capacity:     218.8308361
  energy:            153.5121318

- temperature:       690.0000000
  free_energy:      -192.1479169
  entropy:           504.1287651
  heat_capacity:     218.9283162
  energy:            155.7009310

- temperature:       700.0000000
  free_energy:      -197.2049951
  entropy:           507.2795423
  heat_capacity:     219.0217345
  energy:            157.8906846

- temperature:       710.0000000
  free_energy:      -202.2933631
  entropy:           510.3869239
  heat_capacity:     219.1113125
  energy:            160.0813529

- temperature:       720.0000000
  free_energy:      -207.4125928
  entropy:           513.4520715
  heat_capacity:     219.1972568
  energy:            162.2728987

- temperature:       730.0000000
  free_energy:      -212.5622675
  entropy:           516.4761014
  heat_capacity:     219.2797603
  energy:            164.4652866

- temperature:       740.0000000
  free_energy:      -217.7419813
  entropy:           519.4600870
  heat_capacity:     219.3590034
  energy:            166.6584830

- temperature:       750.0000000
  free_energy:      -222.9513392
  entropy:           522.4050607
  heat_capacity:     219.4351549
  energy:            168.8524563

- temperature:       760.0000000
  free_energy:      -228.1899558
  entropy:           525.3120160
  heat_capacity:     219.5083729
  energy:            171.0471764

- temperature:       770.0000000
  free_energy:      -233.4574560
  entropy:           528.1819097
  heat_capacity:     219.5788054
  energy:            173.2426145

- temperature:       780.0000000
  free_energy:      -238.7534736
  entropy:           531.0156631
  heat_capacity:     219.6465913
  energy:            175.4387436

- temperature:       790.0000000
  free_energy:      -244.0776517
  entropy:           533.8141641
  heat_capacity:     219.7118612
  energy:            177.6355379

- temperature:       800.0000000
  free_energy:      -249.4296422
  entropy:           536.5782689
  heat_capacity:     219.7747375
  energy:            179.8329729

- temperature:       810.0000000
  free_energy:      -254.8091052
  entropy:           539.3088028
  heat_capacity:     219.8353353
  energy:            182.0310251

- temperature:       820.0000000
  free_energy:      -260.2157090
  entropy:           542.0065626
  heat_capacity:     219.8937630
  energy:            184.2296724

- temperature:       830.0000000
  free_energy:      -265.6491298
  entropy:           544.6723172
  heat_capacity:     219.9501227
  energy:            186.4288935

- temperature:       840.0000000
  free_energy:      -271.1090511
  entropy:           547.3068088
  heat_capacity:     220.0045104
  energy:            188.6286682

- temperature:       850.0000000
  free_energy:      -276.5951641
  entropy:           549.9107547
  heat_capacity:     220.0570167
  energy:            190.8289774

- temperature:       860.0000000
  free_energy:      -282.1071667
  entropy:           552.4848480
  heat_capacity:     220.1077272
  energy:            193.0298026

- temperature:       870.0000000
  free_energy:      -287.6447638
  entropy:           555.0297587
  heat_capacity:     220.1567225
  energy:            195.2311262

- temperature:       880.0000000
  free_energy:      -293.2076668
  entropy:           557.5461345
  heat_capacity:     220.2040788
  energy:            197.4329316

- temperature:       890.0000000
  free_energy:      -298.7955935
  entropy:           560.0346023
  heat_capacity:     220.2498683
  energy:            199.6352026

- temperature:       900.0000000
  free_energy:      -304.4082678
  entropy:           562.4957686
  heat_capacity:     220.2941590
  energy:            201.8379239

- temperature:       910.0000000
  free_energy:      -310.0454198
  entropy:           564.9302207
  heat_capacity:     220.3370155
  energy:            204.0410810

- temperature:       920.0000000
  free_energy:      -315.7067851
  entropy:           567.3385269
  heat_capacity:     220.3784989
  energy:            206.2446597

- temperature:       930.0000000
  free_energy:      -321.3921050
  entropy:           569.7212383
  heat_capacity:     220.4186669
  energy:            208.4486466

- temperature:       940.0000000
  free_energy:      -327.1011263
  entropy:           572.0788885
  heat_capacity:     220.4575746
  energy:            210.6530288

- temperature:       950.0000000
  free_energy:      -332.8336010
  entropy:           574.4119948
  heat_capacity:     220.4952738
  energy:            212.8577940

- temperature:       960.0000000
  free_energy:      -338.5892861
  entropy:           576.7210589
  heat_capacity:     220.5318141
  energy:            215.0629304

- temperature:       970.0000000
  free_energy:      -344.3679437
  entropy:           579.0065673
  heat_capacity:     220.5672422
  energy:            217.2684266

- temperature:       980.0000000
  free_energy:      -350.1693405
  entropy:           581.2689920
  heat_capacity:     220.6016028
  energy:            219.4742717

- temperature:       990.0000000
  free_energy:      -355.9932481
  entropy:           583.5087912
  heat_capacity:     220.6349383
  energy:            221.6804553

- temperature:      1000.0000000
  free_energy:      -361.8394424
  entropy:           585.7264096
  heat_capacity:     220.6672888
  energy:            223.8869672
