# Thermal properties / unit cell (natom)

unit:
  temperature:   K
  free_energy:   kJ/mol
  entropy:       J/K/mol
  heat_capacity: J/K/mol

natom: 14   
cutoff_frequency: 0.00000
num_modes: 155526
num_integrated_modes: 155524

zero_point_energy:      44.9200146

thermal_properties:
- temperature:         0.0000000
  free_energy:        44.9200146
  entropy:             0.0000000
  heat_capacity:       0.0000000
  energy:             44.9200146

- temperature:        10.0000000
  free_energy:        44.9160159
  entropy:             1.5866613
  heat_capacity:       5.0398863
  energy:             44.9318826

- temperature:        20.0000000
  free_energy:        44.8545535
  entropy:            12.7305264
  heat_capacity:      33.7714478
  energy:             45.1091641

- temperature:        30.0000000
  free_energy:        44.6301594
  entropy:            33.1136662
  heat_capacity:      68.2284217
  energy:             45.6235694

- temperature:        40.0000000
  free_energy:        44.1821912
  entropy:            56.6680128
  heat_capacity:      95.7032334
  energy:             46.4489117

- temperature:        50.0000000
  free_energy:        43.4960923
  entropy:            80.5017945
  heat_capacity:     118.2174197
  energy:             47.5211820

- temperature:        60.0000000
  free_energy:        42.5737403
  entropy:           103.8776487
  heat_capacity:     138.6062895
  energy:             48.8063993

- temperature:        70.0000000
  free_energy:        41.4203667
  entropy:           126.7072360
  heat_capacity:     157.9324926
  energy:             50.2898733

- temperature:        80.0000000
  free_energy:        40.0413678
  entropy:           149.0041367
  heat_capacity:     176.2458290
  energy:             51.9616987

- temperature:        90.0000000
  free_energy:        38.4420796
  entropy:           170.7615659
  heat_capacity:     193.3104781
  energy:             53.8106206

- temperature:       100.0000000
  free_energy:        36.6280315
  entropy:           191.9503338
  heat_capacity:     208.9263294
  energy:             55.8230649

- temperature:       110.0000000
  free_energy:        34.6050846
  entropy:           212.5358551
  heat_capacity:     223.0101599
  energy:             57.9840287

- temperature:       120.0000000
  free_energy:        32.3794202
  entropy:           232.4900195
  heat_capacity:     235.5825841
  energy:             60.2782226

- temperature:       130.0000000
  free_energy:        29.9574459
  entropy:           251.7960618
  heat_capacity:     246.7322477
  energy:             62.6909340

- temperature:       140.0000000
  free_energy:        27.3456771
  entropy:           270.4490062
  heat_capacity:     256.5834433
  energy:             65.2085380

- temperature:       150.0000000
  free_energy:        24.5506264
  entropy:           288.4540377
  heat_capacity:     265.2733404
  energy:             67.8187321

- temperature:       160.0000000
  free_energy:        21.5787132
  entropy:           305.8242206
  heat_capacity:     272.9380255
  energy:             70.5105885

- temperature:       170.0000000
  free_energy:        18.4361962
  entropy:           322.5782652
  heat_capacity:     279.7049077
  energy:             73.2745013

- temperature:       180.0000000
  free_energy:        15.1291271
  entropy:           338.7386250
  heat_capacity:     285.6892291
  energy:             76.1020796

- temperature:       190.0000000
  free_energy:        11.6633205
  entropy:           354.3299916
  heat_capacity:     290.9930202
  energy:             78.9860189

- temperature:       200.0000000
  free_energy:         8.0443379
  entropy:           369.3781602
  heat_capacity:     295.7054105
  energy:             81.9199700

- temperature:       210.0000000
  free_energy:         4.2774810
  entropy:           383.9092064
  heat_capacity:     299.9036140
  energy:             84.8984143

- temperature:       220.0000000
  free_energy:         0.3677915
  entropy:           397.9489076
  heat_capacity:     303.6541951
  energy:             87.9165512

- temperature:       230.0000000
  free_energy:        -3.6799431
  entropy:           411.5223518
  heat_capacity:     307.0143888
  energy:             90.9701978

- temperature:       240.0000000
  free_energy:        -7.8611819
  entropy:           424.6536844
  heat_capacity:     310.0333615
  energy:             94.0557023

- temperature:       250.0000000
  free_energy:       -12.1716201
  entropy:           437.3659566
  heat_capacity:     312.7533555
  energy:             97.1698691

- temperature:       260.0000000
  free_energy:       -16.6071773
  entropy:           449.6810452
  heat_capacity:     315.2107003
  energy:            100.3098945

- temperature:       270.0000000
  free_energy:       -21.1639861
  entropy:           461.6196239
  heat_capacity:     317.4366881
  energy:            103.4733124

- temperature:       280.0000000
  free_energy:       -25.8383797
  entropy:           473.2011688
  heat_capacity:     319.4583254
  energy:            106.6579475

- temperature:       290.0000000
  free_energy:       -30.6268805
  entropy:           484.4439876
  heat_capacity:     321.2989715
  energy:            109.8618759

- temperature:       300.0000000
  free_energy:       -35.5261878
  entropy:           495.3652642
  heat_capacity:     322.9788800
  energy:            113.0833914

- temperature:       310.0000000
  free_energy:       -40.5331678
  entropy:           505.9811111
  heat_capacity:     324.5156560
  energy:            116.3209767

- temperature:       320.0000000
  free_energy:       -45.6448424
  entropy:           516.3066287
  heat_capacity:     325.9246421
  energy:            119.5732788

- temperature:       330.0000000
  free_energy:       -50.8583798
  entropy:           526.3559644
  heat_capacity:     327.2192443
  energy:            122.8390884

- temperature:       340.0000000
  free_energy:       -56.1710853
  entropy:           536.1423737
  heat_capacity:     328.4112074
  energy:            126.1173217

- temperature:       350.0000000
  free_energy:       -61.5803924
  entropy:           545.6782781
  heat_capacity:     329.5108474
  energy:            129.4070050

- temperature:       360.0000000
  free_energy:       -67.0838548
  entropy:           554.9753225
  heat_capacity:     330.5272488
  energy:            132.7072613

- temperature:       370.0000000
  free_energy:       -72.6791391
  entropy:           564.0444282
  heat_capacity:     331.4684322
  energy:            136.0172993

- temperature:       380.0000000
  free_energy:       -78.3640178
  entropy:           572.8958441
  heat_capacity:     332.3414958
  energy:            139.3364030

- temperature:       390.0000000
  free_energy:       -84.1363625
  entropy:           581.5391942
  heat_capacity:     333.1527374
  energy:            142.6639232

- temperature:       400.0000000
  free_energy:       -89.9941383
  entropy:           589.9835218
  heat_capacity:     333.9077575
  energy:            145.9992704

- temperature:       410.0000000
  free_energy:       -95.9353979
  entropy:           598.2373308
  heat_capacity:     334.6115480
  energy:            149.3419077

- temperature:       420.0000000
  free_energy:      -101.9582766
  entropy:           606.3086241
  heat_capacity:     335.2685686
  energy:            152.6913455

- temperature:       430.0000000
  free_energy:      -108.0609872
  entropy:           614.2049389
  heat_capacity:     335.8828116
  energy:            156.0471365

- temperature:       440.0000000
  free_energy:      -114.2418158
  entropy:           621.9333795
  heat_capacity:     336.4578592
  energy:            159.4088711

- temperature:       450.0000000
  free_energy:      -120.4991176
  entropy:           629.5006476
  heat_capacity:     336.9969316
  energy:            162.7761738

- temperature:       460.0000000
  free_energy:      -126.8313127
  entropy:           636.9130700
  heat_capacity:     337.5029296
  energy:            166.1486995

- temperature:       470.0000000
  free_energy:      -133.2368828
  entropy:           644.1766249
  heat_capacity:     337.9784714
  energy:            169.5261309

- temperature:       480.0000000
  free_energy:      -139.7143678
  entropy:           651.2969650
  heat_capacity:     338.4259242
  energy:            172.9081754

- temperature:       490.0000000
  free_energy:      -146.2623626
  entropy:           658.2794398
  heat_capacity:     338.8474327
  energy:            176.2945629

- temperature:       500.0000000
  free_energy:      -152.8795140
  entropy:           665.1291161
  heat_capacity:     339.2449428
  energy:            179.6850440

- temperature:       510.0000000
  free_energy:      -159.5645183
  entropy:           671.8507961
  heat_capacity:     339.6202236
  energy:            183.0793877

- temperature:       520.0000000
  free_energy:      -166.3161185
  entropy:           678.4490351
  heat_capacity:     339.9748855
  energy:            186.4773798

- temperature:       530.0000000
  free_energy:      -173.1331020
  entropy:           684.9281576
  heat_capacity:     340.3103976
  energy:            189.8788216

- temperature:       540.0000000
  free_energy:      -180.0142983
  entropy:           691.2922716
  heat_capacity:     340.6281013
  energy:            193.2835284

- temperature:       550.0000000
  free_energy:      -186.9585771
  entropy:           697.5452826
  heat_capacity:     340.9292240
  energy:            196.6913284

- temperature:       560.0000000
  free_energy:      -193.9648460
  entropy:           703.6909060
  heat_capacity:     341.2148898
  energy:            200.1020614

- temperature:       570.0000000
  free_energy:      -201.0320490
  entropy:           709.7326792
  heat_capacity:     341.4861302
  energy:            203.5155781

- temperature:       580.0000000
  free_energy:      -208.1591647
  entropy:           715.6739719
  heat_capacity:     341.7438927
  energy:            206.9317391

- temperature:       590.0000000
  free_energy:      -215.3452043
  entropy:           721.5179969
  heat_capacity:     341.9890487
  energy:            210.3504139

- temperature:       600.0000000
  free_energy:      -222.5892106
  entropy:           727.2678188
  heat_capacity:     342.2224012
  energy:            213.7714807

- temperature:       610.0000000
  free_energy:      -229.8902564
  entropy:           732.9263631
  heat_capacity:     342.4446904
  energy:            217.1948251

- temperature:       620.0000000
  free_energy:      -237.2474429
  entropy:           738.4964239
  heat_capacity:     342.6566001
  energy:            220.6203399

- temperature:       630.0000000
  free_energy:      -244.6598988
  entropy:           743.9806721
  heat_capacity:     342.8587621
  energy:            224.0479246

- temperature:       640.0000000
  free_energy:      -252.1267789
  entropy:           749.3816617
  heat_capacity:     343.0517614
  energy:            227.4774846

- temperature:       650.0000000
  free_energy:      -259.6472627
  entropy:           754.7018366
  heat_capacity:     343.2361401
  energy:            230.9089311

- temperature:       660.0000000
  free_energy:      -267.2205540
  entropy:           759.9435370
  heat_capacity:     343.4124009
  energy:            234.3421804

- temperature:       670.0000000
  free_energy:      -274.8458793
  entropy:           765.1090044
  heat_capacity:     343.5810106
  energy:            237.7771536

- temperature:       680.0000000
  free_energy:      -282.5224872
  entropy:           770.2003878
  heat_capacity:     343.7424032
  energy:            241.2137765

- temperature:       690.0000000
  free_energy:      -290.2496470
  entropy:           775.2197478
  heat_capacity:     343.8969826
  energy:            244.6519790

- temperature:       700.0000000
  free_energy:      -298.0266487
  entropy:           780.1690620
  heat_capacity:     344.0451248
  energy:            248.0916947

- temperature:       710.0000000
  free_energy:      -305.8528011
  entropy:           785.0502286
  heat_capacity:     344.1871804
  energy:            251.5328612

- temperature:       720.0000000
  free_energy:      -313.7274322
  entropy:           789.8650712
  heat_capacity:     344.3234768
  energy:            254.9754191

- temperature:       730.0000000
  free_energy:      -321.6498873
  entropy:           794.6153423
  heat_capacity:     344.4543195
  energy:            258.4193125

- temperature:       740.0000000
  free_energy:      -329.6195294
  entropy:           799.3027266
  heat_capacity:     344.5799943
  energy:            261.8644883

- temperature:       750.0000000
  free_energy:      -337.6357376
  entropy:           803.9288450
  heat_capacity:     344.7007685
  energy:            265.3108961

- temperature:       760.0000000
  free_energy:      -345.6979073
  entropy:           808.4952572
  heat_capacity:     344.8168925
  energy:            268.7584882

- temperature:       770.0000000
  free_energy:      -353.8054488
  entropy:           813.0034649
  heat_capacity:     344.9286009
  energy:            272.2072192

- temperature:       780.0000000
  free_energy:      -361.9577874
  entropy:           817.4549149
  heat_capacity:     345.0361139
  energy:            275.6570462

- temperature:       790.0000000
  free_energy:      -370.1543625
  entropy:           821.8510009
  heat_capacity:     345.1396380
  energy:            279.1079282

- temperature:       800.0000000
  free_energy:      -378.3946273
  entropy:           826.1930671
  heat_capacity:     345.2393673
  energy:            282.5598263

- temperature:       810.0000000
  free_energy:      -386.6780481
  entropy:           830.4824094
  heat_capacity:     345.3354843
  energy:            286.0127035

- temperature:       820.0000000
  free_energy:      -395.0041040
  entropy:           834.7202786
  heat_capacity:     345.4281608
  energy:            289.4665245

- temperature:       830.0000000
  free_energy:      -403.3722862
  entropy:           838.9078819
  heat_capacity:     345.5175583
  energy:            292.9212558

- temperature:       840.0000000
  free_energy:      -411.7820979
  entropy:           843.0463848
  heat_capacity:     345.6038292
  energy:            296.3768653

- temperature:       850.0000000
  free_energy:      -420.2330539
  entropy:           847.1369134
  heat_capacity:     345.6871170
  energy:            299.8333224

- temperature:       860.0000000
  free_energy:      -428.7246799
  entropy:           851.1805559
  heat_capacity:     345.7675573
  energy:            303.2905981

- temperature:       870.0000000
  free_energy:      -437.2565123
  entropy:           855.1783641
  heat_capacity:     345.8452779
  energy:            306.7486645

- temperature:       880.0000000
  free_energy:      -445.8280978
  entropy:           859.1313555
  heat_capacity:     345.9203996
  energy:            310.2074950

- temperature:       890.0000000
  free_energy:      -454.4389933
  entropy:           863.0405141
  heat_capacity:     345.9930367
  energy:            313.6670642

- temperature:       900.0000000
  free_energy:      -463.0887652
  entropy:           866.9067922
  heat_capacity:     346.0632972
  energy:            317.1273478

- temperature:       910.0000000
  free_energy:      -471.7769893
  entropy:           870.7311119
  heat_capacity:     346.1312833
  energy:            320.5883226

- temperature:       920.0000000
  free_energy:      -480.5032505
  entropy:           874.5143660
  heat_capacity:     346.1970918
  energy:            324.0499662

- temperature:       930.0000000
  free_energy:      -489.2671426
  entropy:           878.2574194
  heat_capacity:     346.2608145
  energy:            327.5122575

- temperature:       940.0000000
  free_energy:      -498.0682677
  entropy:           881.9611102
  heat_capacity:     346.3225383
  energy:            330.9751759

- temperature:       950.0000000
  free_energy:      -506.9062363
  entropy:           885.6262507
  heat_capacity:     346.3823457
  energy:            334.4387019

- temperature:       960.0000000
  free_energy:      -515.7806668
  entropy:           889.2536286
  heat_capacity:     346.4403150
  energy:            337.9028167

- temperature:       970.0000000
  free_energy:      -524.6911855
  entropy:           892.8440081
  heat_capacity:     346.4965206
  energy:            341.3675023

- temperature:       980.0000000
  free_energy:      -533.6374261
  entropy:           896.3981302
  heat_capacity:     346.5510331
  energy:            344.8327414

- temperature:       990.0000000
  free_energy:      -542.6190297
  entropy:           899.9167144
  heat_capacity:     346.6039196
  energy:            348.2985175

- temperature:      1000.0000000
  free_energy:      -551.6356443
  entropy:           903.4004589
  heat_capacity:     346.6552440
  energy:            351.7648146
