# Thermal properties / unit cell (natom)

unit:
  temperature:   K
  free_energy:   kJ/mol
  entropy:       J/K/mol
  heat_capacity: J/K/mol

natom: 6    
cutoff_frequency: 0.00000
num_modes: 145080
num_integrated_modes: 144919

zero_point_energy:      17.2678602

thermal_properties:
- temperature:         0.0000000
  free_energy:        17.2678602
  entropy:             0.0000000
  heat_capacity:       0.0000000
  energy:             17.2678602

- temperature:        10.0000000
  free_energy:        17.2643068
  entropy:             1.2128407
  heat_capacity:       3.2429984
  energy:             17.2764352

- temperature:        20.0000000
  free_energy:        17.2245361
  entropy:             7.8647906
  heat_capacity:      19.5683578
  energy:             17.3818319

- temperature:        30.0000000
  free_energy:        17.0907873
  entropy:            19.3212578
  heat_capacity:      37.3583740
  energy:             17.6704250

- temperature:        40.0000000
  free_energy:        16.8346133
  entropy:            31.9210514
  heat_capacity:      50.1189831
  energy:             18.1114554

- temperature:        50.0000000
  free_energy:        16.4536219
  entropy:            44.1810396
  heat_capacity:      59.8070560
  energy:             18.6626739

- temperature:        60.0000000
  free_energy:        15.9530119
  entropy:            55.8431778
  heat_capacity:      68.2549493
  energy:             19.3036026

- temperature:        70.0000000
  free_energy:        15.3385685
  entropy:            66.9622563
  heat_capacity:      76.1306713
  energy:             20.0259265

- temperature:        80.0000000
  free_energy:        14.6153140
  entropy:            77.6160274
  heat_capacity:      83.5161846
  energy:             20.8245962

- temperature:        90.0000000
  free_energy:        13.7876366
  entropy:            87.8524272
  heat_capacity:      90.3339584
  energy:             21.6943550

- temperature:       100.0000000
  free_energy:        12.8595744
  entropy:            97.6957677
  heat_capacity:      96.5162632
  energy:             22.6291512

- temperature:       110.0000000
  free_energy:        11.8349875
  entropy:           107.1591407
  heat_capacity:     102.0437713
  energy:             23.6224929

- temperature:       120.0000000
  free_energy:        10.7176254
  entropy:           116.2524119
  heat_capacity:     106.9385595
  energy:             24.6679148

- temperature:       130.0000000
  free_energy:         9.5111386
  entropy:           124.9859459
  heat_capacity:     111.2479329
  energy:             25.7593115

- temperature:       140.0000000
  free_energy:         8.2190656
  entropy:           133.3718038
  heat_capacity:     115.0307669
  energy:             26.8911181

- temperature:       150.0000000
  free_energy:         6.8448157
  entropy:           141.4237409
  heat_capacity:     118.3484939
  energy:             28.0583768

- temperature:       160.0000000
  free_energy:         5.3916539
  entropy:           149.1567528
  heat_capacity:     121.2599582
  energy:             29.2567344

- temperature:       170.0000000
  free_energy:         3.8626914
  entropy:           156.5865302
  heat_capacity:     123.8188880
  energy:             30.4824016

- temperature:       180.0000000
  free_energy:         2.2608811
  entropy:           163.7289752
  heat_capacity:     126.0729565
  energy:             31.7320966

- temperature:       190.0000000
  free_energy:         0.5890172
  entropy:           170.5998235
  heat_capacity:     128.0637284
  energy:             33.0029837

- temperature:       200.0000000
  free_energy:        -1.1502611
  entropy:           177.2143737
  heat_capacity:     129.8270578
  energy:             34.2926136

- temperature:       210.0000000
  free_energy:        -2.9544650
  entropy:           183.5873076
  heat_capacity:     131.3936788
  energy:             35.5988696

- temperature:       220.0000000
  free_energy:        -4.8212485
  entropy:           189.7325816
  heat_capacity:     132.7898492
  energy:             36.9199194

- temperature:       230.0000000
  free_energy:        -6.7484017
  entropy:           195.6633705
  heat_capacity:     134.0379729
  energy:             38.2541735

- temperature:       240.0000000
  free_energy:        -8.7338423
  entropy:           201.3920489
  heat_capacity:     135.1571662
  energy:             39.6002494

- temperature:       250.0000000
  free_energy:       -10.7756077
  entropy:           206.9301977
  heat_capacity:     136.1637572
  energy:             40.9569417

- temperature:       260.0000000
  free_energy:       -12.8718473
  entropy:           212.2886281
  heat_capacity:     137.0717160
  energy:             42.3231960

- temperature:       270.0000000
  free_energy:       -15.0208149
  entropy:           217.4774158
  heat_capacity:     137.8930206
  energy:             43.6980874

- temperature:       280.0000000
  free_energy:       -17.2208615
  entropy:           222.5059412
  heat_capacity:     138.6379660
  energy:             45.0808021

- temperature:       290.0000000
  free_energy:       -19.4704286
  entropy:           227.3829329
  heat_capacity:     139.3154249
  energy:             46.4706219

- temperature:       300.0000000
  free_energy:       -21.7680421
  entropy:           232.1165114
  heat_capacity:     139.9330648
  energy:             47.8669113

- temperature:       310.0000000
  free_energy:       -24.1123061
  entropy:           236.7142326
  heat_capacity:     140.4975308
  energy:             49.2691060

- temperature:       320.0000000
  free_energy:       -26.5018974
  entropy:           241.1831294
  heat_capacity:     141.0145986
  energy:             50.6767040

- temperature:       330.0000000
  free_energy:       -28.9355611
  entropy:           245.5297515
  heat_capacity:     141.4893026
  energy:             52.0892569

- temperature:       340.0000000
  free_energy:       -31.4121053
  entropy:           249.7602024
  heat_capacity:     141.9260434
  energy:             53.5063636

- temperature:       350.0000000
  free_energy:       -33.9303970
  entropy:           253.8801745
  heat_capacity:     142.3286786
  energy:             54.9276641

- temperature:       360.0000000
  free_energy:       -36.4893582
  entropy:           257.8949807
  heat_capacity:     142.7005991
  energy:             56.3528348

- temperature:       370.0000000
  free_energy:       -39.0879626
  entropy:           261.8095846
  heat_capacity:     143.0447931
  energy:             57.7815837

- temperature:       380.0000000
  free_energy:       -41.7252314
  entropy:           265.6286276
  heat_capacity:     143.3639016
  energy:             59.2136471

- temperature:       390.0000000
  free_energy:       -44.4002311
  entropy:           269.3564540
  heat_capacity:     143.6602639
  energy:             60.6487859

- temperature:       400.0000000
  free_energy:       -47.1120701
  entropy:           272.9971338
  heat_capacity:     143.9359579
  energy:             62.0867835

- temperature:       410.0000000
  free_energy:       -49.8598961
  entropy:           276.5544840
  heat_capacity:     144.1928331
  energy:             63.5274424

- temperature:       420.0000000
  free_energy:       -52.6428939
  entropy:           280.0320878
  heat_capacity:     144.4325401
  energy:             64.9705829

- temperature:       430.0000000
  free_energy:       -55.4602832
  entropy:           283.4333120
  heat_capacity:     144.6565548
  energy:             66.4160409

- temperature:       440.0000000
  free_energy:       -58.3113162
  entropy:           286.7613234
  heat_capacity:     144.8662003
  energy:             67.8636661

- temperature:       450.0000000
  free_energy:       -61.1952756
  entropy:           290.0191036
  heat_capacity:     145.0626647
  energy:             69.3133210

- temperature:       460.0000000
  free_energy:       -64.1114735
  entropy:           293.2094621
  heat_capacity:     145.2470176
  energy:             70.7648791

- temperature:       470.0000000
  free_energy:       -67.0592490
  entropy:           296.3350493
  heat_capacity:     145.4202234
  energy:             72.2182242

- temperature:       480.0000000
  free_energy:       -70.0379669
  entropy:           299.3983672
  heat_capacity:     145.5831534
  energy:             73.6732493

- temperature:       490.0000000
  free_energy:       -73.0470167
  entropy:           302.4017802
  heat_capacity:     145.7365966
  energy:             75.1298556

- temperature:       500.0000000
  free_energy:       -76.0858103
  entropy:           305.3475247
  heat_capacity:     145.8812681
  energy:             76.5879520

- temperature:       510.0000000
  free_energy:       -79.1537820
  entropy:           308.2377175
  heat_capacity:     146.0178179
  energy:             78.0474539

- temperature:       520.0000000
  free_energy:       -82.2503862
  entropy:           311.0743644
  heat_capacity:     146.1468372
  energy:             79.5082833

- temperature:       530.0000000
  free_energy:       -85.3750971
  entropy:           313.8593670
  heat_capacity:     146.2688650
  energy:             80.9703674

- temperature:       540.0000000
  free_energy:       -88.5274074
  entropy:           316.5945302
  heat_capacity:     146.3843933
  energy:             82.4336389

- temperature:       550.0000000
  free_energy:       -91.7068273
  entropy:           319.2815680
  heat_capacity:     146.4938720
  energy:             83.8980351

- temperature:       560.0000000
  free_energy:       -94.9128838
  entropy:           321.9221096
  heat_capacity:     146.5977128
  energy:             85.3634976

- temperature:       570.0000000
  free_energy:       -98.1451197
  entropy:           324.5177044
  heat_capacity:     146.6962936
  energy:             86.8299718

- temperature:       580.0000000
  free_energy:      -101.4030930
  entropy:           327.0698277
  heat_capacity:     146.7899611
  energy:             88.2974071

- temperature:       590.0000000
  free_energy:      -104.6863760
  entropy:           329.5798844
  heat_capacity:     146.8790343
  energy:             89.7657557

- temperature:       600.0000000
  free_energy:      -107.9945549
  entropy:           332.0492139
  heat_capacity:     146.9638068
  energy:             91.2349734

- temperature:       610.0000000
  free_energy:      -111.3272288
  entropy:           334.4790939
  heat_capacity:     147.0445492
  energy:             92.7050184

- temperature:       620.0000000
  free_energy:      -114.6840094
  entropy:           336.8707438
  heat_capacity:     147.1215115
  energy:             94.1758518

- temperature:       630.0000000
  free_energy:      -118.0645202
  entropy:           339.2253286
  heat_capacity:     147.1949246
  energy:             95.6474368

- temperature:       640.0000000
  free_energy:      -121.4683961
  entropy:           341.5439614
  heat_capacity:     147.2650021
  energy:             97.1197392

- temperature:       650.0000000
  free_energy:      -124.8952831
  entropy:           343.8277070
  heat_capacity:     147.3319419
  energy:             98.5927264

- temperature:       660.0000000
  free_energy:      -128.3448374
  entropy:           346.0775841
  heat_capacity:     147.3959276
  energy:            100.0663682

- temperature:       670.0000000
  free_energy:      -131.8167252
  entropy:           348.2945684
  heat_capacity:     147.4571296
  energy:            101.5406357

- temperature:       680.0000000
  free_energy:      -135.3106222
  entropy:           350.4795944
  heat_capacity:     147.5157061
  energy:            103.0155020

- temperature:       690.0000000
  free_energy:      -138.8262135
  entropy:           352.6335581
  heat_capacity:     147.5718046
  energy:            104.4909416

- temperature:       700.0000000
  free_energy:      -142.3631927
  entropy:           354.7573186
  heat_capacity:     147.6255620
  energy:            105.9669303

- temperature:       710.0000000
  free_energy:      -145.9212619
  entropy:           356.8517005
  heat_capacity:     147.6771064
  energy:            107.4434454

- temperature:       720.0000000
  free_energy:      -149.5001314
  entropy:           358.9174957
  heat_capacity:     147.7265570
  energy:            108.9204654

- temperature:       730.0000000
  free_energy:      -153.0995191
  entropy:           360.9554645
  heat_capacity:     147.7740251
  energy:            110.3979700

- temperature:       740.0000000
  free_energy:      -156.7191504
  entropy:           362.9663380
  heat_capacity:     147.8196148
  energy:            111.8759397

- temperature:       750.0000000
  free_energy:      -160.3587579
  entropy:           364.9508190
  heat_capacity:     147.8634237
  energy:            113.3543563

- temperature:       760.0000000
  free_energy:      -164.0180811
  entropy:           366.9095837
  heat_capacity:     147.9055427
  energy:            114.8332025

- temperature:       770.0000000
  free_energy:      -167.6968660
  entropy:           368.8432829
  heat_capacity:     147.9460575
  energy:            116.3124618

- temperature:       780.0000000
  free_energy:      -171.3948653
  entropy:           370.7525434
  heat_capacity:     147.9850481
  energy:            117.7921186

- temperature:       790.0000000
  free_energy:      -175.1118374
  entropy:           372.6379689
  heat_capacity:     148.0225897
  energy:            119.2721580

- temperature:       800.0000000
  free_energy:      -178.8475471
  entropy:           374.5001412
  heat_capacity:     148.0587531
  energy:            120.7525658

- temperature:       810.0000000
  free_energy:      -182.6017646
  entropy:           376.3396213
  heat_capacity:     148.0936045
  energy:            122.2333286

- temperature:       820.0000000
  free_energy:      -186.3742657
  entropy:           378.1569505
  heat_capacity:     148.1272065
  energy:            123.7144337

- temperature:       830.0000000
  free_energy:      -190.1648315
  entropy:           379.9526510
  heat_capacity:     148.1596180
  energy:            125.1958688

- temperature:       840.0000000
  free_energy:      -193.9732483
  entropy:           381.7272269
  heat_capacity:     148.1908942
  energy:            126.6776223

- temperature:       850.0000000
  free_energy:      -197.7993073
  entropy:           383.4811651
  heat_capacity:     148.2210874
  energy:            128.1596831

- temperature:       860.0000000
  free_energy:      -201.6428044
  entropy:           385.2149361
  heat_capacity:     148.2502469
  energy:            129.6420406

- temperature:       870.0000000
  free_energy:      -205.5035403
  entropy:           386.9289943
  heat_capacity:     148.2784192
  energy:            131.1246847

- temperature:       880.0000000
  free_energy:      -209.3813201
  entropy:           388.6237794
  heat_capacity:     148.3056483
  energy:            132.6076058

- temperature:       890.0000000
  free_energy:      -213.2759531
  entropy:           390.2997166
  heat_capacity:     148.3319756
  energy:            134.0907947

- temperature:       900.0000000
  free_energy:      -217.1872529
  entropy:           391.9572171
  heat_capacity:     148.3574404
  energy:            135.5742425

- temperature:       910.0000000
  free_energy:      -221.1150373
  entropy:           393.5966792
  heat_capacity:     148.3820799
  energy:            137.0579407

- temperature:       920.0000000
  free_energy:      -225.0591277
  entropy:           395.2184882
  heat_capacity:     148.4059292
  energy:            138.5418814

- temperature:       930.0000000
  free_energy:      -229.0193495
  entropy:           396.8230175
  heat_capacity:     148.4290217
  energy:            140.0260568

- temperature:       940.0000000
  free_energy:      -232.9955316
  entropy:           398.4106288
  heat_capacity:     148.4513890
  energy:            141.5104595

- temperature:       950.0000000
  free_energy:      -236.9875068
  entropy:           399.9816727
  heat_capacity:     148.4730611
  energy:            142.9950823

- temperature:       960.0000000
  free_energy:      -240.9951110
  entropy:           401.5364890
  heat_capacity:     148.4940664
  energy:            144.4799185

- temperature:       970.0000000
  free_energy:      -245.0181836
  entropy:           403.0754073
  heat_capacity:     148.5144319
  energy:            145.9649615

- temperature:       980.0000000
  free_energy:      -249.0565672
  entropy:           404.5987472
  heat_capacity:     148.5341833
  energy:            147.4502050

- temperature:       990.0000000
  free_energy:      -253.1101076
  entropy:           406.1068190
  heat_capacity:     148.5533450
  energy:            148.9356432

- temperature:      1000.0000000
  free_energy:      -257.1786537
  entropy:           407.5999238
  heat_capacity:     148.5719400
  energy:            150.4212701
