phonopy:
  version: "2.37.1"
  frequency_unit_conversion_factor: 15.633302
  symmetry_tolerance: 1.00000e-05

space_group:
  type: "P2/m"
  number: 10
  Hall_symbol: "-P 2y"

primitive_matrix:
- [ -0.000000000000000,  1.000000000000000,  0.000000000000000 ]
- [ -1.000000000000000,  0.000000000000000,  0.000000000000000 ]
- [  0.000000000000000,  0.000000000000000,  1.000000000000000 ]

supercell_matrix:
- [   4,   0,   0 ]
- [   0,   2,   0 ]
- [   0,   0,   2 ]

primitive_cell:
  lattice:
  - [     0.000000065194850,    -5.266562857635630,     0.000000000000000 ] # a
  - [     3.180796401387078,     0.000000000000000,     0.000000000000000 ] # b
  - [    -0.000000331361131,     1.864855808001965,     7.543384183980455 ] # c
  points:
  - symbol: Li # 1
    coordinates: [  0.732779686537258,  0.500000000810332,  0.669040262923813 ]
    mass: 6.940000
  - symbol: Li # 2
    coordinates: [  0.499999995292751,  0.499999999513240,  0.999999999785555 ]
    mass: 6.940000
  - symbol: Li # 3
    coordinates: [  0.267220306085607,  0.500000001352221,  0.330959734427774 ]
    mass: 6.940000
  - symbol: Sn # 4
    coordinates: [  0.759608144691031,  0.999999997952034,  0.337603163360407 ]
    mass: 118.710000
  - symbol: Sn # 5
    coordinates: [  0.240391860175048,  0.999999999682315,  0.662396834941099 ]
    mass: 118.710000
  - symbol: Sn # 6
    coordinates: [  0.000000007138107,  0.000000000741129,  0.000000004576030 ]
    mass: 118.710000
  reciprocal_lattice: # without 2pi
  - [     0.000000000000000,    -0.189877160309626,     0.046940937459118 ] # a*
  - [     0.314386673590275,     0.000000003891797,     0.000000012848064 ] # b*
  - [     0.000000000000000,    -0.000000000000000,     0.132566494773480 ] # c*

unit_cell:
  lattice:
  - [     3.180796401387077,     0.000000000000000,     0.000000000000000 ] # a
  - [    -0.000000065194851,     5.266562857635630,     0.000000000000000 ] # b
  - [    -0.000000331361131,     1.864855808001965,     7.543384183980455 ] # c
  points:
  - symbol: Li # 1
    coordinates: [  0.500000000810332,  0.267220313462742,  0.669040262923813 ]
    mass: 6.940000
    reduced_to: 1
  - symbol: Li # 2
    coordinates: [  0.499999999513240,  0.500000004707250,  0.999999999785555 ]
    mass: 6.940000
    reduced_to: 2
  - symbol: Li # 3
    coordinates: [  0.500000001352221,  0.732779693914393,  0.330959734427774 ]
    mass: 6.940000
    reduced_to: 3
  - symbol: Sn # 4
    coordinates: [  0.999999997952034,  0.240391855308969,  0.337603163360407 ]
    mass: 118.710000
    reduced_to: 4
  - symbol: Sn # 5
    coordinates: [  0.999999999682315,  0.759608139824953,  0.662396834941099 ]
    mass: 118.710000
    reduced_to: 5
  - symbol: Sn # 6
    coordinates: [  0.000000000741129,  0.999999992861894,  0.000000004576030 ]
    mass: 118.710000
    reduced_to: 6

supercell:
  lattice:
  - [    12.723185605548307,     0.000000000000000,     0.000000000000000 ] # a
  - [    -0.000000130389701,    10.533125715271259,     0.000000000000000 ] # b
  - [    -0.000000662722262,     3.729711616003931,    15.086768367960911 ] # c
  points:
  - symbol: Li # 1
    coordinates: [  0.125000000202583,  0.133610156731371,  0.334520131461907 ]
    mass: 6.940000
    reduced_to: 1
  - symbol: Li # 2
    coordinates: [  0.375000000202583,  0.133610156731371,  0.334520131461907 ]
    mass: 6.940000
    reduced_to: 1
  - symbol: Li # 3
    coordinates: [  0.625000000202583,  0.133610156731371,  0.334520131461907 ]
    mass: 6.940000
    reduced_to: 1
  - symbol: Li # 4
    coordinates: [  0.875000000202583,  0.133610156731371,  0.334520131461907 ]
    mass: 6.940000
    reduced_to: 1
  - symbol: Li # 5
    coordinates: [  0.125000000202583,  0.633610156731371,  0.334520131461907 ]
    mass: 6.940000
    reduced_to: 1
  - symbol: Li # 6
    coordinates: [  0.375000000202583,  0.633610156731371,  0.334520131461907 ]
    mass: 6.940000
    reduced_to: 1
  - symbol: Li # 7
    coordinates: [  0.625000000202583,  0.633610156731371,  0.334520131461907 ]
    mass: 6.940000
    reduced_to: 1
  - symbol: Li # 8
    coordinates: [  0.875000000202583,  0.633610156731371,  0.334520131461907 ]
    mass: 6.940000
    reduced_to: 1
  - symbol: Li # 9
    coordinates: [  0.125000000202583,  0.133610156731371,  0.834520131461907 ]
    mass: 6.940000
    reduced_to: 1
  - symbol: Li # 10
    coordinates: [  0.375000000202583,  0.133610156731371,  0.834520131461907 ]
    mass: 6.940000
    reduced_to: 1
  - symbol: Li # 11
    coordinates: [  0.625000000202583,  0.133610156731371,  0.834520131461907 ]
    mass: 6.940000
    reduced_to: 1
  - symbol: Li # 12
    coordinates: [  0.875000000202583,  0.133610156731371,  0.834520131461907 ]
    mass: 6.940000
    reduced_to: 1
  - symbol: Li # 13
    coordinates: [  0.125000000202583,  0.633610156731371,  0.834520131461907 ]
    mass: 6.940000
    reduced_to: 1
  - symbol: Li # 14
    coordinates: [  0.375000000202583,  0.633610156731371,  0.834520131461907 ]
    mass: 6.940000
    reduced_to: 1
  - symbol: Li # 15
    coordinates: [  0.625000000202583,  0.633610156731371,  0.834520131461907 ]
    mass: 6.940000
    reduced_to: 1
  - symbol: Li # 16
    coordinates: [  0.875000000202583,  0.633610156731371,  0.834520131461907 ]
    mass: 6.940000
    reduced_to: 1
  - symbol: Li # 17
    coordinates: [  0.124999999878310,  0.250000002353625,  0.499999999892778 ]
    mass: 6.940000
    reduced_to: 17
  - symbol: Li # 18
    coordinates: [  0.374999999878310,  0.250000002353625,  0.499999999892778 ]
    mass: 6.940000
    reduced_to: 17
  - symbol: Li # 19
    coordinates: [  0.624999999878310,  0.250000002353625,  0.499999999892778 ]
    mass: 6.940000
    reduced_to: 17
  - symbol: Li # 20
    coordinates: [  0.874999999878310,  0.250000002353625,  0.499999999892778 ]
    mass: 6.940000
    reduced_to: 17
  - symbol: Li # 21
    coordinates: [  0.124999999878310,  0.750000002353625,  0.499999999892778 ]
    mass: 6.940000
    reduced_to: 17
  - symbol: Li # 22
    coordinates: [  0.374999999878310,  0.750000002353625,  0.499999999892778 ]
    mass: 6.940000
    reduced_to: 17
  - symbol: Li # 23
    coordinates: [  0.624999999878310,  0.750000002353625,  0.499999999892778 ]
    mass: 6.940000
    reduced_to: 17
  - symbol: Li # 24
    coordinates: [  0.874999999878310,  0.750000002353625,  0.499999999892778 ]
    mass: 6.940000
    reduced_to: 17
  - symbol: Li # 25
    coordinates: [  0.124999999878310,  0.250000002353625,  0.999999999892778 ]
    mass: 6.940000
    reduced_to: 17
  - symbol: Li # 26
    coordinates: [  0.374999999878310,  0.250000002353625,  0.999999999892778 ]
    mass: 6.940000
    reduced_to: 17
  - symbol: Li # 27
    coordinates: [  0.624999999878310,  0.250000002353625,  0.999999999892778 ]
    mass: 6.940000
    reduced_to: 17
  - symbol: Li # 28
    coordinates: [  0.874999999878310,  0.250000002353625,  0.999999999892778 ]
    mass: 6.940000
    reduced_to: 17
  - symbol: Li # 29
    coordinates: [  0.124999999878310,  0.750000002353625,  0.999999999892778 ]
    mass: 6.940000
    reduced_to: 17
  - symbol: Li # 30
    coordinates: [  0.374999999878310,  0.750000002353625,  0.999999999892778 ]
    mass: 6.940000
    reduced_to: 17
  - symbol: Li # 31
    coordinates: [  0.624999999878310,  0.750000002353625,  0.999999999892778 ]
    mass: 6.940000
    reduced_to: 17
  - symbol: Li # 32
    coordinates: [  0.874999999878310,  0.750000002353625,  0.999999999892778 ]
    mass: 6.940000
    reduced_to: 17
  - symbol: Li # 33
    coordinates: [  0.125000000338055,  0.366389846957196,  0.165479867213887 ]
    mass: 6.940000
    reduced_to: 33
  - symbol: Li # 34
    coordinates: [  0.375000000338055,  0.366389846957196,  0.165479867213887 ]
    mass: 6.940000
    reduced_to: 33
  - symbol: Li # 35
    coordinates: [  0.625000000338055,  0.366389846957196,  0.165479867213887 ]
    mass: 6.940000
    reduced_to: 33
  - symbol: Li # 36
    coordinates: [  0.875000000338055,  0.366389846957196,  0.165479867213887 ]
    mass: 6.940000
    reduced_to: 33
  - symbol: Li # 37
    coordinates: [  0.125000000338055,  0.866389846957196,  0.165479867213887 ]
    mass: 6.940000
    reduced_to: 33
  - symbol: Li # 38
    coordinates: [  0.375000000338055,  0.866389846957196,  0.165479867213887 ]
    mass: 6.940000
    reduced_to: 33
  - symbol: Li # 39
    coordinates: [  0.625000000338055,  0.866389846957196,  0.165479867213887 ]
    mass: 6.940000
    reduced_to: 33
  - symbol: Li # 40
    coordinates: [  0.875000000338055,  0.866389846957196,  0.165479867213887 ]
    mass: 6.940000
    reduced_to: 33
  - symbol: Li # 41
    coordinates: [  0.125000000338055,  0.366389846957196,  0.665479867213887 ]
    mass: 6.940000
    reduced_to: 33
  - symbol: Li # 42
    coordinates: [  0.375000000338055,  0.366389846957196,  0.665479867213887 ]
    mass: 6.940000
    reduced_to: 33
  - symbol: Li # 43
    coordinates: [  0.625000000338055,  0.366389846957196,  0.665479867213887 ]
    mass: 6.940000
    reduced_to: 33
  - symbol: Li # 44
    coordinates: [  0.875000000338055,  0.366389846957196,  0.665479867213887 ]
    mass: 6.940000
    reduced_to: 33
  - symbol: Li # 45
    coordinates: [  0.125000000338055,  0.866389846957196,  0.665479867213887 ]
    mass: 6.940000
    reduced_to: 33
  - symbol: Li # 46
    coordinates: [  0.375000000338055,  0.866389846957196,  0.665479867213887 ]
    mass: 6.940000
    reduced_to: 33
  - symbol: Li # 47
    coordinates: [  0.625000000338055,  0.866389846957196,  0.665479867213887 ]
    mass: 6.940000
    reduced_to: 33
  - symbol: Li # 48
    coordinates: [  0.875000000338055,  0.866389846957196,  0.665479867213887 ]
    mass: 6.940000
    reduced_to: 33
  - symbol: Sn # 49
    coordinates: [  0.249999999488008,  0.120195927654484,  0.168801581680204 ]
    mass: 118.710000
    reduced_to: 49
  - symbol: Sn # 50
    coordinates: [  0.499999999488008,  0.120195927654484,  0.168801581680204 ]
    mass: 118.710000
    reduced_to: 49
  - symbol: Sn # 51
    coordinates: [  0.749999999488008,  0.120195927654484,  0.168801581680204 ]
    mass: 118.710000
    reduced_to: 49
  - symbol: Sn # 52
    coordinates: [  0.999999999488008,  0.120195927654484,  0.168801581680204 ]
    mass: 118.710000
    reduced_to: 49
  - symbol: Sn # 53
    coordinates: [  0.249999999488008,  0.620195927654484,  0.168801581680204 ]
    mass: 118.710000
    reduced_to: 49
  - symbol: Sn # 54
    coordinates: [  0.499999999488008,  0.620195927654484,  0.168801581680204 ]
    mass: 118.710000
    reduced_to: 49
  - symbol: Sn # 55
    coordinates: [  0.749999999488008,  0.620195927654484,  0.168801581680204 ]
    mass: 118.710000
    reduced_to: 49
  - symbol: Sn # 56
    coordinates: [  0.999999999488008,  0.620195927654484,  0.168801581680204 ]
    mass: 118.710000
    reduced_to: 49
  - symbol: Sn # 57
    coordinates: [  0.249999999488008,  0.120195927654484,  0.668801581680204 ]
    mass: 118.710000
    reduced_to: 49
  - symbol: Sn # 58
    coordinates: [  0.499999999488008,  0.120195927654484,  0.668801581680204 ]
    mass: 118.710000
    reduced_to: 49
  - symbol: Sn # 59
    coordinates: [  0.749999999488008,  0.120195927654484,  0.668801581680204 ]
    mass: 118.710000
    reduced_to: 49
  - symbol: Sn # 60
    coordinates: [  0.999999999488008,  0.120195927654484,  0.668801581680204 ]
    mass: 118.710000
    reduced_to: 49
  - symbol: Sn # 61
    coordinates: [  0.249999999488008,  0.620195927654484,  0.668801581680204 ]
    mass: 118.710000
    reduced_to: 49
  - symbol: Sn # 62
    coordinates: [  0.499999999488008,  0.620195927654484,  0.668801581680204 ]
    mass: 118.710000
    reduced_to: 49
  - symbol: Sn # 63
    coordinates: [  0.749999999488008,  0.620195927654484,  0.668801581680204 ]
    mass: 118.710000
    reduced_to: 49
  - symbol: Sn # 64
    coordinates: [  0.999999999488008,  0.620195927654484,  0.668801581680204 ]
    mass: 118.710000
    reduced_to: 49
  - symbol: Sn # 65
    coordinates: [  0.249999999920579,  0.379804069912476,  0.331198417470549 ]
    mass: 118.710000
    reduced_to: 65
  - symbol: Sn # 66
    coordinates: [  0.499999999920579,  0.379804069912476,  0.331198417470549 ]
    mass: 118.710000
    reduced_to: 65
  - symbol: Sn # 67
    coordinates: [  0.749999999920579,  0.379804069912476,  0.331198417470549 ]
    mass: 118.710000
    reduced_to: 65
  - symbol: Sn # 68
    coordinates: [  0.999999999920579,  0.379804069912476,  0.331198417470549 ]
    mass: 118.710000
    reduced_to: 65
  - symbol: Sn # 69
    coordinates: [  0.249999999920579,  0.879804069912476,  0.331198417470549 ]
    mass: 118.710000
    reduced_to: 65
  - symbol: Sn # 70
    coordinates: [  0.499999999920579,  0.879804069912476,  0.331198417470549 ]
    mass: 118.710000
    reduced_to: 65
  - symbol: Sn # 71
    coordinates: [  0.749999999920579,  0.879804069912476,  0.331198417470549 ]
    mass: 118.710000
    reduced_to: 65
  - symbol: Sn # 72
    coordinates: [  0.999999999920579,  0.879804069912476,  0.331198417470549 ]
    mass: 118.710000
    reduced_to: 65
  - symbol: Sn # 73
    coordinates: [  0.249999999920579,  0.379804069912476,  0.831198417470549 ]
    mass: 118.710000
    reduced_to: 65
  - symbol: Sn # 74
    coordinates: [  0.499999999920579,  0.379804069912476,  0.831198417470549 ]
    mass: 118.710000
    reduced_to: 65
  - symbol: Sn # 75
    coordinates: [  0.749999999920579,  0.379804069912476,  0.831198417470549 ]
    mass: 118.710000
    reduced_to: 65
  - symbol: Sn # 76
    coordinates: [  0.999999999920579,  0.379804069912476,  0.831198417470549 ]
    mass: 118.710000
    reduced_to: 65
  - symbol: Sn # 77
    coordinates: [  0.249999999920579,  0.879804069912476,  0.831198417470549 ]
    mass: 118.710000
    reduced_to: 65
  - symbol: Sn # 78
    coordinates: [  0.499999999920579,  0.879804069912476,  0.831198417470549 ]
    mass: 118.710000
    reduced_to: 65
  - symbol: Sn # 79
    coordinates: [  0.749999999920579,  0.879804069912476,  0.831198417470549 ]
    mass: 118.710000
    reduced_to: 65
  - symbol: Sn # 80
    coordinates: [  0.999999999920579,  0.879804069912476,  0.831198417470549 ]
    mass: 118.710000
    reduced_to: 65
  - symbol: Sn # 81
    coordinates: [  0.000000000185282,  0.499999996430947,  0.000000002288015 ]
    mass: 118.710000
    reduced_to: 81
  - symbol: Sn # 82
    coordinates: [  0.250000000185282,  0.499999996430947,  0.000000002288015 ]
    mass: 118.710000
    reduced_to: 81
  - symbol: Sn # 83
    coordinates: [  0.500000000185282,  0.499999996430947,  0.000000002288015 ]
    mass: 118.710000
    reduced_to: 81
  - symbol: Sn # 84
    coordinates: [  0.750000000185282,  0.499999996430947,  0.000000002288015 ]
    mass: 118.710000
    reduced_to: 81
  - symbol: Sn # 85
    coordinates: [  0.000000000185282,  0.999999996430947,  0.000000002288015 ]
    mass: 118.710000
    reduced_to: 81
  - symbol: Sn # 86
    coordinates: [  0.250000000185282,  0.999999996430947,  0.000000002288015 ]
    mass: 118.710000
    reduced_to: 81
  - symbol: Sn # 87
    coordinates: [  0.500000000185282,  0.999999996430947,  0.000000002288015 ]
    mass: 118.710000
    reduced_to: 81
  - symbol: Sn # 88
    coordinates: [  0.750000000185282,  0.999999996430947,  0.000000002288015 ]
    mass: 118.710000
    reduced_to: 81
  - symbol: Sn # 89
    coordinates: [  0.000000000185282,  0.499999996430947,  0.500000002288015 ]
    mass: 118.710000
    reduced_to: 81
  - symbol: Sn # 90
    coordinates: [  0.250000000185282,  0.499999996430947,  0.500000002288015 ]
    mass: 118.710000
    reduced_to: 81
  - symbol: Sn # 91
    coordinates: [  0.500000000185282,  0.499999996430947,  0.500000002288015 ]
    mass: 118.710000
    reduced_to: 81
  - symbol: Sn # 92
    coordinates: [  0.750000000185282,  0.499999996430947,  0.500000002288015 ]
    mass: 118.710000
    reduced_to: 81
  - symbol: Sn # 93
    coordinates: [  0.000000000185282,  0.999999996430947,  0.500000002288015 ]
    mass: 118.710000
    reduced_to: 81
  - symbol: Sn # 94
    coordinates: [  0.250000000185282,  0.999999996430947,  0.500000002288015 ]
    mass: 118.710000
    reduced_to: 81
  - symbol: Sn # 95
    coordinates: [  0.500000000185282,  0.999999996430947,  0.500000002288015 ]
    mass: 118.710000
    reduced_to: 81
  - symbol: Sn # 96
    coordinates: [  0.750000000185282,  0.999999996430947,  0.500000002288015 ]
    mass: 118.710000
    reduced_to: 81

displacements:
- atom:    1
  displacement:
    [   0.0077028746818923,  0.0063769680597493,  0.0000000000000000 ]
  forces:
  - [  -0.0088396370410919,  0.0822665840387344,  0.0259708315134048 ]
  - [   0.0008535245433450,  0.0919587165117264,  0.0261056423187256 ]
  - [  -0.0002557248808444,  0.0919792205095291,  0.0262033473700285 ]
  - [   0.0006375031080097,  0.0921702533960342,  0.0262745954096317 ]
  - [   0.0002007749862969,  0.0914180576801300,  0.0261878594756126 ]
  - [  -0.0003071422688663,  0.0913091525435448,  0.0261777751147747 ]
  - [   0.0000362182036042,  0.0920069143176079,  0.0262035988271236 ]
  - [  -0.0001946089905687,  0.0911895781755447,  0.0262100920081139 ]
  - [  -0.0000164960511029,  0.0920140147209167,  0.0261838957667351 ]
  - [   0.0000037662684917,  0.0920409858226776,  0.0261921342462301 ]
  - [  -0.0000101318582892,  0.0920256972312927,  0.0261991042643785 ]
  - [   0.0000231219455600,  0.0920178443193436,  0.0262013543397188 ]
  - [   0.0000131605193019,  0.0920205116271973,  0.0262035112828016 ]
  - [   0.0000010668300092,  0.0920302346348763,  0.0262038521468639 ]
  - [  -0.0000115088187158,  0.0920257568359375,  0.0262107364833355 ]
  - [  -0.0000025315675884,  0.0920348688960075,  0.0261940490454435 ]
  - [  -0.0001137684812420,  0.0004385677166283,  0.0006154407747090 ]
  - [   0.0000716444337741,  0.0002384905237705, -0.0001105042174459 ]
  - [   0.0000206809490919, -0.0000072128605098, -0.0000115567818284 ]
  - [   0.0000491633545607,  0.0002581628505141, -0.0000799656845629 ]
  - [  -0.0002230798127130,  0.0001538917422295, -0.0002875571371987 ]
  - [   0.0000326159643009,  0.0000203999225050,  0.0000162189826369 ]
  - [  -0.0000011567026377,  0.0000078806187958,  0.0000065565109253 ]
  - [  -0.0001368592493236, -0.0003309219609946,  0.0002309083938599 ]
  - [  -0.0001988455478568,  0.0000653774477541, -0.0000317310914397 ]
  - [   0.0000282153487206,  0.0000133593566716,  0.0000908593647182 ]
  - [   0.0000001797452569, -0.0000049571972340, -0.0000011920928955 ]
  - [  -0.0000017087149899,  0.0000331238843501, -0.0001709046773612 ]
  - [  -0.0000213650364458,  0.0000196462497115, -0.0000002747401595 ]
  - [   0.0000120159238577,  0.0000160557683557, -0.0000065001659095 ]
  - [  -0.0000096717849374, -0.0000019047874957,  0.0000046766363084 ]
  - [   0.0000190749324247,  0.0000177514739335,  0.0000122198835015 ]
  - [  -0.0001595735229785, -0.0916919857263565, -0.0267950855195522 ]
  - [   0.0000853249803185, -0.0917571559548378, -0.0260416641831398 ]
  - [  -0.0000100117176771, -0.0920428559184074, -0.0261937752366066 ]
  - [   0.0000511038815603, -0.0917978361248970, -0.0261980816721916 ]
  - [  -0.0003668904246297, -0.0918958634138107, -0.0258365124464035 ]
  - [   0.0001124027185142, -0.0921177491545677, -0.0262084249407053 ]
  - [   0.0000001550652087, -0.0920213237404823, -0.0262083131819963 ]
  - [  -0.0000659334473312, -0.0923314318060875, -0.0264229662716389 ]
  - [  -0.0000182634830708, -0.0920580774545670, -0.0262698084115982 ]
  - [   0.0000028102658689, -0.0920229405164719, -0.0262075681239367 ]
  - [   0.0000125886872411, -0.0920209288597107, -0.0261975489556789 ]
  - [  -0.0000041495077312, -0.0920305028557777, -0.0262077432125807 ]
  - [   0.0001206338638440, -0.0920751541852951, -0.0260483007878065 ]
  - [  -0.0000621285289526, -0.0919464305043221, -0.0263674259185791 ]
  - [   0.0000302558764815, -0.0920232832431793, -0.0262124650180340 ]
  - [  -0.0002182946773246, -0.0921352282166481, -0.0257844589650631 ]
  - [   0.0000876135891303, -0.1251194328069687, -0.0277523063123226 ]
  - [   0.0000307159498334, -0.1245702877640724, -0.0268392134457827 ]
  - [   0.0002746423706412, -0.1243150755763054, -0.0268927104771137 ]
  - [   0.0020657675340772, -0.1246467828750610, -0.0232569668442011 ]
  - [  -0.0000348501052940, -0.1245437562465668, -0.0271741300821304 ]
  - [  -0.0001641124254093, -0.1245532557368279, -0.0266903117299080 ]
  - [   0.0000822235160740, -0.1244805008172989, -0.0267660096287727 ]
  - [   0.0001478854537709, -0.1247164011001587, -0.0267320498824120 ]
  - [   0.0000976501032710, -0.1244192197918892, -0.0265230759978294 ]
  - [  -0.0000299133826047, -0.1245207265019417, -0.0268228985369205 ]
  - [  -0.0000608942791587, -0.1244391724467278, -0.0266806073486805 ]
  - [   0.0000071396352723, -0.1247979030013084, -0.0271882079541683 ]
  - [   0.0000255408231169, -0.1246339902281761, -0.0268328525125980 ]
  - [   0.0000001803273335, -0.1244886070489883, -0.0267706066370010 ]
  - [  -0.0000196640976355, -0.1244907528162003, -0.0267619714140892 ]
  - [  -0.0000069377088039, -0.1245206966996193, -0.0267533548176289 ]
  - [   0.0033632577396929,  0.1283508539199829,  0.0266424342989922 ]
  - [   0.0009577432647347,  0.1247678622603416,  0.0267706885933876 ]
  - [  -0.0001102418318624,  0.1244364678859711,  0.0267911255359650 ]
  - [  -0.0018277803901583,  0.1254676133394241,  0.0267366319894791 ]
  - [  -0.0017038822406903,  0.1254465430974960,  0.0266530960798264 ]
  - [  -0.0001882312062662,  0.1245480477809906,  0.0267733708024025 ]
  - [   0.0005254026036710,  0.1243720352649689,  0.0267771556973457 ]
  - [   0.0031672671902925,  0.1303814053535461,  0.0270925462245941 ]
  - [   0.0000028802314773,  0.1245117187500000,  0.0267807822674513 ]
  - [   0.0000084398634499,  0.1244837045669556,  0.0267708636820316 ]
  - [   0.0000056904223129,  0.1244799643754959,  0.0267881974577904 ]
  - [  -0.0000168114838743,  0.1244592666625977,  0.0267804078757763 ]
  - [  -0.0000015404070837,  0.1245109140872955,  0.0267179943621159 ]
  - [   0.0000105425715446,  0.1244814544916153,  0.0267893709242344 ]
  - [   0.0000082133783508,  0.1244935691356659,  0.0267608612775803 ]
  - [  -0.0000164133944054,  0.1244987472891808,  0.0268389023840427 ]
  - [   0.0000320568215102,  0.0000218866625801,  0.0000677056523273 ]
  - [   0.0000184453092515,  0.0001724945032038,  0.0000881404848769 ]
  - [  -0.0000145969534060,  0.0000099169574241, -0.0000251666806435 ]
  - [  -0.0000146281672642, -0.0000193051528186,  0.0000079162418842 ]
  - [  -0.0000594119774178, -0.0001693685771897, -0.0003842974256258 ]
  - [   0.0000041852472350,  0.0002350658178329,  0.0003081682370976 ]
  - [   0.0000271074968623,  0.0000477433713968,  0.0000518259003002 ]
  - [  -0.0000281838001683, -0.0000399101409130, -0.0001019848277792 ]
  - [   0.0001235284144059, -0.0002114140661433,  0.0000013095223039 ]
  - [  -0.0000296012731269,  0.0003671399899758,  0.0005665836506523 ]
  - [  -0.0001457393082092, -0.0000767722594901, -0.0000756030640332 ]
  - [   0.0000808538170531,  0.0000042873230086, -0.0000055725386119 ]
  - [   0.0017401454970241,  0.0000252415338764, -0.0033931583166122 ]
  - [  -0.0002013347111642, -0.0003537123848218,  0.0007215533987619 ]
  - [   0.0002048487076536, -0.0000342885323334,  0.0000651272857795 ]
  - [   0.0004063232336193,  0.0001100308654713,  0.0000813400911284 ]
- atom:    1
  displacement:
    [  -0.0077028746818923, -0.0063769680597493,  0.0000000000000000 ]
  forces:
  - [   0.0088424887508154,  0.1017275303602219,  0.0264423936605453 ]
  - [  -0.0008162320591509,  0.0921016260981560,  0.0263041332364082 ]
  - [   0.0002563414163888,  0.0920756831765175,  0.0262061618268490 ]
  - [  -0.0006748301675543,  0.0918813496828079,  0.0261359531432390 ]
  - [  -0.0002034497447312,  0.0926417335867882,  0.0262218844145536 ]
  - [   0.0003063934855163,  0.0927392914891243,  0.0262320209294558 ]
  - [  -0.0000364664010704,  0.0920479297637939,  0.0262061804533005 ]
  - [   0.0002030120958807,  0.0928797870874405,  0.0261993780732155 ]
  - [   0.0000175547320396,  0.0920395851135254,  0.0262247398495674 ]
  - [  -0.0000042475294322,  0.0920124799013138,  0.0262166298925877 ]
  - [   0.0000098887830973,  0.0920271128416061,  0.0262103993445635 ]
  - [  -0.0000230774749070,  0.0920356363058090,  0.0262076500803232 ]
  - [  -0.0000129609834403,  0.0920339599251747,  0.0262060575187206 ]
  - [  -0.0000011001247913,  0.0920250415802002,  0.0262049920856953 ]
  - [   0.0000109015963972,  0.0920285731554031,  0.0261982418596745 ]
  - [   0.0000033939722925,  0.0920200496912003,  0.0262153819203377 ]
  - [   0.0001130326636485, -0.0004350610543042, -0.0006164321675897 ]
  - [  -0.0000654811738059, -0.0002328217960894,  0.0001140882959589 ]
  - [  -0.0000211060978472,  0.0000065600033849,  0.0000116270966828 ]
  - [  -0.0000476946588606, -0.0002600140869617,  0.0000802227295935 ]
  - [   0.0002274299040437, -0.0001450562849641,  0.0002868158044294 ]
  - [  -0.0000304887071252, -0.0000212779268622, -0.0000141169875860 ]
  - [   0.0000006863847375, -0.0000072279945016, -0.0000053872354329 ]
  - [   0.0001370874233544,  0.0003312067128718, -0.0002296357415617 ]
  - [   0.0001999379310291, -0.0000657769851387,  0.0000334824435413 ]
  - [  -0.0000279210507870, -0.0000142627395689, -0.0000914749689400 ]
  - [   0.0000006817281246,  0.0000033911783248,  0.0000018724240363 ]
  - [   0.0000001275038812, -0.0000362626742572,  0.0001724977046251 ]
  - [   0.0000215821182792, -0.0000197514891624,  0.0000006579793990 ]
  - [  -0.0000122785568237, -0.0000154944136739,  0.0000064461492002 ]
  - [   0.0000101164914668,  0.0000022414606065, -0.0000035627745092 ]
  - [  -0.0000195296979655, -0.0000180292408913, -0.0000117202289402 ]
  - [   0.0001573811605340, -0.0923621729016304, -0.0256133191287518 ]
  - [  -0.0000752676278353, -0.0922890380024910, -0.0263736136257648 ]
  - [   0.0000087232328951, -0.0920116230845451, -0.0262161977589130 ]
  - [  -0.0000517229782417, -0.0922600701451302, -0.0262131188064814 ]
  - [   0.0003725002170540, -0.0921543687582016, -0.0265723373740911 ]
  - [  -0.0001110201701522, -0.0919394344091415, -0.0262031629681587 ]
  - [  -0.0000000437721610, -0.0920338183641434, -0.0262023396790028 ]
  - [   0.0000656335614622, -0.0917242318391800, -0.0259861927479506 ]
  - [   0.0000177745096153, -0.0919947475194931, -0.0261380765587091 ]
  - [  -0.0000015972182155, -0.0920320153236389, -0.0262020975351334 ]
  - [  -0.0000129160471261, -0.0920326560735703, -0.0262118019163609 ]
  - [   0.0000048880465329, -0.0920234024524689, -0.0262036286294460 ]
  - [  -0.0001217542449012, -0.0919801145792007, -0.0263619627803564 ]
  - [   0.0000635847682133, -0.0921081006526947, -0.0260402113199234 ]
  - [  -0.0000307853333652, -0.0920310989022255, -0.0261979028582573 ]
  - [   0.0002190330997109, -0.0919202193617821, -0.0266250986605883 ]
  - [  -0.0001026609679684, -0.1238561347126961, -0.0257956665009260 ]
  - [  -0.0000326600857079, -0.1243939474225044, -0.0267213769257069 ]
  - [  -0.0002782276133075, -0.1246519163250923, -0.0266661234200001 ]
  - [  -0.0020762176718563, -0.1242861002683640, -0.0303781535476446 ]
  - [   0.0000342920975527, -0.1244202554225922, -0.0263927187770605 ]
  - [   0.0001612619962543, -0.1244150102138519, -0.0268676243722439 ]
  - [  -0.0000804596056696, -0.1244849562644958, -0.0267942398786545 ]
  - [  -0.0001455484452890, -0.1242450922727585, -0.0268213711678982 ]
  - [  -0.0000950560206547, -0.1245515272021294, -0.0270349532365799 ]
  - [   0.0000311476178467, -0.1244477629661560, -0.0267342571169138 ]
  - [   0.0000581516324019, -0.1245299428701401, -0.0268777422606945 ]
  - [  -0.0000102223129943, -0.1241704374551773, -0.0263694897294044 ]
  - [  -0.0000232111196965, -0.1243343278765678, -0.0267263744026423 ]
  - [   0.0000000781146809, -0.1244810372591019, -0.0267869532108307 ]
  - [   0.0000177529764187, -0.1244768202304840, -0.0267975013703108 ]
  - [   0.0000044308203542, -0.1244433075189590, -0.0268059112131596 ]
  - [  -0.0032619538251311,  0.1207663267850876,  0.0269120614975691 ]
  - [  -0.0009409760823473,  0.1242010518908501,  0.0267884377390146 ]
  - [   0.0001153255143436,  0.1245244294404984,  0.0267663858830929 ]
  - [   0.0018120532622561,  0.1234812289476395,  0.0268234796822071 ]
  - [   0.0017168736085296,  0.1235425025224686,  0.0269075594842434 ]
  - [   0.0001880313793663,  0.1244179680943489,  0.0267852339893579 ]
  - [  -0.0005386793054640,  0.1245936900377274,  0.0267810858786106 ]
  - [  -0.0032477783970535,  0.1184015572071075,  0.0264682881534100 ]
  - [  -0.0000028221402317,  0.1244567707180977,  0.0267764832824469 ]
  - [  -0.0000089521199698,  0.1244853436946869,  0.0267851538956165 ]
  - [  -0.0000091912143034,  0.1244877874851227,  0.0267698615789413 ]
  - [   0.0000209796071431,  0.1245084851980209,  0.0267768651247025 ]
  - [   0.0000028798826861,  0.1244606673717499,  0.0268399491906166 ]
  - [  -0.0000121621415019,  0.1244892328977585,  0.0267665348947048 ]
  - [  -0.0000094924644145,  0.1244781315326691,  0.0267956852912903 ]
  - [   0.0000197323988687,  0.1244722306728363,  0.0267176181077957 ]
  - [  -0.0000307515438180, -0.0000242440437432, -0.0000669389992254 ]
  - [  -0.0000197389163077, -0.0001728094066493, -0.0000860968139023 ]
  - [   0.0000134108413476, -0.0000105922899820,  0.0000263982365141 ]
  - [   0.0000156328314915,  0.0000186799443327, -0.0000059100566432 ]
  - [   0.0000593268596276,  0.0001684823946562,  0.0003854105598293 ]
  - [  -0.0000057070283219, -0.0002333156880923, -0.0003057970898226 ]
  - [  -0.0000276115169981, -0.0000472128376714, -0.0000510591162310 ]
  - [   0.0000299857929349,  0.0000402554287575,  0.0001039305934682 ]
  - [  -0.0001217671670020,  0.0002124891034327, -0.0000075737243606 ]
  - [   0.0000314200296998, -0.0003597286122385, -0.0005584760219790 ]
  - [   0.0001435705198674,  0.0000769757243688,  0.0000754001521273 ]