# Thermal properties / unit cell (natom)

unit:
  temperature:   K
  free_energy:   kJ/mol
  entropy:       J/K/mol
  heat_capacity: J/K/mol

natom: 6    
cutoff_frequency: 0.00000
num_modes: 145080
num_integrated_modes: 136798

zero_point_energy:      15.2864447

thermal_properties:
- temperature:         0.0000000
  free_energy:        15.2864447
  entropy:             0.0000000
  heat_capacity:       0.0000000
  energy:             15.2864447

- temperature:        10.0000000
  free_energy:        15.2802399
  entropy:             2.0138658
  heat_capacity:       4.7052767
  energy:             15.3003786

- temperature:        20.0000000
  free_energy:        15.2257285
  entropy:             9.8677227
  heat_capacity:      20.9158519
  energy:             15.4230829

- temperature:        30.0000000
  free_energy:        15.0704621
  entropy:            21.4599472
  heat_capacity:      36.4843763
  energy:             15.7142605

- temperature:        40.0000000
  free_energy:        14.7951216
  entropy:            33.5625470
  heat_capacity:      47.6542076
  energy:             16.1376235

- temperature:        50.0000000
  free_energy:        14.4008395
  entropy:            45.2025105
  heat_capacity:      56.8499367
  energy:             16.6609650

- temperature:        60.0000000
  free_energy:        13.8927776
  entropy:            56.3328702
  heat_capacity:      65.4443837
  energy:             17.2727498

- temperature:        70.0000000
  free_energy:        13.2755792
  entropy:            67.0422794
  heat_capacity:      73.6347014
  energy:             17.9685387

- temperature:        80.0000000
  free_energy:        12.5531682
  entropy:            77.3795373
  heat_capacity:      81.2527683
  energy:             18.7435312

- temperature:        90.0000000
  free_energy:        11.7291923
  entropy:            87.3551788
  heat_capacity:      88.1436419
  energy:             19.5911584

- temperature:       100.0000000
  free_energy:        10.8072845
  entropy:            96.9648917
  heat_capacity:      94.2480103
  energy:             20.5037736

- temperature:       110.0000000
  free_energy:         9.7911310
  entropy:           106.2038367
  heat_capacity:      99.5841176
  energy:             21.4735530

- temperature:       120.0000000
  free_energy:         8.6844439
  entropy:           115.0721340
  heat_capacity:     104.2139767
  energy:             22.4931000

- temperature:       130.0000000
  free_energy:         7.4909046
  entropy:           123.5756951
  heat_capacity:     108.2176251
  energy:             23.5557450

- temperature:       140.0000000
  free_energy:         6.2141105
  entropy:           131.7252206
  heat_capacity:     111.6777462
  energy:             24.6556413

- temperature:       150.0000000
  free_energy:         4.8575337
  entropy:           139.5347578
  heat_capacity:     114.6718231
  energy:             25.7877474

- temperature:       160.0000000
  free_energy:         3.4244951
  entropy:           147.0203763
  heat_capacity:     117.2688487
  energy:             26.9477554

- temperature:       170.0000000
  free_energy:         1.9181491
  entropy:           154.1991278
  heat_capacity:     119.5285138
  energy:             28.1320008

- temperature:       180.0000000
  free_energy:         0.3414778
  entropy:           161.0882971
  heat_capacity:     121.5016166
  energy:             29.3373713

- temperature:       190.0000000
  free_energy:        -1.3027083
  entropy:           167.7048938
  heat_capacity:     123.2309916
  energy:             30.5612215

- temperature:       200.0000000
  free_energy:        -3.0117663
  entropy:           174.0653273
  heat_capacity:     124.7525902
  energy:             31.8012992

- temperature:       210.0000000
  free_energy:        -4.7832131
  entropy:           180.1852134
  heat_capacity:     126.0965353
  energy:             33.0556817

- temperature:       220.0000000
  free_energy:        -6.6147179
  entropy:           186.0792736
  heat_capacity:     127.2880708
  energy:             34.3227223

- temperature:       230.0000000
  free_energy:        -8.5040919
  entropy:           191.7612955
  heat_capacity:     128.3483834
  energy:             35.6010061

- temperature:       240.0000000
  free_energy:       -10.4492799
  entropy:           197.2441343
  heat_capacity:     129.2952958
  energy:             36.8893123

- temperature:       250.0000000
  free_energy:       -12.4483506
  entropy:           202.5397397
  heat_capacity:     130.1438440
  energy:             38.1865843

- temperature:       260.0000000
  free_energy:       -14.4994877
  entropy:           207.6591985
  heat_capacity:     130.9067537
  energy:             39.4919039

- temperature:       270.0000000
  free_energy:       -16.6009817
  entropy:           212.6127848
  heat_capacity:     131.5948324
  energy:             40.8044702

- temperature:       280.0000000
  free_energy:       -18.7512223
  entropy:           217.4100152
  heat_capacity:     132.2172907
  energy:             42.1235820

- temperature:       290.0000000
  free_energy:       -20.9486903
  entropy:           222.0597032
  heat_capacity:     132.7820070
  energy:             43.4486236

- temperature:       300.0000000
  free_energy:       -23.1919518
  entropy:           226.5700137
  heat_capacity:     133.2957438
  energy:             44.7790523

- temperature:       310.0000000
  free_energy:       -25.4796513
  entropy:           230.9485140
  heat_capacity:     133.7643262
  energy:             46.1143881

- temperature:       320.0000000
  free_energy:       -27.8105062
  entropy:           235.2022229
  heat_capacity:     134.1927899
  energy:             47.4542052

- temperature:       330.0000000
  free_energy:       -30.1833015
  entropy:           239.3376554
  heat_capacity:     134.5855021
  energy:             48.7981248

- temperature:       340.0000000
  free_energy:       -32.5968852
  entropy:           243.3608647
  heat_capacity:     134.9462634
  energy:             50.1458088

- temperature:       350.0000000
  free_energy:       -35.0501636
  entropy:           247.2774805
  heat_capacity:     135.2783917
  energy:             51.4969546

- temperature:       360.0000000
  free_energy:       -37.5420971
  entropy:           251.0927442
  heat_capacity:     135.5847923
  energy:             52.8512909

- temperature:       370.0000000
  free_energy:       -40.0716969
  entropy:           254.8115410
  heat_capacity:     135.8680171
  energy:             54.2085733

- temperature:       380.0000000
  free_energy:       -42.6380215
  entropy:           258.4384290
  heat_capacity:     136.1303141
  energy:             55.5685815

- temperature:       390.0000000
  free_energy:       -45.2401734
  entropy:           261.9776661
  heat_capacity:     136.3736688
  energy:             56.9311164

- temperature:       400.0000000
  free_energy:       -47.8772960
  entropy:           265.4332340
  heat_capacity:     136.5998401
  energy:             58.2959976

- temperature:       410.0000000
  free_energy:       -50.5485716
  entropy:           268.8088604
  heat_capacity:     136.8103896
  energy:             59.6630612

- temperature:       420.0000000
  free_energy:       -53.2532184
  entropy:           272.1080390
  heat_capacity:     137.0067079
  energy:             61.0321580

- temperature:       430.0000000
  free_energy:       -55.9904885
  entropy:           275.3340478
  heat_capacity:     137.1900358
  energy:             62.4031520

- temperature:       440.0000000
  free_energy:       -58.7596657
  entropy:           278.4899656
  heat_capacity:     137.3614831
  energy:             63.7759191

- temperature:       450.0000000
  free_energy:       -61.5600638
  entropy:           281.5786873
  heat_capacity:     137.5220449
  energy:             65.1503454

- temperature:       460.0000000
  free_energy:       -64.3910246
  entropy:           284.6029376
  heat_capacity:     137.6726153
  energy:             66.5263267

- temperature:       470.0000000
  free_energy:       -67.2519163
  entropy:           287.5652838
  heat_capacity:     137.8139993
  energy:             67.9037671

- temperature:       480.0000000
  free_energy:       -70.1421320
  entropy:           290.4681469
  heat_capacity:     137.9469229
  energy:             69.2825785

- temperature:       490.0000000
  free_energy:       -73.0610886
  entropy:           293.3138125
  heat_capacity:     138.0720426
  energy:             70.6626796

- temperature:       500.0000000
  free_energy:       -76.0082248
  entropy:           296.1044403
  heat_capacity:     138.1899529
  energy:             72.0439953

- temperature:       510.0000000
  free_energy:       -78.9830007
  entropy:           298.8420728
  heat_capacity:     138.3011932
  energy:             73.4264564

- temperature:       520.0000000
  free_energy:       -81.9848961
  entropy:           301.5286436
  heat_capacity:     138.4062536
  energy:             74.8099986

- temperature:       530.0000000
  free_energy:       -85.0134095
  entropy:           304.1659847
  heat_capacity:     138.5055806
  energy:             76.1945624

- temperature:       540.0000000
  free_energy:       -88.0680575
  entropy:           306.7558332
  heat_capacity:     138.5995812
  energy:             77.5800925

- temperature:       550.0000000
  free_energy:       -91.1483734
  entropy:           309.2998379
  heat_capacity:     138.6886270
  energy:             78.9665375

- temperature:       560.0000000
  free_energy:       -94.2539066
  entropy:           311.7995648
  heat_capacity:     138.7730582
  energy:             80.3538496

- temperature:       570.0000000
  free_energy:       -97.3842220
  entropy:           314.2565024
  heat_capacity:     138.8531865
  energy:             81.7419843

- temperature:       580.0000000
  free_energy:      -100.5388988
  entropy:           316.6720668
  heat_capacity:     138.9292975
  energy:             83.1309000

- temperature:       590.0000000
  free_energy:      -103.7175300
  entropy:           319.0476063
  heat_capacity:     139.0016541
  energy:             84.5205577

- temperature:       600.0000000
  free_energy:      -106.9197218
  entropy:           321.3844052
  heat_capacity:     139.0704978
  energy:             85.9109213

- temperature:       610.0000000
  free_energy:      -110.1450930
  entropy:           323.6836881
  heat_capacity:     139.1360512
  energy:             87.3019567

- temperature:       620.0000000
  free_energy:      -113.3932744
  entropy:           325.9466233
  heat_capacity:     139.1985198
  energy:             88.6936321

- temperature:       630.0000000
  free_energy:      -116.6639081
  entropy:           328.1743262
  heat_capacity:     139.2580932
  energy:             90.0859175

- temperature:       640.0000000
  free_energy:      -119.9566470
  entropy:           330.3678624
  heat_capacity:     139.3149466
  energy:             91.4787849

- temperature:       650.0000000
  free_energy:      -123.2711548
  entropy:           332.5282503
  heat_capacity:     139.3692426
  energy:             92.8722079

- temperature:       660.0000000
  free_energy:      -126.6071048
  entropy:           334.6564644
  heat_capacity:     139.4211315
  energy:             94.2661617

- temperature:       670.0000000
  free_energy:      -129.9641800
  entropy:           336.7534372
  heat_capacity:     139.4707530
  energy:             95.6606230

- temperature:       680.0000000
  free_energy:      -133.3420724
  entropy:           338.8200618
  heat_capacity:     139.5182367
  energy:             97.0555696

- temperature:       690.0000000
  free_energy:      -136.7404829
  entropy:           340.8571940
  heat_capacity:     139.5637033
  energy:             98.4509810

- temperature:       700.0000000
  free_energy:      -140.1591207
  entropy:           342.8656544
  heat_capacity:     139.6072648
  energy:             99.8468374

- temperature:       710.0000000
  free_energy:      -143.5977030
  entropy:           344.8462300
  heat_capacity:     139.6490260
  energy:            101.2431203

- temperature:       720.0000000
  free_energy:      -147.0559549
  entropy:           346.7996765
  heat_capacity:     139.6890842
  energy:            102.6398122

- temperature:       730.0000000
  free_energy:      -150.5336086
  entropy:           348.7267194
  heat_capacity:     139.7275306
  energy:            104.0368966

- temperature:       740.0000000
  free_energy:      -154.0304036
  entropy:           350.6280558
  heat_capacity:     139.7644501
  energy:            105.4343577

- temperature:       750.0000000
  free_energy:      -157.5460862
  entropy:           352.5043560
  heat_capacity:     139.7999223
  energy:            106.8321808

- temperature:       760.0000000
  free_energy:      -161.0804094
  entropy:           354.3562645
  heat_capacity:     139.8340217
  energy:            108.2303516

- temperature:       770.0000000
  free_energy:      -164.6331323
  entropy:           356.1844015
  heat_capacity:     139.8668178
  energy:            109.6288569

- temperature:       780.0000000
  free_energy:      -168.2040202
  entropy:           357.9893641
  heat_capacity:     139.8983761
  energy:            111.0276838

- temperature:       790.0000000
  free_energy:      -171.7928442
  entropy:           359.7717274
  heat_capacity:     139.9287580
  energy:            112.4268205

- temperature:       800.0000000
  free_energy:      -175.3993812
  entropy:           361.5320456
  heat_capacity:     139.9580209
  energy:            113.8262553

- temperature:       810.0000000
  free_energy:      -179.0234134
  entropy:           363.2708528
  heat_capacity:     139.9862191
  energy:            115.2259773

- temperature:       820.0000000
  free_energy:      -182.6647283
  entropy:           364.9886641
  heat_capacity:     140.0134034
  energy:            116.6259763

- temperature:       830.0000000
  free_energy:      -186.3231184
  entropy:           366.6859766
  heat_capacity:     140.0396217
  energy:            118.0262422

- temperature:       840.0000000
  free_energy:      -189.9983811
  entropy:           368.3632699
  heat_capacity:     140.0649192
  energy:            119.4267656

- temperature:       850.0000000
  free_energy:      -193.6903186
  entropy:           370.0210073
  heat_capacity:     140.0893383
  energy:            120.8275376

- temperature:       860.0000000
  free_energy:      -197.3987376
  entropy:           371.6596362
  heat_capacity:     140.1129191
  energy:            122.2285496

- temperature:       870.0000000
  free_energy:      -201.1234491
  entropy:           373.2795890
  heat_capacity:     140.1356996
  energy:            123.6297933

- temperature:       880.0000000
  free_energy:      -204.8642685
  entropy:           374.8812836
  heat_capacity:     140.1577153
  energy:            125.0312610

- temperature:       890.0000000
  free_energy:      -208.6210152
  entropy:           376.4651241
  heat_capacity:     140.1790001
  energy:            126.4329452

- temperature:       900.0000000
  free_energy:      -212.3935128
  entropy:           378.0315016
  heat_capacity:     140.1995859
  energy:            127.8348387

- temperature:       910.0000000
  free_energy:      -216.1815883
  entropy:           379.5807945
  heat_capacity:     140.2195029
  energy:            129.2369347

- temperature:       920.0000000
  free_energy:      -219.9850729
  entropy:           381.1133691
  heat_capacity:     140.2387798
  energy:            130.6392266

- temperature:       930.0000000
  free_energy:      -223.8038012
  entropy:           382.6295800
  heat_capacity:     140.2574435
  energy:            132.0417083

- temperature:       940.0000000
  free_energy:      -227.6376111
  entropy:           384.1297709
  heat_capacity:     140.2755198
  energy:            133.4443735

- temperature:       950.0000000
  free_energy:      -231.4863443
  entropy:           385.6142748
  heat_capacity:     140.2930329
  energy:            134.8472168

- temperature:       960.0000000
  free_energy:      -235.3498454
  entropy:           387.0834144
  heat_capacity:     140.3100061
  energy:            136.2502324

- temperature:       970.0000000
  free_energy:      -239.2279624
  entropy:           388.5375027
  heat_capacity:     140.3264613
  energy:            137.6534152

- temperature:       980.0000000
  free_energy:      -243.1205463
  entropy:           389.9768431
  heat_capacity:     140.3424192
  energy:            139.0567600

- temperature:       990.0000000
  free_energy:      -247.0274511
  entropy:           391.4017304
  heat_capacity:     140.3578997
  energy:            140.4602620

- temperature:      1000.0000000
  free_energy:      -250.9485337
  entropy:           392.8124501
  heat_capacity:     140.3729215
  energy:            141.8639164
