12
Lattice="4.387234440186445 -0.0021313061565070373 0.007892282897086005 0.004085742990269696 7.326547983041884 0.023389439600456224 -0.015114574433764362 -0.00315168415757425 8.981105659476913" Properties=species:S:1:pos:R:3:forces:R:3 structure_index=0 total_energy=-38.64632034301758 stress="0.0045093088410794735 7.868416287237778e-05 1.9758716007345356e-05 7.870503031881526e-05 -0.01822499744594097 -0.0011341618373990059 1.9770088329096325e-05 -0.001134188729338348 0.009374837391078472" pbc="T T T"
Li       2.36207709       2.75702421       2.14576248       0.00006397       0.02904439       0.02084133
Li       0.16100547       6.09625589       7.25228836       0.00005713       0.02818564      -0.00628546
Li       2.36227403       6.09665780       2.76519408       0.00018892       0.02834430      -0.00585144
Li       0.16083243       2.75712800       6.63219175      -0.00001634       0.02874211       0.02091756
Ga       2.35239859       3.92534969       8.30145390       0.00016537      -0.01966583       0.00239918
Ga       0.16615912       3.92830559       3.80655725      -0.00011348      -0.02068763       0.00365988
Sn       0.16433609       1.12845229       3.83699482      -0.00013391      -0.01555600       0.01008066
Sn       2.35713413       4.54243318       5.46768518       0.00016949      -0.01217673      -0.03333820
Sn       2.35438714       0.16866294       5.54124977       0.00001561      -0.00891296       0.00466322
Sn       0.17139493       4.54529024       0.97336207      -0.00034087      -0.01173407      -0.03407980
Sn       0.16859807       0.17207107       1.04690019      -0.00047981      -0.00953386       0.00488516
Sn       2.35047414       1.12574249       8.33080868       0.00042393      -0.01604936       0.01210795
15
Lattice="4.260978009393716 -0.00510249902890208 -0.0009461798071638112 -2.1258072431861454 4.610133602056603 -1.3465647347594925 0.002664763173424554 -0.26368610136561893 15.431420363106495" Properties=species:S:1:pos:R:3:forces:R:3 structure_index=1 total_energy=-45.79092025756836 stress="-0.006093917414546013 -0.001092013786546886 -0.00017765593656804413 -0.0010921661742031574 -0.022864045575261116 -0.005998537410050631 -0.00017766584642231464 -0.0059985448606312275 -0.00031675415812060237" pbc="T T T"
Li      -0.22373544       2.50015499      -0.08331268       0.00008536       0.01290779       0.01379734
Li      -0.22085802       3.53528227       6.80964097      -0.00053174      -0.01770586      -0.00489258
Li      -0.22033812       4.20078597       2.43460892      -0.00121722      -0.00243028      -0.02380070
Li      -0.22394287       1.10119394       8.52032699       0.00061316      -0.01706113      -0.00188087
Li      -0.22153059       2.96639468      11.11625586      -0.00056832      -0.00442452       0.00134239
Li      -0.22304417       1.78873043       4.13273678       0.00060982       0.00884863      -0.01964166
Ga       1.90875975       2.64699788      13.24155513       0.00023344      -0.00028156       0.00840479
Ga       1.90699145       0.11778952      15.00319078      -0.00145161       0.01523715       0.01278793
Ga       1.90678955       0.77891757      10.64195034      -0.00096997      -0.01552751       0.00431923
Ga       1.90772227       2.11869014       2.02543632      -0.00141882       0.01077634      -0.01038695
Sn      -0.22454557       0.55200670      12.88507729       0.00194074      -0.01604823      -0.02195840
Sn       4.03468768       0.00021498       1.68013257       0.00229414       0.01889276       0.01760648
Sn       1.90780645       1.34579643       6.27127594      -0.00157125       0.02153342       0.03542279
Sn       1.90865015       3.20851899       8.89321898       0.00150872      -0.00662604       0.02914004
Sn       1.90979100       3.86818345       4.59188542       0.00044355      -0.00809097      -0.04025980
4
Lattice="4.4448863642397445 0.005700219795648777 -0.003312907853247621 -0.004179583078032791 4.051668596610708 -0.004770231339429026 0.003790579173493632 0.008667400620889207 4.052370832241506" Properties=species:S:1:pos:R:3:forces:R:3 structure_index=2 total_energy=-11.800252914428711 stress="0.015383388847112656 0.0036063026636838913 0.0025363382883369923 0.003606207435950637 -0.0687984749674797 0.0368562676012516 0.00253640441223979 0.036856282502412796 -0.06536420434713364" pbc="T T T"
Li       3.89826988       3.25428340       2.82339166      -0.00140096      -0.00106912       0.00076007
Li       3.89845065       1.22283094       0.80005177      -0.00137564       0.00276190      -0.00052941
Ga       1.67726458       1.22598651       2.82783047       0.00076215      -0.00127644      -0.00046417
Sn       1.67322880       3.24719523       0.79912351       0.00201445      -0.00041634       0.00023351
12
Lattice="5.515208677863089 0.00982457670706133 -2.3972775978986114 -0.6061689709363384 6.263919051440259 -1.353148562583873 -0.05904070780889257 -0.043196419827012354 7.463406810559191" Properties=species:S:1:pos:R:3:forces:R:3 structure_index=3 total_energy=-37.27788543701172 stress="-0.019792011007666588 -0.006206285208463669 0.003814957570284605 -0.006206252612173557 -0.01751110516488552 0.005122093483805656 0.003815022762864828 0.005122128874063492 -0.019008560106158257" pbc="T T T"
Li       3.18079288       4.56022937       3.27852252      -0.03190762      -0.00016283       0.01395478
Li       0.77825977       1.40921335       5.12691822       0.03204410       0.00175674      -0.01416209
Ga       4.00400390       2.55865472       1.30940263       0.02588345       0.01045809       0.03716007
Ga       0.01627855       3.45356399      -0.36877571      -0.02772350      -0.00846133      -0.03511761
Ga       3.56858304       1.41802173       3.91022593      -0.01283713       0.00120538       0.00626782
Ga       0.31790519       0.33844284       0.31004690      -0.00927193      -0.00809899      -0.04489130
Ga       3.69547502       5.68067365       0.63241679       0.01424349       0.00596106       0.04559083
Ga       0.38826986       4.55398987       4.49615795       0.01201961       0.00060133      -0.00765179
Sn       3.19734594       0.39762593      -0.61441878       0.01350046       0.01220948       0.01342807
Sn       1.13129621       2.49097879       2.23888568      -0.00816976      -0.00883644      -0.02095155
Sn       2.88923559       3.52689021      -1.29659767       0.00642080       0.00702355       0.01984737
Sn       0.81656768       5.61851331       1.55565025      -0.01420196      -0.01365606      -0.01347459
10
Lattice="4.778185021087559 -0.7677331485908678 1.3892899436713018 1.1704192414253014 4.793149967291618 1.8544641654362692 0.2847151297146016 -0.5723929166706148 8.150450549123722" Properties=species:S:1:pos:R:3:forces:R:3 structure_index=4 total_energy=-29.6287841796875 stress="0.03552207350730896 0.00733904680237174 0.002006503753364086 0.007339288480579853 0.03316272422671318 0.004718270618468523 0.002006505150347948 0.004717946518212557 0.03036689944565296" pbc="T T T"
Li       4.67274633       2.81713968      10.43849133      -0.00325470       0.01771403       0.00604237
Li       2.69307006       3.20607426       8.04800554       0.00308578      -0.01697695      -0.00535228
Li       0.70769102       0.99953175       7.62139046       0.00043502      -0.00000730       0.00015768
Li       1.59967651       1.05485023       4.72197073      -0.01061121      -0.02304675      -0.00208163
Li       4.30966324       0.74812487       3.76013671       0.01107502       0.02342268       0.00191156
Ga       5.48684280       2.72023904       7.35632508       0.01257690       0.02949225      -0.00216985
Ga       1.59515727       3.87731757       2.98082308      -0.01338485      -0.02976456       0.00185694
Sn       3.57944860       0.39670083       6.76653081      -0.00933391       0.03307752      -0.00172401
Sn       2.32959393       1.40750326       1.71598911       0.01029504      -0.03371457       0.00133405
Sn       3.54122104       3.29779970       5.16831259      -0.00088308      -0.00019639       0.00002519
12
Lattice="3.9855140662443236 0.002039131625346489 -0.0029862619916098984 -0.003125792151323847 5.876451264315113 0.06955228852755523 0.007992594968683901 0.1283807475574864 9.025079345599636" Properties=species:S:1:pos:R:3:forces:R:3 structure_index=5 total_energy=-34.16664505004883 stress="0.028541194275021553 -0.00010951260628644377 -0.00011249494855292141 -0.00010963475506287068 0.025389330461621284 -0.0024732465390115976 -0.00011254533455939963 -0.0024733650498092175 0.0247785821557045" pbc="T T T"
Li       2.61818962       3.06871188       4.99425674      -0.00053372       0.00922848       0.00791386
Li       0.61956748       4.47367945       0.42524758      -0.00007293       0.03029276      -0.03201951
Li       2.62076097       0.16813367       7.85391209       0.00050511       0.01774479      -0.01165985
Li       0.62629056       1.56815844       6.44178720       0.00057517      -0.00985670      -0.00856985
Li       0.62384944       4.46732338       3.58418780      -0.00069307      -0.01846594       0.00833388
Li       2.61713283       0.02928521       1.98293620      -0.00018546      -0.02675697       0.03613055
Ga       2.61642414       5.89382998       5.09224917      -0.00033491      -0.00404196      -0.01324810
Ga       2.61573924       3.09413300       1.94535092      -0.00069061      -0.02433263      -0.01964068
Ga       0.62075047       1.41024208       0.46462978       0.00091429       0.02458140       0.02033823
Ga       0.62485612       4.62051283       6.41441191       0.00060522       0.00089628       0.01137137
Sn       2.61922350       3.09497063       7.97686853       0.00077223       0.01675600       0.00007449
Sn       0.62531791       1.53958862       3.45790921      -0.00086137      -0.01604556       0.00097561
8
Lattice="4.243301323462932 0.02454521809542229 -0.9277380840550258 -0.22965621249693133 4.2381904678949835 -0.9228348827281089 0.14953566329528198 0.1361331374921083 10.876562268019162" Properties=species:S:1:pos:R:3:forces:R:3 structure_index=6 total_energy=-25.370906829833984 stress="-0.0010804245248436928 -0.03191391006112099 0.012142444029450417 -0.031913936138153076 -0.005934968125075102 0.01074193138629198 0.012142369523644447 0.010741867125034332 -0.01442096196115017" pbc="T T T"
Li       0.27843415       0.74698579       2.82298888      -0.00122173       0.00100927      -0.00047068
Li       1.24064648       3.99879596       7.33618323       0.00048415       0.00277494       0.00193030
Ga       3.47590591       1.89468093       7.33490116       0.00183989      -0.00123073      -0.00020474
Ga       2.28236618       2.87906863       1.89870326       0.00327565      -0.00179888      -0.00158175
Sn       3.94043364       2.38903999       4.38514944      -0.01946959       0.00209693       0.00068008
Sn       1.92932020       0.25846545       5.31101931       0.01645813      -0.00278795      -0.00239796
Sn       0.73694628       1.24163306      -0.12746917      -0.00223842       0.01767239      -0.00122611
Sn       2.74362482       3.37774703      -1.05147152       0.00087190      -0.01773597       0.00327087
6
Lattice="4.334116660144799 0.0025037005063080135 -0.007292266225936096 -2.1716380308562666 4.609461733518197 -1.499292595491854 0.009427766706050535 0.18600917156160837 6.0696259154344405" Properties=species:S:1:pos:R:3:forces:R:3 structure_index=7 total_energy=-18.478435516357422 stress="0.028459783643484116 -0.0016949065029621124 -2.124810816894751e-05 -0.0016950543504208326 0.039434950798749924 -0.005566771607846022 -2.1349815142457373e-05 -0.005566669628024101 0.008914804086089134" pbc="T T T"
Li       0.02121063       0.77085543       0.51031530      -0.00108717       0.01859811       0.02694671
Li       2.18715206       2.53984268       2.16314524       0.00219757      -0.01838921      -0.02699759
Ga       0.02326159       4.05129905       3.62420404       0.00053538       0.00333243      -0.00221675
Ga       0.01887058       3.96160289       0.58910520      -0.00000290      -0.00267831      -0.00214902
Sn       0.02543530       0.91991736       3.49707518      -0.00258833      -0.04662701       0.02129981
Sn       2.19377731       2.57668915       5.24589556       0.00094544       0.04576396      -0.01688318
8
Lattice="2.8496868629852616 -0.0005207853193284526 -0.00012170977438314158 0.0011756867569336193 5.383636325906449 -0.06881875161188297 0.0002510275793848669 -0.03962814965662059 9.431810936668834" Properties=species:S:1:pos:R:3:forces:R:3 structure_index=8 total_energy=-23.77420425415039 stress="-0.0014508243184536695 8.805270044831559e-05 -2.1755344278062694e-05 8.813261229079217e-05 -0.011255623772740364 -0.011060955002903938 -2.1735493646701798e-05 -0.011060683988034725 0.003815575735643506" pbc="T T T"
Li       0.14366601       3.99576020       9.11066658      -0.00000001      -0.00283897       0.03906285
Li       0.14246614       0.25505261       2.37139004       0.00004167       0.00187524      -0.03930636
Li       0.14305752       0.23663294       6.88098218      -0.00016353      -0.04186241       0.00628407
Li       0.14337700       4.01257156       4.60113470       0.00010137       0.04278951      -0.00700777
Ga       1.56778778       1.29073056       4.67866018      -0.00003740      -0.02954495       0.01085103
Ga       1.56831226       2.95834811       6.80310563      -0.00010343       0.03016583      -0.01108947
Sn       1.56782043       2.98806395       2.23437837       0.00027051      -0.03177040      -0.00200014
Sn       1.56798154       1.26206927       9.24694571      -0.00010919       0.03118619       0.00320580
7
Lattice="4.466495712744731 -0.004275920987814965 1.210569700122686 2.061671870574213 3.9763264696458673 1.224814816354615 0.23891364137435603 0.17238964429499964 8.026341162081522" Properties=species:S:1:pos:R:3:forces:R:3 structure_index=9 total_energy=-20.783342361450195 stress="-0.00683324970304966 0.005993781611323357 -0.003893443150445819 0.00599386403337121 -0.020036574453115463 -0.011078392155468464 -0.003893525805324316 -0.011078747920691967 -0.0031003833282738924" pbc="T T T"
Li       3.69178475       1.22747336       9.02635822      -0.00850265      -0.00376185       0.03676395
Li       2.65316281       0.57883575       3.98131356      -0.00007052      -0.00001213       0.00011815
Li       3.91490160       4.07886674       8.18771438       0.00869073       0.00383731      -0.03721990
Ga       1.93207968       2.87051837       6.65786690      -0.01245264      -0.00815015       0.04562305
Ga       5.43539851       2.26322043       2.53117631       0.01277859       0.00836821      -0.04702320
Sn       2.92696839       3.46044707       2.94136450      -0.01315356      -0.01080237       0.04380767
Sn       4.44091898       1.67354492       6.24617952       0.01271005       0.01052098      -0.04206971
11
Lattice="4.160117692931907 -5.479293531706828e-06 -1.2077307959061843 -0.44593242390874993 6.42237902487182 -1.5383963880662095 -0.0273584203842392 -0.3978738411530213 7.669949972435253" Properties=species:S:1:pos:R:3:forces:R:3 structure_index=10 total_energy=-31.41756248474121 stress="-0.003197028301656246 0.00861433707177639 0.007382871583104134 0.008614332415163517 -0.0002199679147452116 0.01872689090669155 0.007382975425571203 0.01872679963707924 0.0033384596463292837" pbc="T T T"
Li       1.93227221       5.99029121      -0.28653399       0.00476470      -0.00394686       0.01476118
Li       0.93613585       3.62735249       4.04807761      -0.00731036      -0.01175050      -0.02517452
Li       2.56156500       2.42481886       1.88042250      -0.00051682       0.00689840      -0.00205579
Li       2.70735855       5.34093175       2.37962273       0.00896099       0.02496833       0.03271467
Li       0.00334080       1.30148969       0.84030538       0.00308889       0.00650345       0.00877708
Li       1.76357678       3.12849965      -0.86743362      -0.01317905      -0.02071953      -0.04479295
Li       3.35153790       1.65761706       4.60016529       0.00367153       0.01481736       0.01284515
Ga       1.59469403       0.03825735       6.31889559       0.00158173      -0.03091796       0.00301179
Sn       0.80800618       0.73553312       3.60878778       0.00430993      -0.00595810       0.01503833
Sn       0.15079022       4.11345975       1.34427285      -0.00465412       0.02170057      -0.01427371
Sn       3.47588978       4.51088559       5.02658580      -0.00071741      -0.00159516      -0.00085124
6
Lattice="4.172761800154836 -0.0014274661727979399 0.0004627464839399927 0.0011401763726602758 3.3168978472272173 0.0004626818459065605 -0.0010837996950529192 -0.0017809735852204658 8.617520239708742" Properties=species:S:1:pos:R:3:forces:R:3 structure_index=11 total_energy=-18.0358829498291 stress="0.03612426295876503 -1.419650971001829e-06 -1.2583231182361487e-05 -1.4336178537632804e-06 -0.046669211238622665 2.3067680103849852e-06 -1.2798176612704992e-05 2.3131794932851335e-06 -0.04993992671370506" pbc="T T T"
Li       0.87992010       3.26372131       2.37790462       0.00016566       0.00060082       0.03689733
Li       0.87984679       3.26428846       5.15065081      -0.00021979      -0.00027487      -0.02523687
Li       2.96531175       1.60513427       6.68283364       0.00006886      -0.00020555       0.00803913
Ga       2.96600272       1.60583833       0.90260550      -0.00000311      -0.00023623      -0.00655616
Sn       2.96569510       1.60477648       3.78638430       0.00000051       0.00017668      -0.00887822
Sn       0.87933117       3.26403910       8.07199388      -0.00001215      -0.00006085      -0.00426520
8
Lattice="4.808164220674555 0.0006800511393645541 -1.90364646742428e-05 0.0012589039750497432 5.303160409113466 -3.084992398833188 -0.002308228768688725 -0.014127909069550134 6.189872809260839" Properties=species:S:1:pos:R:3:forces:R:3 structure_index=12 total_energy=-23.311172485351562 stress="-0.050776779651641846 0.00010319687862647697 -0.00039837256190367043 0.00010318351269233972 0.028289981186389923 -0.0005399228539317846 -0.00039826726424507797 -0.0005398461362347007 0.030456136912107468" pbc="T T T"
Li       4.31960444       1.63362469      -0.11606853       0.00064375       0.01910385       0.00199841
Ga       4.31946354       4.17950408       1.37954082       0.00070027      -0.02962882      -0.02689796
Ga       1.91445709       2.49210011       4.49989839       0.00052329      -0.00331134      -0.00195402
Ga       4.32136271       4.18013364      -1.59549059      -0.00031702      -0.02313621       0.02910747
Ga       1.91589397       2.50069952       1.47234642      -0.00061039      -0.00093866       0.00042428
Ga       1.91669263       5.14108703      -0.10117480      -0.00034053       0.01398062      -0.00259876
Ga       4.31969417       1.60102369       2.97926276      -0.00033380       0.02085542       0.00198001
Sn       1.91498495       5.17730479       2.99512547      -0.00026555       0.00307510      -0.00205943
10
Lattice="4.426086000797491 0.00028483974646079075 -0.0006833857481393455 -0.0004106730951631352 4.344597004146554 -0.8638326564997718 0.0007990514298137431 0.029007322418074105 11.511341106665554" Properties=species:S:1:pos:R:3:forces:R:3 structure_index=13 total_energy=-31.6583309173584 stress="0.03471469134092331 -3.5022701467823936e-06 -7.06172504578717e-05 -3.613986336858943e-06 0.0286738071590662 -0.001423878944478929 -7.060344069031999e-05 -0.0014238283038139343 0.02178867906332016" pbc="T T T"
Li       4.34283658       1.37962061       8.62125188      -0.00011738       0.00236011       0.01320114
Li       4.34139457       0.60663521       4.73972449       0.00026360       0.00006898       0.00314671
Ga       2.12807916       2.78457354       4.34344380       0.00009992       0.00343055       0.01372489
Ga       4.34100037       2.36972981       2.26159635       0.00005319      -0.00296552      -0.02276629
Ga       4.34153908       3.14185581       6.13061613       0.00077885      -0.00545393      -0.02733191
Ga       2.12901743       0.97379705       6.58739034      -0.00021706      -0.00770703      -0.03996529
Sn       2.12826138       0.20143625       2.71284172      -0.00008145       0.00270699       0.01225190
Sn       2.12786778       1.85908150      -0.32933219       0.00034908       0.00106467       0.01851242
Sn       2.12951138       3.54216532       8.14337670      -0.00099306       0.00426514       0.02561347
Sn       4.34081008       4.02844918      -0.77377799      -0.00013570       0.00223007       0.00361296
12
Lattice="4.113759242277904 0.003361758724168033 1.151016809152471 1.1826674422222718 7.0866975684937445 3.679621616688852 -0.01830946164422077 -0.07487272993331909 7.992610939638179" Properties=species:S:1:pos:R:3:forces:R:3 structure_index=14 total_energy=-36.07243347167969 stress="0.026121588423848152 -0.0004343977780081332 -0.0004522296949289739 -0.00043441561865620315 0.02900666743516922 0.0014376548351719975 -0.00045227172086015344 0.0014374867314472795 0.027485473081469536" pbc="T T T"
Li       3.28114496       5.73452786      10.81272160      -0.00556751       0.02642636       0.01798228
Li       3.46893290       2.87805785      10.14866771      -0.00158493       0.01876682       0.00605749
Li       0.35239369       0.41015970       5.44119545      -0.00527564      -0.00831627       0.01846013
Li       4.26144003       3.48644583       7.31304817       0.01228090      -0.00777090      -0.04213002
Li       2.51760023       5.24122671       5.61455327       0.00314389      -0.01736228      -0.01086091
Li       1.91305876       1.67818243       7.78598144       0.00232606       0.01357289      -0.00798815
Ga       0.94495593       4.11838931       3.31125338       0.00111934       0.02028665      -0.00250393
Ga       4.04967964       6.26838520       8.06353338      -0.00672592      -0.02079120       0.02341257
Sn       1.13172142       1.08465721       2.65484079      -0.00279459      -0.00915931       0.00788398
Sn       2.68098122       2.32083993       5.03984848       0.00598426      -0.02346261      -0.02150704
Sn       4.89144092       7.06760733       5.05368211      -0.00597244       0.00438129       0.01978959
Sn       1.71551579       4.57795074       8.48294144       0.00306658       0.00342852      -0.00859599
5
Lattice="3.8334111583076145 -0.00319817977774692 -1.289679197876618 -0.4302958373038882 3.8055841882891723 -1.2884267086603736 0.1441300436755005 0.16367051096778953 6.774693807284395" Properties=species:S:1:pos:R:3:forces:R:3 structure_index=15 total_energy=-14.727405548095703 stress="-0.028781350702047348 -0.00601432379335165 -0.015435716137290001 -0.00601443974301219 -0.027996642515063286 -0.01818608120083809 -0.015435716137290001 -0.018186092376708984 -0.07070715725421906" pbc="T T T"
Li       2.73246936       3.32571768       0.13440445      -0.00174149       0.00115937      -0.00079603
Ga       1.78564074       0.12773324       3.67153640       0.00703737       0.00731484       0.02191704
Ga       1.02926280       1.42492869       1.42172599      -0.00050235      -0.00097735      -0.00172645
Ga       2.40457922       0.81808580      -0.82831816      -0.00480296      -0.00620273      -0.01922433
Sn       0.03546464       2.46016056       4.81006596       0.00000941      -0.00129410      -0.00017023
7
Lattice="4.282055791246846 -0.0006542755940243339 1.2988085915738108 1.9437444117139009 3.815755802762185 1.2977217372419276 -0.04758727855849148 -0.027667831626092872 7.850779605322401" Properties=species:S:1:pos:R:3:forces:R:3 structure_index=16 total_energy=-20.17043113708496 stress="-0.047264568507671356 0.003974048886448145 -0.012127570807933807 0.003974078223109245 -0.05381113663315773 -0.008993794210255146 -0.012127663008868694 -0.008993951603770256 -0.015248852781951427" pbc="T T T"
Li       2.36236027       3.12695631       1.99717855       0.00869459       0.00537817      -0.03189717
Li       3.11383309       3.58809359       7.21624746      -0.00259888      -0.00139043       0.00918083
Li       4.20550370       1.63167287       3.61958785       0.01152503       0.00701954      -0.03990015
Ga       2.71562220       0.72027719       8.53004578      -0.01474510      -0.00938731       0.04510307
Ga       1.97005179       0.26189719       3.27856983       0.00310295       0.00190728      -0.00026521
Ga       4.97819418       2.10658071       8.77858660      -0.00598177      -0.00386935       0.02071327
Sn       1.51357749       2.60705306       4.78247624       0.00000316       0.00034210      -0.00293463
16
Lattice="6.1174204837331425 0.03868590205468703 0.0029395044679872374 0.10294709447308455 5.937774885750784 0.0025418499272039227 -0.0021459648807678525 -0.006316848912009162 9.520721083986649" Properties=species:S:1:pos:R:3:forces:R:3 structure_index=17 total_energy=-48.8940315246582 stress="0.016886021941900253 -0.012372673489153385 9.407029892827268e-07 -0.012372663244605064 0.0051030972972512245 -0.00024073710665106773 8.823809594105114e-07 -0.00024087648489512503 0.00032924473634921014" pbc="T T T"
Li       3.83803838       4.28624084       6.74475100       0.00074841       0.00074207       0.00107249
Li       0.72992475       1.30332197       1.98262598      -0.00086275      -0.00036548       0.00110822
Li       0.78486907       4.27126006       1.98571314      -0.00175372      -0.00061272      -0.00029366
Ga       4.10304754       5.77718236       1.98697907       0.03616663      -0.00443675       0.00076896
Ga       3.58606028       2.79727673       1.98628212      -0.03745951       0.00072919      -0.00036517
Ga       5.40528991       5.79747622       9.16380992      -0.00177975       0.01262642      -0.02056561
Ga       0.95796403       2.82579871       6.74496373       0.00042807      -0.00519539       0.00081512
Ga       2.27297541       2.78013787       4.32776617       0.00289387      -0.01219140       0.01917047
Ga       0.60526205       5.71684009       6.74575105       0.00287116       0.00729252       0.00054576
Ga       5.40633662       5.79739704       4.33235171      -0.00285405       0.01239943       0.02037992
Ga       2.27640702       2.77759190       9.16437290       0.00067036      -0.01262371      -0.02174893
Sn       5.39526663       2.85436978       9.21410570       0.00055386       0.01284322       0.02222545
Sn       2.28669952       5.72031386       9.21821149      -0.00203633      -0.01253045       0.02166699
Sn       5.39261996       2.85419539       4.27910330       0.00182779       0.01305650      -0.02137459
Sn       2.28742147       5.72346672       4.27507157      -0.00108521      -0.01187797      -0.02221572
Sn       3.78278560       1.31705715       6.74647472       0.00167114       0.00014446      -0.00118969
16
Lattice="5.514741220388091 0.02351001532654397 0.05090034179763183 0.06443849452790841 6.041959207420547 -0.010522430759688933 0.06561263092253639 -0.05069372973488611 9.951398406864318" Properties=species:S:1:pos:R:3:forces:R:3 structure_index=18 total_energy=-49.11369705200195 stress="0.001164836110547185 -0.0007313925889320672 -0.0004579701053444296 -0.0007313152309507132 0.0016726191388443112 0.0006311401375569403 -0.0004577829095069319 0.0006310392636805773 0.0012461787555366755" pbc="T T T"
Li       2.78860942       4.74145921       9.81234138       0.01204763       0.00879304      -0.00341620
Li       5.42081562       3.04646750       9.83560042      -0.00139841      -0.01508268       0.01198523
Li       3.62304834       0.27606576       4.69962542      -0.01931642       0.03188330      -0.03216935
Li       0.75835958       4.60661210       4.71216414      -0.02343478       0.00824663       0.00049584
Ga       4.64585843       4.60389913       7.32987141       0.02960731      -0.00913449       0.02285091
Ga       4.55765308       1.64451436       7.29140826       0.00399520      -0.02309890      -0.00348392
Ga       1.82527102       0.06801952       2.30466893       0.02715730       0.02418466      -0.00742313
Ga       1.66949323       3.07610258       7.31315960      -0.00613823      -0.01905519       0.00912461
Ga       4.47814976       4.68470346       2.34558142      -0.01618519      -0.00800810       0.00066439
Ga       1.60408262       3.33067957       2.27559010      -0.01402809      -0.00333515      -0.00918104
Ga       4.44139482       1.71992351       2.32435262      -0.01977077       0.01685197      -0.00069933
Sn       0.80413864       1.56712681       4.60583565       0.00823257      -0.00117445       0.00567114
Sn       1.89095273       0.00118753       7.19451281       0.00944459      -0.02016445      -0.01152947
Sn       5.45788626      -0.00025465       9.89062699       0.02106304       0.00977288       0.00794942
Sn       3.50230238       3.33272976       4.82790258       0.00069012       0.01122064       0.02340805
Sn       2.67810463       1.80927857       9.88960578      -0.01196581      -0.01189970      -0.01424709
4
Lattice="4.440689617754513 0.0025044179854472187 -0.0018985021911019384 -0.0018863732531282415 4.0609594585661375 -0.001772439152669659 0.0021389314395296147 0.0011610001723038439 4.060928630077635" Properties=species:S:1:pos:R:3:forces:R:3 structure_index=19 total_energy=-11.800244331359863 stress="0.04791362211108208 0.0013331793015822768 0.0013863597996532917 0.0013331385562196374 0.0995163694024086 -0.005663183517754078 0.001386293675750494 -0.005663130898028612 0.09937348961830139" pbc="T T T"
Li       4.29019223       2.41041220       0.59836250      -0.00013341       0.00008505       0.00043897
Li       4.29220419       0.38061147       2.62986790      -0.00012911      -0.00023784      -0.00004147
Ga       2.07083232       0.37869047       0.60051534      -0.00008282      -0.00012621      -0.00037394
Sn       2.07081180       2.40970658       2.63001602       0.00034533       0.00027899      -0.00002357
6