# Thermal properties / unit cell (natom)

unit:
  temperature:   K
  free_energy:   kJ/mol
  entropy:       J/K/mol
  heat_capacity: J/K/mol

natom: 12   
cutoff_frequency: 0.00000
num_modes: 124848
num_integrated_modes: 124846

zero_point_energy:      10.4581719

thermal_properties:
- temperature:         0.0000000
  free_energy:        10.4581719
  entropy:             0.0000000
  heat_capacity:       0.0000000
  energy:             10.4581719

- temperature:        10.0000000
  free_energy:        10.4332378
  entropy:            10.3418467
  heat_capacity:      31.5815625
  energy:             10.5366563

- temperature:        20.0000000
  free_energy:        10.0998201
  entropy:            61.6269637
  heat_capacity:     126.9484810
  energy:             11.3323594

- temperature:        30.0000000
  free_energy:         9.1574593
  entropy:           126.9598445
  heat_capacity:     193.6775475
  energy:             12.9662547

- temperature:        40.0000000
  free_energy:         7.5753392
  entropy:           188.3145593
  heat_capacity:     231.0478606
  energy:             15.1079216

- temperature:        50.0000000
  free_energy:         5.4158003
  entropy:           242.3774026
  heat_capacity:     252.4291695
  energy:             17.5346704

- temperature:        60.0000000
  free_energy:         2.7505025
  entropy:           289.6405276
  heat_capacity:     265.4171914
  energy:             20.1289342

- temperature:        70.0000000
  free_energy:        -0.3581031
  entropy:           331.2270254
  heat_capacity:     273.7800983
  energy:             22.8277887

- temperature:        80.0000000
  free_energy:        -3.8586090
  entropy:           368.1778074
  heat_capacity:     279.4391769
  energy:             25.5956156

- temperature:        90.0000000
  free_energy:        -7.7090322
  entropy:           401.3343220
  heat_capacity:     283.4296030
  energy:             28.4110568

- temperature:       100.0000000
  free_energy:       -11.8748585
  entropy:           431.3549452
  heat_capacity:     286.3410410
  energy:             31.2606360

- temperature:       110.0000000
  free_energy:       -16.3274026
  entropy:           458.7534066
  heat_capacity:     288.5265935
  energy:             34.1354721

- temperature:       120.0000000
  free_energy:       -21.0425416
  entropy:           483.9336190
  heat_capacity:     290.2071024
  energy:             37.0294927

- temperature:       130.0000000
  free_energy:       -25.9997582
  entropy:           507.2167073
  heat_capacity:     291.5259752
  energy:             39.9384138

- temperature:       140.0000000
  free_energy:       -31.1814186
  entropy:           528.8610659
  heat_capacity:     292.5794110
  energy:             42.8591306

- temperature:       150.0000000
  free_energy:       -36.5722224
  entropy:           549.0770869
  heat_capacity:     293.4337895
  energy:             45.7893406

- temperature:       160.0000000
  free_energy:       -42.1587798
  entropy:           568.0380042
  heat_capacity:     294.1360603
  energy:             48.7273008

- temperature:       170.0000000
  free_energy:       -47.9292818
  entropy:           585.8879452
  heat_capacity:     294.7201598
  energy:             51.6716689

- temperature:       180.0000000
  free_energy:       -53.8732411
  entropy:           602.7479735
  heat_capacity:     295.2110959
  energy:             54.6213942

- temperature:       190.0000000
  free_energy:       -59.9812852
  entropy:           618.7206758
  heat_capacity:     295.6276156
  energy:             57.5756432

- temperature:       200.0000000
  free_energy:       -66.2449903
  entropy:           633.8936832
  heat_capacity:     295.9839907
  energy:             60.5337464

- temperature:       210.0000000
  free_energy:       -72.6567457
  entropy:           648.3424058
  heat_capacity:     296.2912377
  energy:             63.4951595

- temperature:       220.0000000
  free_energy:       -79.2096428
  entropy:           662.1321776
  heat_capacity:     296.5579676
  energy:             66.4594362

- temperature:       230.0000000
  free_energy:       -85.8973834
  entropy:           675.3199567
  heat_capacity:     296.7909881
  energy:             69.4262067

- temperature:       240.0000000
  free_energy:       -92.7142024
  entropy:           687.9556847
  heat_capacity:     296.9957380
  energy:             72.3951619

- temperature:       250.0000000
  free_energy:       -99.6548042
  entropy:           700.0833844
  heat_capacity:     297.1766038
  energy:             75.3660419

- temperature:       260.0000000
  free_energy:      -106.7143072
  entropy:           711.7420519
  heat_capacity:     297.3371546
  energy:             78.3386263

- temperature:       270.0000000
  free_energy:      -113.8881979
  entropy:           722.9663888
  heat_capacity:     297.4803179
  energy:             81.3127271

- temperature:       280.0000000
  free_energy:      -121.1722909
  entropy:           733.7874062
  heat_capacity:     297.6085131
  energy:             84.2881828

- temperature:       290.0000000
  free_energy:      -128.5626946
  entropy:           744.2329271
  heat_capacity:     297.7237534
  energy:             87.2648542

- temperature:       300.0000000
  free_energy:      -136.0557816
  entropy:           754.3280065
  heat_capacity:     297.8277252
  energy:             90.2426204

- temperature:       310.0000000
  free_energy:      -143.6481623
  entropy:           764.0952847
  heat_capacity:     297.9218493
  energy:             93.2213759

- temperature:       320.0000000
  free_energy:      -151.3366632
  entropy:           773.5552868
  heat_capacity:     298.0073299
  energy:             96.2010286

- temperature:       330.0000000
  free_energy:      -159.1183062
  entropy:           782.7266768
  heat_capacity:     298.0851926
  energy:             99.1814971

- temperature:       340.0000000
  free_energy:      -166.9902916
  entropy:           791.6264752
  heat_capacity:     298.1563156
  energy:            102.1627100

- temperature:       350.0000000
  free_energy:      -174.9499824
  entropy:           800.2702456
  heat_capacity:     298.2214540
  energy:            105.1446035

- temperature:       360.0000000
  free_energy:      -182.9948908
  entropy:           808.6722557
  heat_capacity:     298.2812604
  energy:            108.1271213

- temperature:       370.0000000
  free_energy:      -191.1226655
  entropy:           816.8456171
  heat_capacity:     298.3363007
  energy:            111.1102128

- temperature:       380.0000000
  free_energy:      -199.3310813
  entropy:           824.8024063
  heat_capacity:     298.3870678
  energy:            114.0938331

- temperature:       390.0000000
  free_energy:      -207.6180290
  entropy:           832.5537702
  heat_capacity:     298.4339925
  energy:            117.0779414

- temperature:       400.0000000
  free_energy:      -215.9815064
  entropy:           840.1100195
  heat_capacity:     298.4774528
  energy:            120.0625014

- temperature:       410.0000000
  free_energy:      -224.4196109
  entropy:           847.4807096
  heat_capacity:     298.5177812
  energy:            123.0474800

- temperature:       420.0000000
  free_energy:      -232.9305317
  entropy:           854.6747125
  heat_capacity:     298.5552715
  energy:            126.0328475

- temperature:       430.0000000
  free_energy:      -241.5125438
  entropy:           861.7002805
  heat_capacity:     298.5901835
  energy:            129.0185769

- temperature:       440.0000000
  free_energy:      -250.1640016
  entropy:           868.5651022
  heat_capacity:     298.6227483
  energy:            132.0046434

- temperature:       450.0000000
  free_energy:      -258.8833340
  entropy:           875.2763525
  heat_capacity:     298.6531716
  energy:            134.9910247

- temperature:       460.0000000
  free_energy:      -267.6690391
  entropy:           881.8407378
  heat_capacity:     298.6816369
  energy:            137.9777003

- temperature:       470.0000000
  free_energy:      -276.5196801
  entropy:           888.2645353
  heat_capacity:     298.7083088
  energy:            140.9646514

- temperature:       480.0000000
  free_energy:      -285.4338809
  entropy:           894.5536288
  heat_capacity:     298.7333346
  energy:            143.9518610

- temperature:       490.0000000
  free_energy:      -294.4103221
  entropy:           900.7135413
  heat_capacity:     298.7568469
  energy:            146.9393131

- temperature:       500.0000000
  free_energy:      -303.4477384
  entropy:           906.7494634
  heat_capacity:     298.7789655
  energy:            149.9269933

- temperature:       510.0000000
  free_energy:      -312.5449144
  entropy:           912.6662795
  heat_capacity:     298.7997982
  energy:            152.9148881

- temperature:       520.0000000
  free_energy:      -321.7006824
  entropy:           918.4685916
  heat_capacity:     298.8194428
  energy:            155.9029853

- temperature:       530.0000000
  free_energy:      -330.9139191
  entropy:           924.1607403
  heat_capacity:     298.8379879
  energy:            158.8912733

- temperature:       540.0000000
  free_energy:      -340.1835436
  entropy:           929.7468246
  heat_capacity:     298.8555140
  energy:            161.8797416

- temperature:       550.0000000
  free_energy:      -349.5085150
  entropy:           935.2307189
  heat_capacity:     298.8720943
  energy:            164.8683804

- temperature:       560.0000000
  free_energy:      -358.8878296
  entropy:           940.6160897
  heat_capacity:     298.8877958
  energy:            167.8571806

- temperature:       570.0000000
  free_energy:      -368.3205199
  entropy:           945.9064098
  heat_capacity:     298.9026794
  energy:            170.8461336

- temperature:       580.0000000
  free_energy:      -377.8056520
  entropy:           951.1049718
  heat_capacity:     298.9168009
  energy:            173.8352316

- temperature:       590.0000000
  free_energy:      -387.3423239
  entropy:           956.2149004
  heat_capacity:     298.9302115
  energy:            176.8244673

- temperature:       600.0000000
  free_energy:      -396.9296645
  entropy:           961.2391635
  heat_capacity:     298.9429581
  energy:            179.8138337

- temperature:       610.0000000
  free_energy:      -406.5668311
  entropy:           966.1805827
  heat_capacity:     298.9550837
  energy:            182.8033244

- temperature:       620.0000000
  free_energy:      -416.2530089
  entropy:           971.0418424
  heat_capacity:     298.9666282
  energy:            185.7929334

- temperature:       630.0000000
  free_energy:      -425.9874093
  entropy:           975.8254990
  heat_capacity:     298.9776279
  energy:            188.7826551

- temperature:       640.0000000
  free_energy:      -435.7692684
  entropy:           980.5339885
  heat_capacity:     298.9881167
  energy:            191.7724843

- temperature:       650.0000000
  free_energy:      -445.5978462
  entropy:           985.1696340
  heat_capacity:     298.9981257
  energy:            194.7624159

- temperature:       660.0000000
  free_energy:      -455.4724256
  entropy:           989.7346529
  heat_capacity:     299.0076837
  energy:            197.7524453

- temperature:       670.0000000
  free_energy:      -465.3923109
  entropy:           994.2311628
  heat_capacity:     299.0168174
  energy:            200.7425681

- temperature:       680.0000000
  free_energy:      -475.3568273
  entropy:           998.6611876
  heat_capacity:     299.0255515
  energy:            203.7327803

- temperature:       690.0000000
  free_energy:      -485.3653195
  entropy:          1003.0266629
  heat_capacity:     299.0339090
  energy:            206.7230779

- temperature:       700.0000000
  free_energy:      -495.4171516
  entropy:          1007.3294412
  heat_capacity:     299.0419113
  energy:            209.7134573

- temperature:       710.0000000
  free_energy:      -505.5117053
  entropy:          1011.5712962
  heat_capacity:     299.0495781
  energy:            212.7039150

- temperature:       720.0000000
  free_energy:      -515.6483801
  entropy:          1015.7539276
  heat_capacity:     299.0569281
  energy:            215.6944478

- temperature:       730.0000000
  free_energy:      -525.8265919
  entropy:          1019.8789650
  heat_capacity:     299.0639783
  energy:            218.6850526

- temperature:       740.0000000
  free_energy:      -536.0457726
  entropy:          1023.9479716
  heat_capacity:     299.0707449
  energy:            221.6757264

- temperature:       750.0000000
  free_energy:      -546.3053695
  entropy:          1027.9624481
  heat_capacity:     299.0772429
  energy:            224.6664666

- temperature:       760.0000000
  free_energy:      -556.6048446
  entropy:          1031.9238356
  heat_capacity:     299.0834862
  energy:            227.6572704

- temperature:       770.0000000
  free_energy:      -566.9436739
  entropy:          1035.8335187
  heat_capacity:     299.0894882
  energy:            230.6481355

- temperature:       780.0000000
  free_energy:      -577.3213471
  entropy:          1039.6928288
  heat_capacity:     299.0952609
  energy:            233.6390594

- temperature:       790.0000000
  free_energy:      -587.7373668
  entropy:          1043.5030466
  heat_capacity:     299.1008160
  energy:            236.6300400

- temperature:       800.0000000
  free_energy:      -598.1912485
  entropy:          1047.2654044
  heat_capacity:     299.1061642
  energy:            239.6210750

- temperature:       810.0000000
  free_energy:      -608.6825194
  entropy:          1050.9810888
  heat_capacity:     299.1113158
  energy:            242.6121626

- temperature:       820.0000000
  free_energy:      -619.2107185
  entropy:          1054.6512430
  heat_capacity:     299.1162801
  energy:            245.6033007

- temperature:       830.0000000
  free_energy:      -629.7753961
  entropy:          1058.2769684
  heat_capacity:     299.1210662
  energy:            248.5944876

- temperature:       840.0000000
  free_energy:      -640.3761133
  entropy:          1061.8593271
  heat_capacity:     299.1256826
  energy:            251.5857215

- temperature:       850.0000000
  free_energy:      -651.0124415
  entropy:          1065.3993438
  heat_capacity:     299.1301370
  energy:            254.5770007

- temperature:       860.0000000
  free_energy:      -661.6839624
  entropy:          1068.8980071
  heat_capacity:     299.1344371
  energy:            257.5683237

- temperature:       870.0000000
  free_energy:      -672.3902670
  entropy:          1072.3562713
  heat_capacity:     299.1385899
  energy:            260.5596890

- temperature:       880.0000000
  free_energy:      -683.1309562
  entropy:          1075.7750582
  heat_capacity:     299.1426019
  energy:            263.5510950

- temperature:       890.0000000
  free_energy:      -693.9056396
  entropy:          1079.1552586
  heat_capacity:     299.1464796
  energy:            266.5425406

- temperature:       900.0000000
  free_energy:      -704.7139356
  entropy:          1082.4977331
  heat_capacity:     299.1502289
  energy:            269.5340242

- temperature:       910.0000000
  free_energy:      -715.5554713
  entropy:          1085.8033143
  heat_capacity:     299.1538552
  energy:            272.5255447

- temperature:       920.0000000
  free_energy:      -726.4298816
  entropy:          1089.0728071
  heat_capacity:     299.1573641
  energy:            275.5171009

- temperature:       930.0000000
  free_energy:      -737.3368097
  entropy:          1092.3069907
  heat_capacity:     299.1607604
  energy:            278.5086916

- temperature:       940.0000000
  free_energy:      -748.2759062
  entropy:          1095.5066192
  heat_capacity:     299.1640490
  energy:            281.5003158

- temperature:       950.0000000
  free_energy:      -759.2468293
  entropy:          1098.6724227
  heat_capacity:     299.1672343
  energy:            284.4919723

- temperature:       960.0000000
  free_energy:      -770.2492443
  entropy:          1101.8051088
  heat_capacity:     299.1703206
  energy:            287.4836601

- temperature:       970.0000000
  free_energy:      -781.2828234
  entropy:          1104.9053627
  heat_capacity:     299.1733121
  energy:            290.4753784

- temperature:       980.0000000
  free_energy:      -792.3472457
  entropy:          1107.9738487
  heat_capacity:     299.1762125
  energy:            293.4671261

- temperature:       990.0000000
  free_energy:      -803.4421966
  entropy:          1111.0112111
  heat_capacity:     299.1790254
  energy:            296.4589023

- temperature:      1000.0000000
  free_energy:      -814.5673682
  entropy:          1114.0180745
  heat_capacity:     299.1817545
  energy:            299.4507063
