# Thermal properties / unit cell (natom)

unit:
  temperature:   K
  free_energy:   kJ/mol
  entropy:       J/K/mol
  heat_capacity: J/K/mol

natom: 10   
cutoff_frequency: 0.00000
num_modes: 187500
num_integrated_modes: 187498

zero_point_energy:      38.9679887

thermal_properties:
- temperature:         0.0000000
  free_energy:        38.9679887
  entropy:             0.0000000
  heat_capacity:       0.0000000
  energy:             38.9679887

- temperature:        10.0000000
  free_energy:        38.9656785
  entropy:             0.9039772
  heat_capacity:       2.7843737
  energy:             38.9747182

- temperature:        20.0000000
  free_energy:        38.9324894
  entropy:             6.7402043
  heat_capacity:      17.3568882
  energy:             39.0672935

- temperature:        30.0000000
  free_energy:        38.8154542
  entropy:            17.1490524
  heat_capacity:      34.8257095
  energy:             39.3299258

- temperature:        40.0000000
  free_energy:        38.5840447
  entropy:            29.2668600
  heat_capacity:      49.7451515
  energy:             39.7547191

- temperature:        50.0000000
  free_energy:        38.2287715
  entropy:            41.8164610
  heat_capacity:      63.0786455
  energy:             40.3195946

- temperature:        60.0000000
  free_energy:        37.7474456
  entropy:            54.4546565
  heat_capacity:      75.9175995
  energy:             41.0147250

- temperature:        70.0000000
  free_energy:        37.1396051
  entropy:            67.1158962
  heat_capacity:      88.6728991
  energy:             41.8377178

- temperature:        80.0000000
  free_energy:        36.4051045
  entropy:            79.7834977
  heat_capacity:     101.3027827
  energy:             42.7877843

- temperature:        90.0000000
  free_energy:        35.5440078
  entropy:            92.4287146
  heat_capacity:     113.5782115
  energy:             43.8625921

- temperature:       100.0000000
  free_energy:        34.5567560
  entropy:           105.0059627
  heat_capacity:     125.2571511
  energy:             45.0573523

- temperature:       110.0000000
  free_energy:        33.4442917
  entropy:           117.4623157
  heat_capacity:     136.1622893
  energy:             46.3651465

- temperature:       120.0000000
  free_energy:        32.2080838
  entropy:           129.7467044
  heat_capacity:     146.1967896
  energy:             47.7776883

- temperature:       130.0000000
  free_energy:        30.8500777
  entropy:           141.8153957
  heat_capacity:     155.3319578
  energy:             49.2860792

- temperature:       140.0000000
  free_energy:        29.3726100
  entropy:           153.6341522
  heat_capacity:     163.5872709
  energy:             50.8813913

- temperature:       150.0000000
  free_energy:        27.7783110
  entropy:           165.1782873
  heat_capacity:     171.0119571
  energy:             52.5550541

- temperature:       160.0000000
  free_energy:        26.0700143
  entropy:           176.4316456
  heat_capacity:     177.6709763
  energy:             54.2990776

- temperature:       170.0000000
  free_energy:        24.2506782
  entropy:           187.3851784
  heat_capacity:     183.6354385
  energy:             56.1061585

- temperature:       180.0000000
  free_energy:        22.3233220
  entropy:           198.0354834
  heat_capacity:     188.9765655
  energy:             57.9697090

- temperature:       190.0000000
  free_energy:        20.2909765
  entropy:           208.3834851
  heat_capacity:     193.7621850
  energy:             59.8838387

- temperature:       200.0000000
  free_energy:        18.1566464
  entropy:           218.4333198
  heat_capacity:     198.0549127
  energy:             61.8433104

- temperature:       210.0000000
  free_energy:        15.9232827
  entropy:           228.1914324
  heat_capacity:     201.9114049
  energy:             63.8434835

- temperature:       220.0000000
  free_energy:        13.5937635
  entropy:           237.6658644
  heat_capacity:     205.3822528
  energy:             65.8802537

- temperature:       230.0000000
  free_energy:        11.1708808
  entropy:           246.8657051
  heat_capacity:     208.5122415
  energy:             67.9499930

- temperature:       240.0000000
  free_energy:         8.6573323
  entropy:           255.8006746
  heat_capacity:     211.3407938
  energy:             70.0494942

- temperature:       250.0000000
  free_energy:         6.0557168
  entropy:           264.4808122
  heat_capacity:     213.9024928
  energy:             72.1759198

- temperature:       260.0000000
  free_energy:         3.3685318
  entropy:           272.9162468
  heat_capacity:     216.2276177
  energy:             74.3267559

- temperature:       270.0000000
  free_energy:         0.5981740
  entropy:           281.1170307
  heat_capacity:     218.3426583
  energy:             76.4997723

- temperature:       280.0000000
  free_energy:        -2.2530596
  entropy:           289.0930213
  heat_capacity:     220.2707894
  energy:             78.6929864

- temperature:       290.0000000
  free_energy:        -5.1829691
  entropy:           296.8538001
  heat_capacity:     222.0322980
  energy:             80.9046329

- temperature:       300.0000000
  free_energy:        -8.1894491
  entropy:           304.4086184
  heat_capacity:     223.6449621
  energy:             83.1331365

- temperature:       310.0000000
  free_energy:       -11.2704846
  entropy:           311.7663640
  heat_capacity:     225.1243819
  energy:             85.3770882

- temperature:       320.0000000
  free_energy:       -14.4241478
  entropy:           318.9355427
  heat_capacity:     226.4842689
  energy:             87.6352258

- temperature:       330.0000000
  free_energy:       -17.6485940
  entropy:           325.9242714
  heat_capacity:     227.7366959
  energy:             89.9064156

- temperature:       340.0000000
  free_energy:       -20.9420576
  entropy:           332.7402787
  heat_capacity:     228.8923129
  energy:             92.1896372

- temperature:       350.0000000
  free_energy:       -24.3028484
  entropy:           339.3909114
  heat_capacity:     229.9605331
  energy:             94.4839706

- temperature:       360.0000000
  free_energy:       -27.7293478
  entropy:           345.8831452
  heat_capacity:     230.9496936
  energy:             96.7885844

- temperature:       370.0000000
  free_energy:       -31.2200054
  entropy:           352.2235975
  heat_capacity:     231.8671929
  energy:             99.1027257

- temperature:       380.0000000
  free_energy:       -34.7733348
  entropy:           358.4185427
  heat_capacity:     232.7196105
  energy:            101.4257114

- temperature:       390.0000000
  free_energy:       -38.3879111
  entropy:           364.4739273
  heat_capacity:     233.5128095
  energy:            103.7569206

- temperature:       400.0000000
  free_energy:       -42.0623670
  entropy:           370.3953867
  heat_capacity:     234.2520244
  energy:            106.0957877

- temperature:       410.0000000
  free_energy:       -45.7953902
  entropy:           376.1882610
  heat_capacity:     234.9419388
  energy:            108.4417968

- temperature:       420.0000000
  free_energy:       -49.5857205
  entropy:           381.8576111
  heat_capacity:     235.5867509
  energy:            110.7944762

- temperature:       430.0000000
  free_energy:       -53.4321467
  entropy:           387.4082344
  heat_capacity:     236.1902311
  energy:            113.1533941

- temperature:       440.0000000
  free_energy:       -57.3335046
  entropy:           392.8446795
  heat_capacity:     236.7557724
  energy:            115.5181544

- temperature:       450.0000000
  free_energy:       -61.2886741
  entropy:           398.1712609
  heat_capacity:     237.2864333
  energy:            117.8883933

- temperature:       460.0000000
  free_energy:       -65.2965773
  entropy:           403.3920724
  heat_capacity:     237.7849761
  energy:            120.2637760

- temperature:       470.0000000
  free_energy:       -69.3561760
  entropy:           408.5110002
  heat_capacity:     238.2538997
  energy:            122.6439941

- temperature:       480.0000000
  free_energy:       -73.4664700
  entropy:           413.5317351
  heat_capacity:     238.6954688
  energy:            125.0287629

- temperature:       490.0000000
  free_energy:       -77.6264951
  entropy:           418.4577842
  heat_capacity:     239.1117393
  energy:            127.4178192

- temperature:       500.0000000
  free_energy:       -81.8353212
  entropy:           423.2924815
  heat_capacity:     239.5045802
  energy:            129.8109196

- temperature:       510.0000000
  free_energy:       -86.0920508
  entropy:           428.0389984
  heat_capacity:     239.8756938
  energy:            132.2078384

- temperature:       520.0000000
  free_energy:       -90.3958173
  entropy:           432.7003529
  heat_capacity:     240.2266327
  energy:            134.6083662

- temperature:       530.0000000
  free_energy:       -94.7457836
  entropy:           437.2794190
  heat_capacity:     240.5588151
  energy:            137.0123085

- temperature:       540.0000000
  free_energy:       -99.1411405
  entropy:           441.7789349
  heat_capacity:     240.8735381
  energy:            139.4194843

- temperature:       550.0000000
  free_energy:      -103.5811058
  entropy:           446.2015107
  heat_capacity:     241.1719903
  energy:            141.8297251

- temperature:       560.0000000
  free_energy:      -108.0649226
  entropy:           450.5496359
  heat_capacity:     241.4552619
  energy:            144.2428735

- temperature:       570.0000000
  free_energy:      -112.5918583
  entropy:           454.8256865
  heat_capacity:     241.7243543
  energy:            146.6587830

- temperature:       580.0000000
  free_energy:      -117.1612036
  entropy:           459.0319312
  heat_capacity:     241.9801886
  energy:            149.0773164

- temperature:       590.0000000
  free_energy:      -121.7722715
  entropy:           463.1705371
  heat_capacity:     242.2236131
  energy:            151.4983455

- temperature:       600.0000000
  free_energy:      -126.4243958
  entropy:           467.2435763
  heat_capacity:     242.4554099
  energy:            153.9217500

- temperature:       610.0000000
  free_energy:      -131.1169310
  entropy:           471.2530301
  heat_capacity:     242.6763013
  energy:            156.3474173

- temperature:       620.0000000
  free_energy:      -135.8492508
  entropy:           475.2007946
  heat_capacity:     242.8869546
  energy:            158.7752419

- temperature:       630.0000000
  free_energy:      -140.6207474
  entropy:           479.0886852
  heat_capacity:     243.0879874
  energy:            161.2051243

- temperature:       640.0000000
  free_energy:      -145.4308307
  entropy:           482.9184409
  heat_capacity:     243.2799720
  energy:            163.6369715

- temperature:       650.0000000
  free_energy:      -150.2789280
  entropy:           486.6917282
  heat_capacity:     243.4634389
  energy:            166.0706954

- temperature:       660.0000000
  free_energy:      -155.1644824
  entropy:           490.4101453
  heat_capacity:     243.6388807
  energy:            168.5062135

- temperature:       670.0000000
  free_energy:      -160.0869531
  entropy:           494.0752252
  heat_capacity:     243.8067551
  energy:            170.9434478

- temperature:       680.0000000
  free_energy:      -165.0458140
  entropy:           497.6884394
  heat_capacity:     243.9674881
  energy:            173.3823248

- temperature:       690.0000000
  free_energy:      -170.0405537
  entropy:           501.2512011
  heat_capacity:     244.1214760
  energy:            175.8227751

- temperature:       700.0000000
  free_energy:      -175.0706744
  entropy:           504.7648678
  heat_capacity:     244.2690886
  energy:            178.2647331

- temperature:       710.0000000
  free_energy:      -180.1356918
  entropy:           508.2307444
  heat_capacity:     244.4106706
  energy:            180.7081367

- temperature:       720.0000000
  free_energy:      -185.2351342
  entropy:           511.6500856
  heat_capacity:     244.5465439
  energy:            183.1529274

- temperature:       730.0000000
  free_energy:      -190.3685424
  entropy:           515.0240986
  heat_capacity:     244.6770093
  energy:            185.5990496

- temperature:       740.0000000
  free_energy:      -195.5354689
  entropy:           518.3539452
  heat_capacity:     244.8023485
  energy:            188.0464505

- temperature:       750.0000000
  free_energy:      -200.7354778
  entropy:           521.6407442
  heat_capacity:     244.9228248
  energy:            190.4950804

- temperature:       760.0000000
  free_energy:      -205.9681439
  entropy:           524.8855731
  heat_capacity:     245.0386851
  energy:            192.9448917

- temperature:       770.0000000
  free_energy:      -211.2330528
  entropy:           528.0894705
  heat_capacity:     245.1501609
  energy:            195.3958394

- temperature:       780.0000000
  free_energy:      -216.5298002
  entropy:           531.2534375
  heat_capacity:     245.2574695
  energy:            197.8478810

- temperature:       790.0000000
  free_energy:      -221.8579917
  entropy:           534.3784397
  heat_capacity:     245.3608149
  energy:            200.3009756

- temperature:       800.0000000
  free_energy:      -227.2172423
  entropy:           537.4654087
  heat_capacity:     245.4603889
  energy:            202.7550847

- temperature:       810.0000000
  free_energy:      -232.6071761
  entropy:           540.5152439
  heat_capacity:     245.5563717
  energy:            205.2101714

- temperature:       820.0000000
  free_energy:      -238.0274262
  entropy:           543.5288134
  heat_capacity:     245.6489333
  energy:            207.6662007

- temperature:       830.0000000
  free_energy:      -243.4776343
  entropy:           546.5069560
  heat_capacity:     245.7382335
  energy:            210.1231392

- temperature:       840.0000000
  free_energy:      -248.9574500
  entropy:           549.4504822
  heat_capacity:     245.8244229
  energy:            212.5809550

- temperature:       850.0000000
  free_energy:      -254.4665311
  entropy:           552.3601752
  heat_capacity:     245.9076438
  energy:            215.0396178

- temperature:       860.0000000
  free_energy:      -260.0045432
  entropy:           555.2367927
  heat_capacity:     245.9880303
  energy:            217.4990985

- temperature:       870.0000000
  free_energy:      -265.5711592
  entropy:           558.0810673
  heat_capacity:     246.0657092
  energy:            219.9593694

- temperature:       880.0000000
  free_energy:      -271.1660591
  entropy:           560.8937082
  heat_capacity:     246.1408000
  energy:            222.4204040

- temperature:       890.0000000
  free_energy:      -276.7889302
  entropy:           563.6754015
  heat_capacity:     246.2134162
  energy:            224.8821771

- temperature:       900.0000000
  free_energy:      -282.4394662
  entropy:           566.4268119
  heat_capacity:     246.2836647
  energy:            227.3446645

- temperature:       910.0000000
  free_energy:      -288.1173676
  entropy:           569.1485830
  heat_capacity:     246.3516469
  energy:            229.8078429

- temperature:       920.0000000
  free_energy:      -293.8223412
  entropy:           571.8413384
  heat_capacity:     246.4174590
  energy:            232.2716902

- temperature:       930.0000000
  free_energy:      -299.5540997
  entropy:           574.5056826
  heat_capacity:     246.4811919
  energy:            234.7361851

- temperature:       940.0000000
  free_energy:      -305.3123621
  entropy:           577.1422015
  heat_capacity:     246.5429321
  energy:            237.2013074

- temperature:       950.0000000
  free_energy:      -311.0968529
  entropy:           579.7514634
  heat_capacity:     246.6027614
  energy:            239.6670374

- temperature:       960.0000000
  free_energy:      -316.9073023
  entropy:           582.3340196
  heat_capacity:     246.6607575
  energy:            242.1333565

- temperature:       970.0000000
  free_energy:      -322.7434460
  entropy:           584.8904049
  heat_capacity:     246.7169944
  energy:            244.6002467

- temperature:       980.0000000
  free_energy:      -328.6050249
  entropy:           587.4211384
  heat_capacity:     246.7715423
  energy:            247.0676907

- temperature:       990.0000000
  free_energy:      -334.4917850
  entropy:           589.9267243
  heat_capacity:     246.8244678
  energy:            249.5356721

- temperature:      1000.0000000
  free_energy:      -340.4034772
  entropy:           592.4076521
  heat_capacity:     246.8758345
  energy:            252.0041749
