10
Lattice="4.454840754273611 0.0017137470675826735 -0.0012637659961654982 -2.228809452643524 3.8572863158709585 0.0005514823555011969 0.0038653367975823266 0.000798660311248944 13.09664462241205" Properties=species:S:1:pos:R:3:forces:R:3 structure_index=0 total_energy=-30.11799430847168 stress="-0.021034637466073036 -1.1305134648864623e-05 -1.8195307347923517e-05 -1.1372665539965965e-05 -0.020958583801984787 -5.2230909204808995e-05 -1.840176082623657e-05 -5.225676068221219e-05 -0.013047437183558941" pbc="T T T"
Li       2.60175808       1.05595568      10.61973660      -0.00011588       0.00002782      -0.04697138
Li       2.59960981       1.05739352       4.38026294       0.00003534      -0.00024136       0.01702147
Li       2.60013319       1.05636268       7.49294871       0.00008904      -0.00001906      -0.00506158
Ga      -1.85600751       3.62700900       5.84715725      -0.00063055       0.00000693       0.00472094
Ga       0.37179757       2.34167132       6.25719715       0.00092278       0.00031745       0.00037219
Ga      -1.85377846       3.62631564      11.12347831       0.00017466       0.00025460       0.04873934
Ga      -1.85623509       3.62784269       3.16159427      -0.00004502      -0.00039733      -0.00902414
Sn       0.37465294       2.34127252      12.45543166      -0.00025875      -0.00000772       0.00286056
Sn       0.37146954       2.34256712       2.30358412      -0.00018106      -0.00011989      -0.00090829
Sn       0.37305816       2.34121271       9.15535960       0.00000942       0.00017856      -0.01174904
4
Lattice="4.340898023907725 0.00025966179563633856 -0.00017238791259915814 -0.00028222488692421536 4.288649780201203 -0.0002527187275331517 0.0001534691486460578 0.00014582049242191215 4.28845524501065" Properties=species:S:1:pos:R:3:forces:R:3 structure_index=1 total_energy=-12.158539772033691 stress="-0.07136326283216476 -0.00014492793707177043 -7.69729376770556e-05 -0.00014500923862215132 0.05769903585314751 -0.00030053022783249617 -7.696453394601122e-05 -0.0003004836034961045 0.05624106898903847" pbc="T T T"
Li       1.89297035       1.60287033       2.81549769       0.00005372       0.00024887      -0.00068093
Ga       4.06316943       3.74753432       2.81574522       0.00037065       0.00031095      -0.00176496
Ga       4.06356085       1.60375831       0.67079623      -0.00043690      -0.00139185       0.00086849
Sn       1.89280748       3.74731565       0.67087134       0.00001252       0.00083202       0.00157740
4
Lattice="4.061931022597898 -0.0014107686730710578 0.001222230938497179 0.001434108575260368 4.062067178249103 0.0024780853242117487 -0.0010858319874956868 -0.002195622895308108 4.432237114126802" Properties=species:S:1:pos:R:3:forces:R:3 structure_index=2 total_energy=-11.800219535827637 stress="0.08300434052944183 0.00023521723051089793 0.000812799611594528 0.00023516008513979614 0.0836801528930664 0.0016513032605871558 0.0008128751069307327 0.0016513974405825138 -0.049585212022066116" pbc="T T T"
Li       0.44047428       1.33318636       2.04979648       0.00081924      -0.00016014      -0.00083689
Li       2.47269480       3.36396557       2.05144709      -0.00030719      -0.00086271      -0.00044478
Ga       2.47115768       1.33142874       4.26618608       0.00155476      -0.00186480       0.00027139
Sn       0.44144014       3.36250430       4.26671355      -0.00206681       0.00288765       0.00101028
5
Lattice="3.7955408521245584 0.003541187915055261 1.641014456870138 1.8813039790852892 4.957294016439547 0.8360194103627618 -0.024968319519401917 0.005156153000067279 5.288775289960612" Properties=species:S:1:pos:R:3:forces:R:3 structure_index=3 total_energy=-14.936027526855469 stress="0.04983345419168472 -0.020459407940506935 0.03583882004022598 -0.020459217950701714 0.0067784772254526615 0.006806967314332724 0.03583887219429016 0.006806868128478527 0.0488041527569294" pbc="T T T"
Li       1.36780239       2.98014767       1.34853973      -0.01196596       0.00053225       0.02593577
Ga       2.92160457       0.87167378       2.98064845       0.00379457       0.01436447      -0.00524943
Ga       3.60994353       4.90408218       6.59026567       0.00771155      -0.02143725      -0.01741176
Ga       2.53284863       4.01764724       3.86877544       0.00174354       0.01537060      -0.00032912
Sn       4.03142645       1.98318469       5.62697817      -0.00128370      -0.00883009      -0.00294547
10
Lattice="3.1471726790807906 -0.00045599986050629866 -0.00016529518326233118 0.00046193271130904896 3.14717182186591 -0.0002668409754738009 0.00018934794832948428 0.002017894903213034 18.112501564169758" Properties=species:S:1:pos:R:3:forces:R:3 structure_index=4 total_energy=-27.95107078552246 stress="-0.017280086874961853 4.334136247052811e-05 6.394208867277484e-06 4.3314412323525175e-05 -0.017291679978370667 -3.5092831240035594e-05 6.125814707047539e-06 -3.5146706068189815e-05 0.028589412569999695" pbc="T T T"
Li       2.17746152       1.60642471       3.92701333      -0.00002381      -0.00000145      -0.02009656
Li       2.17723006       1.60798138      15.61470479      -0.00001724       0.00011057       0.03108104
Li       2.17700664       1.60771797      12.46671418       0.00007727      -0.00008714       0.01725696
Li       2.17726657       1.60634569       0.77861122      -0.00002983      -0.00018093      -0.03084655
Ga       0.60324929       0.03390841      10.45506659       0.00011956       0.00003957       0.01305744
Ga       0.60351847       0.03486691      17.25317606       0.00001077      -0.00011494      -0.00004549
Ga       0.60353343       0.03298244       2.34178515       0.00002690       0.00010468      -0.03656524
Ga       0.60382417       0.03303790       5.93535099       0.00002109       0.00008511      -0.00980982
Ga       0.60330025       0.03450250      14.05186834       0.00000562      -0.00001251       0.03684390
Sn       2.17858341       1.60641900       8.19531160      -0.00019037       0.00005702      -0.00087564
10
Lattice="2.986273232549301 -0.0007681246653088377 0.0013022731371311771 0.0021729358210711893 8.378017956654734 0.0015967553627133817 -0.0036184660532750136 -0.0014565448105178407 8.36746129308403" Properties=species:S:1:pos:R:3:forces:R:3 structure_index=5 total_energy=-30.95670509338379 stress="-0.008213826455175877 -3.6270114378567087e-06 1.3265598681755364e-06 -3.745937192434212e-06 -0.016454821452498436 1.5181518392637372e-05 1.3275760011310922e-06 1.5117637303774245e-05 -0.01773497834801674" pbc="T T T"
Li       0.93173673       0.98876348       3.11803426       0.00000636       0.03048068      -0.03285361
Li       0.93171815       5.17710289       5.36581603       0.00005787       0.03138965       0.03368267
Li       0.93160142       7.11230636       7.30326010      -0.00005910      -0.03141910      -0.03375251
Li       0.93302531       2.92404348       1.18187329      -0.00000775      -0.03044447       0.03291411
Ga       2.42661383       6.14506697       2.15143312      -0.00000553      -0.00000235       0.00000968
Ga       2.42368949       1.95532240       6.33435314       0.00001339       0.00000307       0.00000211
Sn       2.42373008       4.62603113       7.85550128      -0.00000780      -0.02344263       0.01756132
Sn       2.42585131       0.43838821       0.62975147      -0.00004514      -0.02363054      -0.01760926
Sn       2.42517673       3.47370727       3.67148584       0.00005578       0.02361865       0.01762410
Sn       2.42586854       7.66261910       4.81484692      -0.00000811       0.02344707      -0.01757860
12
Lattice="4.941898162895567 0.0015834510904760555 0.00109391702814797 2.4690335266082597 4.319190127479901 -0.014840025688245028 -0.007381518218877811 -0.05886176210855985 11.96610339455011" Properties=species:S:1:pos:R:3:forces:R:3 structure_index=6 total_energy=-36.971126556396484 stress="0.006278425455093384 -5.056127338320948e-05 -5.1018647354794666e-05 -5.044762292527594e-05 0.008377168327569962 -0.0014996080426499248 -5.101791612105444e-05 -0.0014996060635894537 0.006914657540619373" pbc="T T T"
Li       3.18114156       0.12905352       3.97875985      -0.00104068      -0.01718784      -0.00770623
Li       3.18074029       0.11507874       0.97958867      -0.00014166       0.00004881       0.00055530
Li       3.17523542       0.08092422       6.93977532       0.00004215      -0.00396874      -0.00714761
Ga       5.65058552       1.52708537       2.67996539       0.00003143       0.00705819       0.02182577
Ga       3.17196309       2.92995194       8.42916620       0.00045769       0.00233127       0.01619520
Ga       3.17957785       3.00665607      -0.52001410      -0.00025662      -0.00527612      -0.03945320
Ga       5.64374789       1.49330529       8.35863653       0.00032287       0.00209346      -0.02135424
Ga       5.64713467       1.51501368       5.51605671       0.00018969       0.00671143       0.01092794
Sn       5.64364610       1.49987920      11.56802642      -0.00017672       0.00003324       0.05763691
Sn       3.17317739       0.05102751       9.85375659       0.00006329       0.00589951      -0.01429345
Sn       3.17921417       2.97580392       2.40627676       0.00018278       0.00220722      -0.03124312
Sn       3.17559580       2.96562917       5.51586375       0.00032576       0.00004956       0.01405672
10
Lattice="4.484520695579584 -0.0033536429184120708 -1.3408513508513908 0.00458830449968849 5.83453961091991 0.0008696572664272404 -0.18341437313273584 -0.002904098638976117 7.551937794418101" Properties=species:S:1:pos:R:3:forces:R:3 structure_index=7 total_energy=-29.57236099243164 stress="0.007451503537595272 -2.459083407302387e-05 -0.001015742658637464 -2.4649667466292158e-05 0.04025794193148613 -0.00010048635886050761 -0.0010158674558624625 -0.00010040801134891808 0.00045803090324625373" pbc="T T T"
Li       1.90433604       3.25157799       6.77625296      -0.00709486       0.04264755      -0.01923399
Li       1.12547882       1.87231195       4.17596598      -0.01434306       0.00142945      -0.04840284
Li       2.98674014       3.29847128       2.23137889       0.00161176       0.02583987       0.00300239
Li       1.90195210       0.49245130       6.77545134      -0.00701988      -0.04434710      -0.01931039
Li       2.98402145       0.44621037       2.23053371       0.00220821      -0.02665832       0.00346273
Ga       3.75402423       1.86963763       4.79564567       0.00700063       0.00077851       0.02681706
Ga       1.10388033       4.79070646       4.09988167       0.00368617       0.00002343       0.02375769
Sn       0.31749116       4.79237939       1.47242544       0.00770372       0.00020784       0.02199703
Sn       0.29207276       1.87514469       1.38852059      -0.00448895      -0.00003963      -0.00821370
Sn       3.76700523       4.78702523       4.83948881       0.01073625       0.00011841       0.01612397
4
Lattice="4.440497283511052 0.0002766392426572893 -0.0003937284091143781 -0.00020893012668569825 4.06119458629529 -0.0004170376964860558 0.00044319891180550144 0.00027183921109048164 4.061181324555117" Properties=species:S:1:pos:R:3:forces:R:3 structure_index=8 total_energy=-11.800239562988281 stress="0.04779789224267006 0.00014439049118664116 0.00028400938026607037 0.00014434070908464491 0.10356862097978592 -0.0013441916089504957 0.0002840915694832802 -0.0013441691407933831 0.10350608080625534" pbc="T T T"
Li       2.87527727       2.96960139       3.89867663      -0.00014028       0.00021348      -0.00005201
Li       2.87494827       0.93896731       1.86812307       0.00025746      -0.00003023       0.00034859
Ga       0.65496308       0.93903600       3.89914868       0.00010804      -0.00016495      -0.00002447
Sn       0.65476768       2.96947373       1.86838165      -0.00022522      -0.00001831      -0.00027212
5
Lattice="4.519937805266086 -0.008350582621105086 1.3480394193158414 2.23893731726865 3.8337794120060953 0.7686719384840747 0.41060380484927683 -0.12459361843996668 6.883517347326346" Properties=species:S:1:pos:R:3:forces:R:3 structure_index=9 total_energy=-15.672298431396484 stress="0.004848691634833813 0.0005855729687027633 0.002467442536726594 0.0005857407813891768 0.03754580020904541 0.002188862534239888 0.002467256970703602 0.0021886895410716534 0.02189074084162712" pbc="T T T"
Li       3.43016304       1.32437364       4.43125779      -0.00450503       0.02260948       0.01607349
Ga       0.48301425      -0.19536791       6.05597524      -0.00047083      -0.03406870      -0.00358345
Ga       6.03107713       2.52925050       3.96778987       0.00988645       0.01876552      -0.03456884
Sn       5.23350973       2.42152050       6.64570041      -0.00220463      -0.00010827       0.01088756
Sn       1.75634026      -0.06109760       1.78050344      -0.00270597      -0.00719804       0.01119125
4
Lattice="4.055071517983147 0.00015381723670167353 6.559443941285064e-05 -0.00016841661166963585 4.055726303807215 -0.0010931844226503783 -7.733190671988678e-05 0.001296788620954546 4.449308388912078" Properties=species:S:1:pos:R:3:forces:R:3 structure_index=10 total_energy=-11.800254821777344 stress="0.021584320813417435 -0.0001376765430904925 -1.8911021470557898e-05 -0.00013770432269666344 0.024955714121460915 0.0003197530750185251 -1.903528391267173e-05 0.0003196877660229802 0.10476899147033691" pbc="T T T"
Li       3.95351086       2.90092723       3.34810990       0.00015765       0.00019341      -0.00018384
Li       1.92607995       0.87314913       3.34832073       0.00024848      -0.00014086       0.00038162
Ga       1.92610465       2.90050297       1.12329724       0.00059161      -0.00103425      -0.00002438
Sn       3.95392789       0.87241852       1.12391072      -0.00099774       0.00098169      -0.00017340
12
Lattice="3.9859266043226147 0.00014442100071716053 0.0005753465756913058 -0.00019309977941375312 5.878015011224386 -0.07079142068371118 -0.0012090573334200723 -0.13928274145014588 9.019966413449929" Properties=species:S:1:pos:R:3:forces:R:3 structure_index=11 total_energy=-34.164852142333984 stress="0.029025724157691002 -6.258678695303388e-06 2.2299258489510976e-05 -6.287986252573319e-06 0.0260773953050375 0.0032412789296358824 2.228619450761471e-05 0.0032411597203463316 0.027441632002592087" pbc="T T T"
Li       3.67341880       1.95661696       2.49148754       0.00044020       0.01958487       0.01872274
Li       1.68031888       3.35887646       3.90834787       0.00016812      -0.00781558       0.00755249
Li       1.68016186       0.39327787       6.83935194      -0.00024052      -0.02385738      -0.01745765
Li       3.67308403       4.86664257       5.35271352       0.00009090       0.00834231      -0.00593307
Li       1.68098095       0.52173787       0.96727521      -0.00003634       0.03182971       0.03670802
Li       3.67270031       1.82791140       8.36351892       0.00032106      -0.03468366      -0.03439363
Ga       3.67272682       4.89414610       8.39914273       0.00002615      -0.02721172       0.01817070
Ga       1.68048525       0.53437459       4.00645230      -0.00003864       0.00664021      -0.01372015
Ga       3.67310309       1.81368503       5.32461963       0.00033345      -0.00608878       0.01465265
Ga       1.68096961       3.33170666       0.86423332      -0.00009876       0.02904005      -0.02149110
Sn       1.68000046       3.34149943       6.89354664      -0.00020004      -0.01753287      -0.00432704
Sn       3.67382705       4.88482771       2.36891712      -0.00076561       0.02175282       0.00151607
12
Lattice="5.465538834060553 0.0005494504146277312 0.001340786205513601 -0.0015505824435962919 6.243365282624546 0.0004982343483697531 -0.0017556143687138506 -0.0008354698339765236 7.310268607152339" Properties=species:S:1:pos:R:3:forces:R:3 structure_index=12 total_energy=-34.02779006958008 stress="-0.003949091769754887 -1.885898927866947e-05 8.695614269527141e-06 -1.8817267118720338e-05 0.0004806903307326138 9.911337110679597e-05 8.599607099313289e-06 9.930448868544772e-05 -0.016300750896334648" pbc="T T T"
Li       4.86270629       1.59230084       5.36407874      -0.00060969      -0.01251620       0.02137800
Li       2.12897193       5.00693292       1.70980377      -0.00023233       0.00730051       0.01931613
Li       2.12917339       1.58621935       7.21687205      -0.00044235      -0.00701087      -0.01940776
Li       4.86073937       5.00049399       3.56351575       0.00026478       0.01261948      -0.02107027
Ga       3.49592040       1.44227877       2.63794160       0.00171286      -0.00955793       0.00039000
Ga       0.76129034       5.15608994       6.29230370       0.00094218       0.01164970       0.00025819
Ga       2.12839318       0.17327595       4.46135489      -0.00011596      -0.00083713      -0.00192607
Ga       3.49470978       5.15664027       6.29068864      -0.00054155       0.01075385      -0.00051777
Ga       0.76315348       1.44056863       2.63519019      -0.00070945      -0.00892780      -0.00053313
Ga       4.86150736       0.17478433       0.81111103      -0.00013154      -0.00285575       0.00164142
Sn       2.12705158       3.29659077       4.46667910      -0.00050623      -0.00112930       0.00229676
Sn       4.86109491       3.29468768       0.80429175       0.00036924       0.00051139      -0.00182554
10
Lattice="2.9739702524182503 -0.0001518934234589703 -0.00022794336864369506 0.000361991885522067 7.737205563348628 -0.0004776668411085229 0.0006301346260718458 0.0021500884731429663 7.734591764962973" Properties=species:S:1:pos:R:3:forces:R:3 structure_index=13 total_energy=-27.92919921875 stress="0.03898430988192558 0.00011007120338035747 -9.696687629912049e-05 0.0001100057052099146 0.02058776281774044 0.00035279965959489346 -9.713727922644466e-05 0.00035310816019773483 0.02198997139930725" pbc="T T T"
Li       1.93610785       2.34424497       4.76092989      -0.00026121       0.01747527       0.00524267
Li       1.93643659       6.18741718       3.69003613      -0.00083605       0.00443671      -0.01542251
Li       1.93655152       5.11432007       7.58479300      -0.00030188      -0.01950087      -0.00607850
Li       1.93574898       1.27159327       0.92374333      -0.00007824      -0.00082707       0.01417680
Ga       0.44940708       2.87956453       7.16787202      -0.00010910      -0.02393090      -0.03503647
Ga       0.44884233       3.72938299       2.30634043       0.00011048      -0.00022643      -0.00106006
Ga       0.44902138       4.57851045       5.17557404       0.00079802       0.02460771       0.03843934
Ga       0.44881464       0.85593672       3.15585573       0.00032462      -0.03717600       0.02615980
Ga       0.44898222       6.60157962       1.45580877       0.00039655       0.03602794      -0.02455151
Sn       0.44950330       7.59909237       6.17490614      -0.00004321      -0.00088639      -0.00186965
10
Lattice="4.328379125965183 0.0019924731085608736 -0.8994579203431373 -0.0026388169636161933 4.4177740614826195 -0.0027229593659118534 -0.08496783220796277 0.005746273292193678 10.460789692354163" Properties=species:S:1:pos:R:3:forces:R:3 structure_index=14 total_energy=-29.79513931274414 stress="0.012941981665790081 -0.00023154965310823172 0.002279779175296426 -0.0002313552686246112 0.017532076686620712 -0.0001511118607595563 0.002279791049659252 -0.0001511244772700593 0.024757910519838333" pbc="T T T"
Li       3.34754622       4.40820854       9.33132762      -0.00481219      -0.00022596      -0.01844215
Li       2.06278722       2.19540575       3.14322490       0.00078067      -0.00024286       0.00195380
Ga       1.23739189       2.19786522      10.04273431      -0.00148835       0.00027219      -0.01372916
Ga       3.84176188       2.19434562       0.83881506      -0.00015267      -0.00028915       0.00544291
Ga       4.20094718       4.40427289       2.57293225       0.00363818       0.00098128       0.01987957
Ga       2.43778355       4.40592292       4.95419736      -0.00077679      -0.00043203      -0.00397203
Ga       1.67601324       4.40221939       1.28742252       0.00250439       0.00033774       0.00839355
Ga       0.27355603       2.19563358       5.39703818      -0.00302974      -0.00040607      -0.01077603
Sn       2.89714166       2.19826044       7.16683538      -0.00694973       0.00000140      -0.03510919
Sn       0.73837455       4.40615211       7.64710733       0.01028624       0.00000342       0.04635871
16
Lattice="6.009975260332305 0.06642302628293388 0.398746095819106 -1.7219769630282036 6.010693246683447 -0.5977620915866354 0.2531961261510211 -0.3773087904898174 9.680415282817785" Properties=species:S:1:pos:R:3:forces:R:3 structure_index=15 total_energy=-51.50960922241211 stress="-0.00041168820462189615 -0.0005690322141163051 -0.002345490036532283 -0.0005691040423698723 -0.004273524042218924 0.0031514388974756002 -0.0023455910850316286 0.0031514663714915514 -0.0013188571901991963" pbc="T T T"
Li       0.52475313       4.58388540       6.13523602      -0.00040885      -0.03346650      -0.00909118
Li       4.41673571       2.33351707       6.21366572       0.03165048       0.01169036      -0.02375332
Li       0.52417711       5.44283920       0.97548982      -0.01429652       0.02677478      -0.02297795
Li       0.43044727      -0.03454393       8.96597920       0.00517693      -0.01338993       0.01886826
Li       2.36427167       3.12699832       4.05872939       0.00218413      -0.01710724       0.01970514
Li       0.38950654       0.82003409       3.65048221      -0.00255917       0.01685069       0.01548993
Ga       3.60624233       5.33862400       5.83118056      -0.00483814       0.00699422       0.00396768
Ga       4.31483433       1.66880470       1.89373689      -0.01254033       0.01458737       0.01682393
Sn      -0.59258413       3.77663006       3.46215755       0.00614313       0.02402422      -0.03748086
Sn       3.38354886       0.15556610       4.35581610      -0.00113981      -0.01129805       0.00659042
Sn       1.28071043       1.49553771       6.39355009       0.02579568      -0.03240775       0.02351899
Sn       3.51671876       4.72502687       1.58263397      -0.03217548       0.01293556       0.01094677
Sn       3.41627673       0.75233539       8.67984662       0.01920918      -0.00804397      -0.01773785
Sn      -0.37809126       2.96816494       8.65511746      -0.00654416      -0.00975179      -0.00136585
Sn       1.35778131       2.39799383       1.26340085      -0.01439003       0.01587533       0.00229210
Sn       2.65716859       3.84068874       8.24003106      -0.00126707      -0.00426728      -0.00579619
18
Lattice="4.603842752055433 -0.0028238437276388926 0.002420371516974455 0.004036543745286225 6.260146665310381 -0.481484534635133 -0.007607276046704739 -0.12103799082612061 13.696853024398465" Properties=species:S:1:pos:R:3:forces:R:3 structure_index=16 total_energy=-56.26212692260742 stress="0.009420894086360931 1.501395445302478e-06 1.4589130614695023e-06 1.4608044693886768e-06 0.010884422808885574 0.00014029775047674775 1.432151975677698e-06 0.00014022341929376125 0.010851112194359303" pbc="T T T"
Li       4.58352651       3.45009895       2.28609987      -0.00001641      -0.01103602       0.00567107
Li       2.27666750       0.79798107       8.92558691      -0.00005029       0.00198552       0.00467903
Li       4.58168578       3.90332068       6.69695603      -0.00003435       0.00498842       0.00840658
Li       2.27639304       3.96989248      11.52111781       0.00007451      -0.02315903       0.01949259
Li       2.27879842       0.55700734       4.45388524      -0.00001764       0.00562879      -0.01655002
Ga       4.58119831       5.62815150       9.64082316      -0.00006560       0.00354282      -0.02599153
Ga       4.57877365       5.40692941      12.54352044       0.00006500      -0.01277471      -0.01037592
Ga       2.27876096       2.23092577       6.60825346      -0.00003950       0.00121797       0.00038069
Ga       4.58361137       5.20039803       4.27487374      -0.00001482       0.00133329       0.00233772
Ga       2.28104444       1.93761964       1.60798763      -0.00002515       0.00083846      -0.05166769
Ga       4.57674606       2.55219076      13.25264753       0.00005844       0.00179741       0.00186034
Sn       2.28074555       3.62772853       4.23539918      -0.00000634       0.00418612       0.00035363
Sn       4.57961352       0.69864311       6.85166198      -0.00003215       0.00415132       0.00579781
Sn       2.27436721       0.87162274      12.19495707       0.00002969      -0.01254470       0.01602125
Sn       2.27877773       4.07052719       8.70221457      -0.00004458      -0.00250882       0.01252265
Sn       4.58161961       0.32746364       2.28570476       0.00001483       0.00681519       0.00311530
Sn       4.57849073       2.41236965      10.23980784       0.00002183      -0.00245929       0.00782889
Sn       2.28312865       4.76021422       0.65248157       0.00008251       0.02799723       0.01611763
8
Lattice="4.2967865468122035 -0.00045846755018232646 0.0024212734187390892 0.0005118156647491517 4.296849578765327 0.0029559199276049473 -0.002303085058374116 -0.0027604879327572072 8.478231983014258" Properties=species:S:1:pos:R:3:forces:R:3 structure_index=17 total_energy=-23.325790405273438 stress="-0.03169998154044151 0.0001501468213973567 0.0014320635236799717 0.00015019190323073417 -0.030945362523198128 0.0016595548950135708 0.0014321559574455023 0.0016596189234405756 0.044699981808662415" pbc="T T T"
Li       0.88672200       2.87031988       0.22577815       0.00026697      -0.00030326      -0.00485034
Ga       3.03499428       0.72212518       0.22090288       0.00086459       0.00026215       0.00361307
Ga       0.88574320       0.71983721       6.76195036      -0.00104745       0.00016694       0.01923522
Ga       3.03310276       2.86940827       6.76463275       0.00124197      -0.00063479       0.01925303
Ga       3.03445761       0.71935941       4.45975740      -0.00029423       0.00025497       0.00082953
Ga       3.03541598       2.86912080       2.16238185      -0.00088371       0.00008603      -0.01926896
Ga       0.88614312       0.72067520       2.15923138      -0.00017204       0.00060988      -0.01829026
Sn       0.88613385       2.86805500       4.46322205       0.00002392      -0.00044193      -0.00052131
12
Lattice="4.3980325919710355 0.0068215391089884924 -0.006577210819056796 -0.0094188228644228 6.167240089393334 -0.10778756761683257 0.01351045736166757 -0.02057930649065554 9.421833341859621" Properties=species:S:1:pos:R:3:forces:R:3 structure_index=18 total_energy=-37.889591217041016 stress="0.02298053167760372 0.00032423718948848546 -0.00043252648902125657 0.000324318214552477 -0.030010009184479713 -0.003804906038567424 -0.00043255509808659554 -0.0038048499263823032 -0.0033846141304820776" pbc="T T T"
Li       3.48088835       5.13693420       3.06434584      -0.00081388      -0.01020002      -0.02799936
Li       1.27963981       3.48562036       1.26272746       0.00167864      -0.00677554       0.01183864
Li       1.29540167       0.41289834       7.80425526      -0.00039344       0.00719481      -0.01312739
Li       3.48934880       2.09626043       5.97194405       0.00022960       0.00196744       0.03420710
Ga       1.29052751       0.61655563       4.59080611      -0.00052090      -0.00819688      -0.01280508
Ga       1.28586954       3.70680670       4.48023334      -0.00079945      -0.00423741       0.01035377
Ga       3.48899870       4.98253173       9.21193488      -0.00017733       0.01512818      -0.01953146
Sn       3.48464199       2.14648208       3.01548763      -0.00030193      -0.03408067       0.00217851
Sn       1.28579866       0.28576891       1.51892312       0.00139902       0.03288457       0.00169975
Sn       3.48399875       5.28219429       6.01730450       0.00150603      -0.03634837      -0.00062050
Sn       1.29057691       3.51501102       7.54561036      -0.00149900       0.03313649      -0.01027472
Sn       3.49385184       1.90355907       9.20374566      -0.00030738       0.00952741       0.02408075
3
Lattice="3.8404959110215353 0.0006911136897474699 2.2168590458169737 1.2799342818969786 3.6200476316695895 2.217192731270675 0.0008725714695159877 0.0005780191282225313 4.4337162491992" Properties=species:S:1:pos:R:3:forces:R:3 structure_index=19 total_energy=-8.9315767288208 stress="-0.0415191613137722 -0.0025140487123280764 -0.0038804966025054455 -0.0025141029618680477 -0.04618716612458229 -0.0021002953872084618 -0.003880447242408991 -0.0021002739667892456 -0.0490800142288208" pbc="T T T"
Li       1.59280932       2.32501906       6.17154475       0.00022194       0.00327491       0.00639623
Ga       2.87214920       3.23081278       3.95655990       0.00048579      -0.00151234      -0.00221911
Sn       4.15305062       1.42151939       6.17370454      -0.00070774      -0.00176258      -0.00417712
8
Lattice="5.300448289458705 -0.2392932137048369 -1.5097150902938579 -2.8968858870537217 4.44829397116741 -1.5000873818327018 0.18966337324596355 0.34784737456856674 6.046175620241002" Properties=species:S:1:pos:R:3:forces:R:3 structure_index=20 total_energy=-23.585922241210938 stress="0.026952801272273064 0.010721452534198761 -0.001667145872488618 0.010721382685005665 0.04406341165304184 0.003863920923322439 -0.001667149132117629 0.0038640392012894154 0.05131848156452179" pbc="T T T"
Li       0.92521105       0.92321879      -0.04705989      -0.00549989       0.00081291       0.00169048
Li       2.12489808       3.02363271      -1.54971003      -0.00358911       0.00574412      -0.00042405
Li      -0.14334499       3.84439575       3.19357525       0.00557186      -0.00080113      -0.00182735
Li       3.95745698       1.50470590       3.18642653       0.00363992      -0.00587410       0.00054999