phonopy:
  version: "2.37.1"
  frequency_unit_conversion_factor: 15.633302
  symmetry_tolerance: 1.00000e-05

space_group:
  type: "P1"
  number: 1
  Hall_symbol: "P 1"

primitive_matrix:
- [ -1.000000000000000, -0.000000000000000,  0.000000000000000 ]
- [  0.000000000000000,  0.000000000000000, -1.000000000000000 ]
- [  0.000000000000000, -1.000000000000000,  0.000000000000000 ]

supercell_matrix:
- [   3,   0,   0 ]
- [   0,   2,   0 ]
- [   0,   0,   2 ]

primitive_cell:
  lattice:
  - [    -4.730814086075789,     0.000000000000000,     0.000000000000000 ] # a
  - [    -2.365118502995563,    -1.539796897021283,    -4.604732377303390 ] # b
  - [    -2.364555288267265,    -4.878601624522035,     0.000000000000000 ] # c
  points:
  - symbol: Li # 1
    coordinates: [  0.018896468197587,  0.918481829239824,  0.748649199024181 ]
    mass: 6.940000
  - symbol: Li # 2
    coordinates: [  0.014518881000862,  0.406314400582473,  0.268924043518585 ]
    mass: 6.940000
  - symbol: Li # 3
    coordinates: [  0.681067756318012,  0.685229369220912,  0.657559375663189 ]
    mass: 6.940000
  - symbol: Li # 4
    coordinates: [  0.350085897197071,  0.801699541693656,  0.203178587536288 ]
    mass: 6.940000
  - symbol: Li # 5
    coordinates: [  0.684376203995955,  0.197479056258745,  0.137505698374130 ]
    mass: 6.940000
  - symbol: Sn # 6
    coordinates: [  0.349862455724366,  0.301703457874507,  0.703247957447785 ]
    mass: 118.710000
  reciprocal_lattice: # without 2pi
  - [    -0.211380109597479,     0.102451479840230,     0.074311492956165 ] # a*
  - [    -0.000000000000000,    -0.000000000000000,    -0.217167886874159 ] # b*
  - [    -0.000000000000000,    -0.204976769362260,     0.068543091663948 ] # c*

unit_cell:
  lattice:
  - [     4.730814086075789,     0.000000000000000,     0.000000000000000 ] # a
  - [     2.364555288267265,     4.878601624522035,     0.000000000000000 ] # b
  - [     2.365118502995562,     1.539796897021283,     4.604732377303390 ] # c
  points:
  - symbol: Li # 1
    coordinates: [  0.981103531802413,  0.251350800975819,  0.081518170760176 ]
    mass: 6.940000
    reduced_to: 1
  - symbol: Li # 2
    coordinates: [  0.985481118999138,  0.731075956481415,  0.593685599417527 ]
    mass: 6.940000
    reduced_to: 2
  - symbol: Li # 3
    coordinates: [  0.318932243681988,  0.342440624336811,  0.314770630779088 ]
    mass: 6.940000
    reduced_to: 3
  - symbol: Li # 4
    coordinates: [  0.649914102802929,  0.796821412463712,  0.198300458306344 ]
    mass: 6.940000
    reduced_to: 4
  - symbol: Li # 5
    coordinates: [  0.315623796004045,  0.862494301625870,  0.802520943741255 ]
    mass: 6.940000
    reduced_to: 5
  - symbol: Sn # 6
    coordinates: [  0.650137544275634,  0.296752042552215,  0.698296542125493 ]
    mass: 118.710000
    reduced_to: 6

supercell:
  lattice:
  - [    14.192442258227366,     0.000000000000000,     0.000000000000000 ] # a
  - [     4.729110576534531,     9.757203249044069,     0.000000000000000 ] # b
  - [     4.730237005991125,     3.079593794042566,     9.209464754606779 ] # c
  points:
  - symbol: Li # 1
    coordinates: [  0.327034510600804,  0.125675400487909,  0.040759085380088 ]
    mass: 6.940000
    reduced_to: 1
  - symbol: Li # 2
    coordinates: [  0.660367843934138,  0.125675400487909,  0.040759085380088 ]
    mass: 6.940000
    reduced_to: 1
  - symbol: Li # 3
    coordinates: [  0.993701177267471,  0.125675400487909,  0.040759085380088 ]
    mass: 6.940000
    reduced_to: 1
  - symbol: Li # 4
    coordinates: [  0.327034510600804,  0.625675400487909,  0.040759085380088 ]
    mass: 6.940000
    reduced_to: 1
  - symbol: Li # 5
    coordinates: [  0.660367843934138,  0.625675400487909,  0.040759085380088 ]
    mass: 6.940000
    reduced_to: 1
  - symbol: Li # 6
    coordinates: [  0.993701177267471,  0.625675400487909,  0.040759085380088 ]
    mass: 6.940000
    reduced_to: 1
  - symbol: Li # 7
    coordinates: [  0.327034510600804,  0.125675400487909,  0.540759085380088 ]
    mass: 6.940000
    reduced_to: 1
  - symbol: Li # 8
    coordinates: [  0.660367843934138,  0.125675400487909,  0.540759085380088 ]
    mass: 6.940000
    reduced_to: 1
  - symbol: Li # 9
    coordinates: [  0.993701177267471,  0.125675400487909,  0.540759085380088 ]
    mass: 6.940000
    reduced_to: 1
  - symbol: Li # 10
    coordinates: [  0.327034510600804,  0.625675400487909,  0.540759085380088 ]
    mass: 6.940000
    reduced_to: 1
  - symbol: Li # 11
    coordinates: [  0.660367843934138,  0.625675400487909,  0.540759085380088 ]
    mass: 6.940000
    reduced_to: 1
  - symbol: Li # 12
    coordinates: [  0.993701177267471,  0.625675400487909,  0.540759085380088 ]
    mass: 6.940000
    reduced_to: 1
  - symbol: Li # 13
    coordinates: [  0.328493706333046,  0.365537978240708,  0.296842799708764 ]
    mass: 6.940000
    reduced_to: 13
  - symbol: Li # 14
    coordinates: [  0.661827039666379,  0.365537978240708,  0.296842799708764 ]
    mass: 6.940000
    reduced_to: 13
  - symbol: Li # 15
    coordinates: [  0.995160372999713,  0.365537978240708,  0.296842799708764 ]
    mass: 6.940000
    reduced_to: 13
  - symbol: Li # 16
    coordinates: [  0.328493706333046,  0.865537978240708,  0.296842799708764 ]
    mass: 6.940000
    reduced_to: 13
  - symbol: Li # 17
    coordinates: [  0.661827039666379,  0.865537978240708,  0.296842799708764 ]
    mass: 6.940000
    reduced_to: 13
  - symbol: Li # 18
    coordinates: [  0.995160372999713,  0.865537978240708,  0.296842799708764 ]
    mass: 6.940000
    reduced_to: 13
  - symbol: Li # 19
    coordinates: [  0.328493706333046,  0.365537978240708,  0.796842799708764 ]
    mass: 6.940000
    reduced_to: 13
  - symbol: Li # 20
    coordinates: [  0.661827039666379,  0.365537978240708,  0.796842799708764 ]
    mass: 6.940000
    reduced_to: 13
  - symbol: Li # 21
    coordinates: [  0.995160372999713,  0.365537978240708,  0.796842799708764 ]
    mass: 6.940000
    reduced_to: 13
  - symbol: Li # 22
    coordinates: [  0.328493706333046,  0.865537978240708,  0.796842799708764 ]
    mass: 6.940000
    reduced_to: 13
  - symbol: Li # 23
    coordinates: [  0.661827039666379,  0.865537978240708,  0.796842799708764 ]
    mass: 6.940000
    reduced_to: 13
  - symbol: Li # 24
    coordinates: [  0.995160372999713,  0.865537978240708,  0.796842799708764 ]
    mass: 6.940000
    reduced_to: 13
  - symbol: Li # 25
    coordinates: [  0.106310747893996,  0.171220312168406,  0.157385315389544 ]
    mass: 6.940000
    reduced_to: 25
  - symbol: Li # 26
    coordinates: [  0.439644081227329,  0.171220312168406,  0.157385315389544 ]
    mass: 6.940000
    reduced_to: 25
  - symbol: Li # 27
    coordinates: [  0.772977414560662,  0.171220312168406,  0.157385315389544 ]
    mass: 6.940000
    reduced_to: 25
  - symbol: Li # 28
    coordinates: [  0.106310747893996,  0.671220312168405,  0.157385315389544 ]
    mass: 6.940000
    reduced_to: 25
  - symbol: Li # 29
    coordinates: [  0.439644081227329,  0.671220312168405,  0.157385315389544 ]
    mass: 6.940000
    reduced_to: 25
  - symbol: Li # 30
    coordinates: [  0.772977414560662,  0.671220312168405,  0.157385315389544 ]
    mass: 6.940000
    reduced_to: 25
  - symbol: Li # 31
    coordinates: [  0.106310747893996,  0.171220312168406,  0.657385315389544 ]
    mass: 6.940000
    reduced_to: 25
  - symbol: Li # 32
    coordinates: [  0.439644081227329,  0.171220312168406,  0.657385315389544 ]
    mass: 6.940000
    reduced_to: 25
  - symbol: Li # 33
    coordinates: [  0.772977414560662,  0.171220312168406,  0.657385315389544 ]
    mass: 6.940000
    reduced_to: 25
  - symbol: Li # 34
    coordinates: [  0.106310747893996,  0.671220312168405,  0.657385315389544 ]
    mass: 6.940000
    reduced_to: 25
  - symbol: Li # 35
    coordinates: [  0.439644081227329,  0.671220312168405,  0.657385315389544 ]
    mass: 6.940000
    reduced_to: 25
  - symbol: Li # 36
    coordinates: [  0.772977414560662,  0.671220312168405,  0.657385315389544 ]
    mass: 6.940000
    reduced_to: 25
  - symbol: Li # 37
    coordinates: [  0.216638034267643,  0.398410706231856,  0.099150229153172 ]
    mass: 6.940000
    reduced_to: 37
  - symbol: Li # 38
    coordinates: [  0.549971367600977,  0.398410706231856,  0.099150229153172 ]
    mass: 6.940000
    reduced_to: 37
  - symbol: Li # 39
    coordinates: [  0.883304700934310,  0.398410706231856,  0.099150229153172 ]
    mass: 6.940000
    reduced_to: 37
  - symbol: Li # 40
    coordinates: [  0.216638034267643,  0.898410706231856,  0.099150229153172 ]
    mass: 6.940000
    reduced_to: 37
  - symbol: Li # 41
    coordinates: [  0.549971367600977,  0.898410706231856,  0.099150229153172 ]
    mass: 6.940000
    reduced_to: 37
  - symbol: Li # 42
    coordinates: [  0.883304700934310,  0.898410706231856,  0.099150229153172 ]
    mass: 6.940000
    reduced_to: 37
  - symbol: Li # 43
    coordinates: [  0.216638034267643,  0.398410706231856,  0.599150229153172 ]
    mass: 6.940000
    reduced_to: 37
  - symbol: Li # 44
    coordinates: [  0.549971367600977,  0.398410706231856,  0.599150229153172 ]
    mass: 6.940000
    reduced_to: 37
  - symbol: Li # 45
    coordinates: [  0.883304700934310,  0.398410706231856,  0.599150229153172 ]
    mass: 6.940000
    reduced_to: 37
  - symbol: Li # 46
    coordinates: [  0.216638034267643,  0.898410706231856,  0.599150229153172 ]
    mass: 6.940000
    reduced_to: 37
  - symbol: Li # 47
    coordinates: [  0.549971367600977,  0.898410706231856,  0.599150229153172 ]
    mass: 6.940000
    reduced_to: 37
  - symbol: Li # 48
    coordinates: [  0.883304700934310,  0.898410706231856,  0.599150229153172 ]
    mass: 6.940000
    reduced_to: 37
  - symbol: Li # 49
    coordinates: [  0.105207932001348,  0.431247150812935,  0.401260471870627 ]
    mass: 6.940000
    reduced_to: 49
  - symbol: Li # 50
    coordinates: [  0.438541265334682,  0.431247150812935,  0.401260471870627 ]
    mass: 6.940000
    reduced_to: 49
  - symbol: Li # 51
    coordinates: [  0.771874598668015,  0.431247150812935,  0.401260471870627 ]
    mass: 6.940000
    reduced_to: 49
  - symbol: Li # 52
    coordinates: [  0.105207932001348,  0.931247150812935,  0.401260471870627 ]
    mass: 6.940000
    reduced_to: 49
  - symbol: Li # 53
    coordinates: [  0.438541265334682,  0.931247150812935,  0.401260471870627 ]
    mass: 6.940000
    reduced_to: 49
  - symbol: Li # 54
    coordinates: [  0.771874598668015,  0.931247150812935,  0.401260471870627 ]
    mass: 6.940000
    reduced_to: 49
  - symbol: Li # 55
    coordinates: [  0.105207932001348,  0.431247150812935,  0.901260471870627 ]
    mass: 6.940000
    reduced_to: 49
  - symbol: Li # 56
    coordinates: [  0.438541265334682,  0.431247150812935,  0.901260471870627 ]
    mass: 6.940000
    reduced_to: 49
  - symbol: Li # 57
    coordinates: [  0.771874598668015,  0.431247150812935,  0.901260471870627 ]
    mass: 6.940000
    reduced_to: 49
  - symbol: Li # 58
    coordinates: [  0.105207932001348,  0.931247150812935,  0.901260471870627 ]
    mass: 6.940000
    reduced_to: 49
  - symbol: Li # 59
    coordinates: [  0.438541265334682,  0.931247150812935,  0.901260471870627 ]
    mass: 6.940000
    reduced_to: 49
  - symbol: Li # 60
    coordinates: [  0.771874598668015,  0.931247150812935,  0.901260471870627 ]
    mass: 6.940000
    reduced_to: 49
  - symbol: Sn # 61
    coordinates: [  0.216712514758545,  0.148376021276108,  0.349148271062746 ]
    mass: 118.710000
    reduced_to: 61
  - symbol: Sn # 62
    coordinates: [  0.550045848091878,  0.148376021276108,  0.349148271062746 ]
    mass: 118.710000
    reduced_to: 61
  - symbol: Sn # 63
    coordinates: [  0.883379181425211,  0.148376021276108,  0.349148271062746 ]
    mass: 118.710000
    reduced_to: 61
  - symbol: Sn # 64
    coordinates: [  0.216712514758545,  0.648376021276108,  0.349148271062746 ]
    mass: 118.710000
    reduced_to: 61
  - symbol: Sn # 65
    coordinates: [  0.550045848091878,  0.648376021276108,  0.349148271062746 ]
    mass: 118.710000
    reduced_to: 61
  - symbol: Sn # 66
    coordinates: [  0.883379181425211,  0.648376021276108,  0.349148271062746 ]
    mass: 118.710000
    reduced_to: 61
  - symbol: Sn # 67
    coordinates: [  0.216712514758545,  0.148376021276108,  0.849148271062746 ]
    mass: 118.710000
    reduced_to: 61
  - symbol: Sn # 68
    coordinates: [  0.550045848091878,  0.148376021276108,  0.849148271062746 ]
    mass: 118.710000
    reduced_to: 61
  - symbol: Sn # 69
    coordinates: [  0.883379181425211,  0.148376021276108,  0.849148271062746 ]
    mass: 118.710000
    reduced_to: 61
  - symbol: Sn # 70
    coordinates: [  0.216712514758545,  0.648376021276108,  0.849148271062746 ]
    mass: 118.710000
    reduced_to: 61
  - symbol: Sn # 71
    coordinates: [  0.550045848091878,  0.648376021276108,  0.849148271062746 ]
    mass: 118.710000
    reduced_to: 61
  - symbol: Sn # 72
    coordinates: [  0.883379181425211,  0.648376021276108,  0.849148271062746 ]
    mass: 118.710000
    reduced_to: 61

displacements:
- atom:    1
  displacement:
    [   0.0100000000000000,  0.0000000000000000,  0.0000000000000000 ]
  forces:
  - [  -0.0176034383475780,  0.0042190421372652, -0.0026084836572409 ]
  - [   0.0000110044202302,  0.0041348868981004, -0.0026268661022186 ]
  - [   0.0000165996316355,  0.0042631383985281, -0.0026890635490417 ]
  - [   0.0000023359898478,  0.0041919648647308, -0.0026055835187435 ]
  - [   0.0000257214996964,  0.0041702073067427, -0.0026708114892244 ]
  - [   0.0000280155800283,  0.0042378120124340, -0.0026903096586466 ]
  - [   0.0004212245985400,  0.0040469411760569, -0.0027973726391792 ]
  - [   0.0001973040780285,  0.0043805241584778, -0.0023496076464653 ]
  - [   0.0001944782416103,  0.0041800551116467, -0.0028072390705347 ]
  - [  -0.0000036044475564,  0.0042019411921501, -0.0026512220501900 ]
  - [   0.0000395752977056,  0.0041859708726406, -0.0026492867618799 ]
  - [   0.0000373336406483,  0.0042136088013649, -0.0026641711592674 ]
  - [  -0.0000345392545569,  0.0051564755849540,  0.0049665858969092 ]
  - [   0.0000895900593605,  0.0052284253761172,  0.0052181892096996 ]
  - [  -0.0000366426174878,  0.0053052259609103,  0.0054019736126065 ]
  - [  -0.0000988855317701,  0.0052424110472202,  0.0051797172054648 ]
  - [   0.0000178414848051,  0.0052416212856770,  0.0051644090563059 ]
  - [   0.0000169414852280,  0.0052187666296959,  0.0052282004617155 ]
  - [  -0.0007348613580689,  0.0052283741533756,  0.0052091190591455 ]
  - [   0.0000576976744924,  0.0050501264631748,  0.0050825546495616 ]
  - [   0.0000597706603003,  0.0054117892868817,  0.0053113582544029 ]
  - [   0.0000059530138969,  0.0051877163350582,  0.0051600867882371 ]
  - [  -0.0000035576522350,  0.0052883215248585,  0.0052373139187694 ]
  - [   0.0000705238198861,  0.0052193757146597,  0.0051912865601480 ]
  - [   0.0044259717687964, -0.0067017655819654,  0.0008019693195820 ]
  - [   0.0045348852872849, -0.0037794057279825,  0.0065898373723030 ]
  - [   0.0000226511183428, -0.0052610114216805,  0.0036583282053471 ]
  - [  -0.0000557226885576, -0.0052562728524208,  0.0036560110747814 ]
  - [   0.0000744187927921, -0.0052515771239996,  0.0036614630371332 ]
  - [  -0.0000509747624164, -0.0052801817655563,  0.0036523286253214 ]
  - [  -0.0007337367278524, -0.0053668674081564,  0.0033297054469585 ]
  - [  -0.0000482769391965, -0.0052529685199261,  0.0036687348037958 ]
  - [  -0.0006272689788602, -0.0051679639145732,  0.0039577037096024 ]
  - [  -0.0000605453969911, -0.0052715167403221,  0.0036679320037365 ]
  - [  -0.0000652492744848, -0.0052435044199228,  0.0036596357822418 ]
  - [  -0.0000728152226657, -0.0052669104188681,  0.0036432556807995 ]
  - [   0.0023376266472042, -0.0004456732422113, -0.0007590688765049 ]
  - [   0.0026897052302957, -0.0003315676003695, -0.0007714629173279 ]
  - [   0.0026913275942206, -0.0005171131342649, -0.0007372479885817 ]
  - [   0.0038295250851661,  0.0005385339027271, -0.0012526583159342 ]
  - [   0.0038453452289104, -0.0014067260781303, -0.0002483237185515 ]
  - [   0.0026308237574995, -0.0004212640924379, -0.0007529526483268 ]
  - [   0.0027434309013188, -0.0002173506654799, -0.0008912978228182 ]
  - [   0.0027369142044336, -0.0006388485198840, -0.0006068473448977 ]
  - [   0.0026085935533047, -0.0004221167182550, -0.0007538131903857 ]
  - [   0.0026197978295386, -0.0004065046086907, -0.0007330663502216 ]
  - [   0.0025936849415302, -0.0004376578144729, -0.0007333867251873 ]
  - [   0.0026654223911464, -0.0004303371533751, -0.0007921420037746 ]
  - [  -0.0029003075323999, -0.0035724882036448, -0.0035579337272793 ]
  - [  -0.0028540464118123, -0.0035605039447546, -0.0035241006407887 ]
  - [  -0.0028653566259891, -0.0036212499253452, -0.0035226680338383 ]
  - [  -0.0030890819616616, -0.0035957773216069, -0.0029789218679070 ]
  - [  -0.0030940389260650, -0.0035761492326856, -0.0041056950576603 ]
  - [  -0.0028324846643955, -0.0035809092223644, -0.0035255851689726 ]
  - [  -0.0027381214313209, -0.0037090899422765, -0.0035430025309324 ]
  - [  -0.0027399959508330, -0.0034535760059953, -0.0035225304309279 ]
  - [  -0.0028501702472568, -0.0035979142412543, -0.0035332525148988 ]
  - [  -0.0027769282460213, -0.0036320374347270, -0.0033427202142775 ]
  - [  -0.0036249570548534, -0.0035849120467901, -0.0035250429064035 ]
  - [  -0.0027767326682806, -0.0035409242846072, -0.0037207845598459 ]
  - [   0.0004838630557060, -0.0001513220486231, -0.0018930584192276 ]
  - [  -0.0000031739473343, -0.0000800769776106, -0.0021816510707140 ]
  - [  -0.0000272244215012, -0.0002554683305789, -0.0016727529000491 ]
  - [   0.0003030602238141,  0.0000836799154058, -0.0019663339480758 ]
  - [   0.0002908345195465, -0.0003767164307646, -0.0018533724360168 ]
  - [   0.0001865194062702, -0.0001871258136816, -0.0019136089831591 ]
  - [   0.0046782833524048,  0.0003863427555189,  0.0011643065372482 ]
  - [   0.0047932607121766, -0.0007298140553758, -0.0051095206290483 ]
  - [  -0.0000739184324630, -0.0001530847512186, -0.0018973825499415 ]
  - [   0.0001214519143105, -0.0001870915293694, -0.0019033537246287 ]
  - [   0.0001150369644165, -0.0002054423093796, -0.0019058440811932 ]
  - [   0.0001622587442398, -0.0000865645706654, -0.0019206264987588 ]
- atom:    1
  displacement:
    [  -0.0100000000000000,  0.0000000000000000,  0.0000000000000000 ]
  forces:
  - [   0.0176679491996765,  0.0042039640247822, -0.0025860127061605 ]
  - [   0.0000457784335595,  0.0042645595967770, -0.0026850961148739 ]
  - [   0.0000515453575645,  0.0041358619928360, -0.0026248656213284 ]
  - [   0.0000616516917944,  0.0042082695290446, -0.0027057267725468 ]
  - [   0.0000369274057448,  0.0042290519922972, -0.0026410389691591 ]
  - [   0.0000390829518437,  0.0041638128459454, -0.0026198178529739 ]
  - [  -0.0003555321309250,  0.0043594203889370, -0.0025015994906425 ]
  - [  -0.0001290419750148,  0.0040263533592224, -0.0029483065009117 ]
  - [  -0.0001316606358159,  0.0042221713811159, -0.0025040525943041 ]
  - [   0.0000697356445016,  0.0041993744671345, -0.0026575550436974 ]
  - [   0.0000271172102657,  0.0042149238288403, -0.0026607885956764 ]
  - [   0.0000249332260864,  0.0041873063892126, -0.0026460308581591 ]
  - [   0.0001569344894961,  0.0053024450317025,  0.0054232850670815 ]
  - [   0.0000365562045772,  0.0052338261157274,  0.0051752831786871 ]
  - [   0.0001636235538172,  0.0051542720757425,  0.0049881730228662 ]
  - [   0.0002248392411275,  0.0052428208291531,  0.0051750526763499 ]
  - [   0.0001068179044523,  0.0052212718874216,  0.0052272900938988 ]
  - [   0.0001062739611370,  0.0052437447011471,  0.0051638046279550 ]
  - [   0.0008585461764596,  0.0052265319973230,  0.0052204425446689 ]
  - [   0.0000659663201077,  0.0054104886949062,  0.0053100287914276 ]
  - [   0.0000655868134345,  0.0050477217882872,  0.0050808652304113 ]
  - [   0.0001208968460560,  0.0052788369357586,  0.0052332575432956 ]
  - [   0.0001275576651096,  0.0051791742444038,  0.0051560206338763 ]
  - [   0.0000537808518857,  0.0052388762123883,  0.0052002607844770 ]
  - [  -0.0046701822429895, -0.0037768483161926,  0.0065861009061337 ]
  - [  -0.0045571788214147, -0.0066992752254009,  0.0007987245917320 ]
  - [  -0.0001559576194268, -0.0052626971155405,  0.0036558844149113 ]
  - [  -0.0000801595306257, -0.0052703190594912,  0.0036569405347109 ]
  - [  -0.0002094177325489, -0.0052725244313478,  0.0036522541195154 ]
  - [  -0.0000820894128992, -0.0052458327263594,  0.0036605000495911 ]
  - [   0.0005831402377225, -0.0051583601161838,  0.0039717685431242 ]
  - [  -0.0000874759134604, -0.0052717821672559,  0.0036439280956984 ]
  - [   0.0005075866356492, -0.0053593730553985,  0.0033401343971491 ]
  - [  -0.0000740630785003, -0.0052485801279545,  0.0036463439464569 ]
  - [  -0.0000722043914720, -0.0052773691713810,  0.0036536362022161 ]
  - [  -0.0000633359886706, -0.0052552763372660,  0.0036700740456581 ]
  - [   0.0029493842739612, -0.0004515293985605, -0.0007616784423590 ]
  - [   0.0025982023216784, -0.0005155559629202, -0.0007365923374891 ]
  - [   0.0025963212829083, -0.0003301482647657, -0.0007699392735958 ]
  - [   0.0014417353086174, -0.0014064202550799, -0.0002474136999808 ]
  - [   0.0014605817850679,  0.0005398282082751, -0.0012515145353973 ]
  - [   0.0026571631897241, -0.0004277288680896, -0.0007518819184043 ]
  - [   0.0025453120470047, -0.0006378466496244, -0.0006071816314943 ]
  - [   0.0025506534148008, -0.0002158668357879, -0.0008930022595450 ]
  - [   0.0026796520687640, -0.0004258977714926, -0.0007522447849624 ]
  - [   0.0026687246281654, -0.0004447009414434, -0.0007720850408077 ]
  - [   0.0026937897782773, -0.0004115374758840, -0.0007724650204182 ]
  - [   0.0026226039044559, -0.0004178006201982, -0.0007130280137062 ]
  - [  -0.0028260843828321, -0.0035964180715382, -0.0035111766774207 ]
  - [  -0.0028714390937239, -0.0036094314418733, -0.0035459483042359 ]
  - [  -0.0028618141077459, -0.0035488065332174, -0.0035471783485264 ]
  - [  -0.0026338228490204, -0.0035721147432923, -0.0040970938280225 ]
  - [  -0.0026344798970968, -0.0035917535424232, -0.0029706351924688 ]
  - [  -0.0028908504173160, -0.0035904012620449, -0.0035437068436295 ]
  - [  -0.0029899654909968, -0.0034644301049411, -0.0035236491821706 ]
  - [  -0.0029827298130840, -0.0037195915356278, -0.0035441338550299 ]
  - [  -0.0028784854803234, -0.0035707531496882, -0.0035331554245204 ]
  - [  -0.0029478906653821, -0.0035382425412536, -0.0037245359271765 ]
  - [  -0.0021028560586274, -0.0035701105371118, -0.0035167126916349 ]
  - [  -0.0029552029445767, -0.0036301794461906, -0.0033459281548858 ]
  - [  -0.0001004561781883, -0.0001797107397579, -0.0019508854020387 ]
  - [   0.0003807023167610, -0.0002404010156170, -0.0016422369517386 ]
  - [   0.0004122406244278, -0.0000650297151878, -0.0021512052044272 ]
  - [   0.0000833030208014, -0.0004028371185996, -0.0018569153035060 ]
  - [   0.0000895398552530,  0.0000562306377105, -0.0019695011433214 ]
  - [   0.0001957457861863, -0.0001322947791778, -0.0019075102172792 ]
  - [  -0.0044225864112377, -0.0007245739689097, -0.0051105376332998 ]
  - [  -0.0042806556448340,  0.0003892215900123,  0.0011647569481283 ]
  - [   0.0004624290741049, -0.0001667991746217, -0.0019231771584600 ]
  - [   0.0002628043293953, -0.0001308061182499, -0.0019166120328009 ]
  - [   0.0002698302268982, -0.0001179613173008, -0.0019126371480525 ]
  - [   0.0002240911126137, -0.0002343915402889, -0.0018997853621840 ]
- atom:    1
  displacement:
    [   0.0043614994630720,  0.0089987400470079,  0.0000000000000000 ]
  forces:
  - [  -0.0076434165239334, -0.0112239765003324, -0.0033883731812239 ]
  - [   0.0000805260351626,  0.0041179964318871, -0.0026479922235012 ]
  - [  -0.0000332124109264,  0.0041739242151380, -0.0026756003499031 ]
  - [   0.0000132385175675,  0.0040798895061016, -0.0026278644800186 ]
  - [   0.0000619061756879,  0.0041330540552735, -0.0026846043765545 ]
  - [   0.0000032873358577,  0.0041621215641499, -0.0026443563401699 ]
  - [   0.0000635544856777,  0.0041439477354288, -0.0026045534759760 ]
  - [   0.0000854774989421,  0.0042832568287849, -0.0024521294981241 ]
  - [   0.0002627595386002,  0.0041965376585722, -0.0026846975088120 ]
  - [   0.0000183983138413,  0.0042662695050240, -0.0028418805450201 ]
  - [   0.0000477170942759,  0.0042286477982998, -0.0026604961603880 ]
  - [   0.0000207961929846,  0.0042409151792526, -0.0026538372039795 ]
  - [  -0.0000322103151120,  0.0050424383953214,  0.0048179132863879 ]
  - [   0.0000657818454783,  0.0052306386642158,  0.0051999064162374 ]
  - [   0.0000770012920839,  0.0051130922511220,  0.0050224442966282 ]
  - [  -0.0000063911211328,  0.0064223250374198,  0.0031944527290761 ]
  - [   0.0000579428378842,  0.0052164955995977,  0.0051843668334186 ]
  - [   0.0000278682709904,  0.0052149146795273,  0.0052116848528385 ]
  - [  -0.0002898950478993,  0.0069442223757505,  0.0019902172498405 ]
  - [   0.0002348484704271,  0.0053144805133343,  0.0051546408794820 ]
  - [  -0.0001082449452952,  0.0054874969646335,  0.0052493028342724 ]
  - [  -0.0000748783349991,  0.0051868632435799,  0.0050172922201455 ]
  - [   0.0001512803137302,  0.0051987320184708,  0.0050727785564959 ]
  - [   0.0000614593736827,  0.0052543901838362,  0.0051800739020109 ]
  - [   0.0006033622776158, -0.0055250823497772,  0.0029966570436954 ]
  - [   0.0032636979594827, -0.0042484346777201,  0.0055411830544472 ]
  - [  -0.0000267840696324, -0.0052746012806892,  0.0036504194140434 ]
  - [  -0.0000563106368645, -0.0050821583718061,  0.0037253014743328 ]
  - [   0.0000022883905331, -0.0060417987406254,  0.0039110500365496 ]
  - [  -0.0000758318128646, -0.0052551198750734,  0.0036563500761986 ]
  - [  -0.0004513070452958, -0.0056487433612347,  0.0031196065247059 ]
  - [  -0.0000513998820679, -0.0052477959543467,  0.0035456903278828 ]
  - [  -0.0002279320615344, -0.0053398478776217,  0.0037312023341656 ]
  - [  -0.0000753257190809, -0.0053001642227173,  0.0036768261343241 ]
  - [  -0.0000506306532770, -0.0052736010402441,  0.0036858301609755 ]
  - [  -0.0000755647197366, -0.0052470825612545,  0.0036638285964727 ]
  - [   0.0025007394142449,  0.0036510638892651,  0.0000487398356199 ]
  - [   0.0026447596028447, -0.0003909748047590, -0.0007995227351785 ]
  - [   0.0026850330177695, -0.0004597213119268, -0.0007706331089139 ]
  - [   0.0039001707918942,  0.0006706946296617, -0.0012763582635671 ]
  - [   0.0024152297992259, -0.0001726039918140, -0.0008504532743245 ]
  - [   0.0026318370364606, -0.0004149297019467, -0.0007454343140125 ]
  - [   0.0028439683374017, -0.0002992816735059, -0.0007419118192047 ]
  - [   0.0025398647412658, -0.0005033578490838, -0.0006346105365083 ]
  - [   0.0026151982601732, -0.0004044395172969, -0.0007396690780297 ]
  - [   0.0026403940282762, -0.0001635118387640, -0.0008005425333977 ]
  - [   0.0026269354857504, -0.0004262570291758, -0.0006399080157280 ]
  - [   0.0026414766907692, -0.0004239873960614, -0.0007483363151550 ]
  - [  -0.0028957379981875, -0.0034031355753541, -0.0034195475745946 ]
  - [  -0.0028533025179058, -0.0035852347500622, -0.0034828477073461 ]
  - [  -0.0028537013567984, -0.0035965368151665, -0.0035333535633981 ]
  - [  -0.0031789680942893, -0.0036036996170878, -0.0030053763184696 ]
  - [  -0.0027395307552069, -0.0035912059247494, -0.0034899695310742 ]
  - [  -0.0028551290743053, -0.0035863155499101, -0.0035296895075589 ]
  - [  -0.0026370168197900, -0.0036352244205773, -0.0034329113550484 ]
  - [  -0.0029762110207230, -0.0035105966962874, -0.0034144795499742 ]
  - [  -0.0028600145597011, -0.0035746796056628, -0.0035293982364237 ]
  - [  -0.0026644724421203, -0.0035203909501433, -0.0034813210368156 ]
  - [  -0.0031949342228472,  0.0016720695421100, -0.0007509384304285 ]
  - [  -0.0029893140308559, -0.0034914100542665, -0.0036240518093109 ]
  - [   0.0003152713179588,  0.0006216682377271, -0.0008657905273139 ]
  - [  -0.0000514239072800, -0.0002043142449111, -0.0021526704076678 ]
  - [   0.0002544745802879, -0.0002784179232549, -0.0018960908055305 ]
  - [   0.0004147841245867,  0.0001197067613248, -0.0020873402245343 ]
  - [   0.0000402931473218, -0.0001026852696668, -0.0020432425662875 ]
  - [   0.0002087141619995, -0.0001664843584877, -0.0019104394596070 ]
  - [   0.0028309265617281,  0.0006063000764698, -0.0001258368138224 ]
  - [   0.0015049187932163,  0.0001210813643411, -0.0028482163324952 ]
  - [   0.0000719983654562, -0.0001453228760511, -0.0019229585304856 ]
  - [   0.0001837387681007, -0.0003504436463118, -0.0017764377407730 ]
  - [   0.0001855790615082, -0.0002962853759527, -0.0016910447739065 ]
  - [   0.0001296252012253, -0.0001054666936398, -0.0019199587404728 ]
- atom:    1
  displacement:
    [  -0.0043614994630720, -0.0089987400470079,  0.0000000000000000 ]
  forces:
  - [   0.0077246138826013,  0.0196281541138887, -0.0018805153667927 ]
  - [  -0.0000190383725567,  0.0042832884937525, -0.0026637278497219 ]
  - [   0.0000983783247648,  0.0042274221777916, -0.0026372410356998 ]
  - [   0.0000538160093129,  0.0043227970600128, -0.0026811826974154 ]
  - [   0.0000000470317900,  0.0042681507766247, -0.0026265662163496 ]
  - [   0.0000611788127571,  0.0042391419410706, -0.0026652179658413 ]
  - [   0.0000060841703089,  0.0042579919099808, -0.0027025863528252 ]
  - [  -0.0000191390208784,  0.0041185766458511, -0.0028544925153255 ]
  - [  -0.0001983368420042,  0.0042045731097460, -0.0026271492242813 ]
  - [   0.0000479875780002,  0.0041339546442032, -0.0024691820144653 ]
  - [   0.0000185975368368,  0.0041721798479557, -0.0026497654616833 ]
  - [   0.0000415740905737,  0.0041603203862906, -0.0026561822742224 ]
  - [   0.0001515949843451,  0.0054127029143274,  0.0055665243417025 ]
  - [   0.0000603957560088,  0.0052316770888865,  0.0051928916946054 ]
  - [   0.0000476877830806,  0.0053484793752432,  0.0053697307594121 ]
  - [   0.0001409019896528,  0.0040376028046012,  0.0072091962210834 ]