phonopy:
  version: "2.37.1"
  frequency_unit_conversion_factor: 15.633302
  symmetry_tolerance: 1.00000e-05

space_group:
  type: "P1"
  number: 1
  Hall_symbol: "P 1"

primitive_matrix:
- [  1.000000000000000,  0.000000000000000, -0.000000000000000 ]
- [  0.000000000000000, -1.000000000000000,  0.000000000000000 ]
- [  0.000000000000000,  0.000000000000000, -1.000000000000000 ]

supercell_matrix:
- [   3,   0,   0 ]
- [   0,   2,   0 ]
- [   0,   0,   1 ]

primitive_cell:
  lattice:
  - [     4.352031540801610,     0.000000000000000,     0.000000000000000 ] # a
  - [     2.176013737776917,    -5.421602941685620,     0.000000000000000 ] # b
  - [     0.000942316378328,    -0.188338034083898,   -12.800099450722026 ] # c
  points:
  - symbol: Li # 1
    coordinates: [  0.769486023455896,  0.303287655853657,  0.972477761823465 ]
    mass: 6.940000
  - symbol: Li # 2
    coordinates: [  0.913867655262551,  0.015609429394359,  0.785782919590860 ]
    mass: 6.940000
  - symbol: Li # 3
    coordinates: [  0.903507023273034,  0.035454201530757,  0.478908112839441 ]
    mass: 6.940000
  - symbol: Li # 4
    coordinates: [  0.569851128178014,  0.702993141695300,  0.125284700915760 ]
    mass: 6.940000
  - symbol: Li # 5
    coordinates: [  0.764850293276541,  0.312564646437064,  0.279117012278946 ]
    mass: 6.940000
  - symbol: Li # 6
    coordinates: [  0.610524451710165,  0.620885676065620,  0.474313127233519 ]
    mass: 6.940000
  - symbol: Li # 7
    coordinates: [  0.615020118823720,  0.612999413751647,  0.788661943499608 ]
    mass: 6.940000
  - symbol: Ga # 8
    coordinates: [  0.075415444288000,  0.692013312613790,  0.956530068639978 ]
    mass: 69.723000
  - symbol: Ga # 9
    coordinates: [  0.255702358049993,  0.331645490862000,  0.809212918489787 ]
    mass: 69.723000
  - symbol: Ga # 10
    coordinates: [  0.252823364535429,  0.336505236161532,  0.461438462715372 ]
    mass: 69.723000
  - symbol: Ga # 11
    coordinates: [  0.106875119162739,  0.628904030283115,  0.631743220127066 ]
    mass: 69.723000
  - symbol: Ga # 12
    coordinates: [  0.442447819249817,  0.957921817426551,  0.945946518697743 ]
    mass: 69.723000
  - symbol: Ga # 13
    coordinates: [  0.415491598699273,  0.011493708285270,  0.311912400576176 ]
    mass: 69.723000
  - symbol: Sn # 14
    coordinates: [  0.267609295263020,  0.307021335886381,  0.118986950328639 ]
    mass: 118.710000
  - symbol: Sn # 15
    coordinates: [  0.432762375794744,  0.977391878474584,  0.632588836595995 ]
    mass: 118.710000
  - symbol: Sn # 16
    coordinates: [  0.067230042014361,  0.708004042915826,  0.296389812049049 ]
    mass: 118.710000
  reciprocal_lattice: # without 2pi
  - [     0.229777746467299,     0.092223561615674,    -0.001340042788189 ] # a*
  - [     0.000000000000000,    -0.184447295524207,     0.002713919619520 ] # b*
  - [     0.000000000000000,    -0.000000000000000,    -0.078124393005680 ] # c*

unit_cell:
  lattice:
  - [     4.352031540801609,     0.000000000000000,     0.000000000000000 ] # a
  - [    -2.176013737776917,     5.421602941685620,     0.000000000000000 ] # b
  - [    -0.000942316378328,     0.188338034083898,    12.800099450722026 ] # c
  points:
  - symbol: Li # 1
    coordinates: [  0.769486023455896,  0.696712344146343,  0.027522238176535 ]
    mass: 6.940000
    reduced_to: 1
  - symbol: Li # 2
    coordinates: [  0.913867655262551,  0.984390570605641,  0.214217080409140 ]
    mass: 6.940000
    reduced_to: 2
  - symbol: Li # 3
    coordinates: [  0.903507023273035,  0.964545798469243,  0.521091887160559 ]
    mass: 6.940000
    reduced_to: 3
  - symbol: Li # 4
    coordinates: [  0.569851128178014,  0.297006858304700,  0.874715299084240 ]
    mass: 6.940000
    reduced_to: 4
  - symbol: Li # 5
    coordinates: [  0.764850293276541,  0.687435353562936,  0.720882987721054 ]
    mass: 6.940000
    reduced_to: 5
  - symbol: Li # 6
    coordinates: [  0.610524451710165,  0.379114323934380,  0.525686872766481 ]
    mass: 6.940000
    reduced_to: 6
  - symbol: Li # 7
    coordinates: [  0.615020118823720,  0.387000586248353,  0.211338056500392 ]
    mass: 6.940000
    reduced_to: 7
  - symbol: Ga # 8
    coordinates: [  0.075415444288000,  0.307986687386210,  0.043469931360022 ]
    mass: 69.723000
    reduced_to: 8
  - symbol: Ga # 9
    coordinates: [  0.255702358049993,  0.668354509138000,  0.190787081510213 ]
    mass: 69.723000
    reduced_to: 9
  - symbol: Ga # 10
    coordinates: [  0.252823364535429,  0.663494763838468,  0.538561537284628 ]
    mass: 69.723000
    reduced_to: 10
  - symbol: Ga # 11
    coordinates: [  0.106875119162739,  0.371095969716885,  0.368256779872934 ]
    mass: 69.723000
    reduced_to: 11
  - symbol: Ga # 12
    coordinates: [  0.442447819249817,  0.042078182573449,  0.054053481302257 ]
    mass: 69.723000
    reduced_to: 12
  - symbol: Ga # 13
    coordinates: [  0.415491598699273,  0.988506291714730,  0.688087599423824 ]
    mass: 69.723000
    reduced_to: 13
  - symbol: Sn # 14
    coordinates: [  0.267609295263020,  0.692978664113619,  0.881013049671361 ]
    mass: 118.710000
    reduced_to: 14
  - symbol: Sn # 15
    coordinates: [  0.432762375794744,  0.022608121525416,  0.367411163404005 ]
    mass: 118.710000
    reduced_to: 15
  - symbol: Sn # 16
    coordinates: [  0.067230042014361,  0.291995957084174,  0.703610187950951 ]
    mass: 118.710000
    reduced_to: 16

supercell:
  lattice:
  - [    13.056094622404828,     0.000000000000000,     0.000000000000000 ] # a
  - [    -4.352027475553834,    10.843205883371240,     0.000000000000000 ] # b
  - [    -0.000942316378328,     0.188338034083898,    12.800099450722026 ] # c
  points:
  - symbol: Li # 1
    coordinates: [  0.256495341151965,  0.348356172073172,  0.027522238176535 ]
    mass: 6.940000
    reduced_to: 1
  - symbol: Li # 2
    coordinates: [  0.589828674485299,  0.348356172073172,  0.027522238176535 ]
    mass: 6.940000
    reduced_to: 1
  - symbol: Li # 3
    coordinates: [  0.923162007818632,  0.348356172073172,  0.027522238176535 ]
    mass: 6.940000
    reduced_to: 1
  - symbol: Li # 4
    coordinates: [  0.256495341151965,  0.848356172073172,  0.027522238176535 ]
    mass: 6.940000
    reduced_to: 1
  - symbol: Li # 5
    coordinates: [  0.589828674485299,  0.848356172073172,  0.027522238176535 ]
    mass: 6.940000
    reduced_to: 1
  - symbol: Li # 6
    coordinates: [  0.923162007818632,  0.848356172073172,  0.027522238176535 ]
    mass: 6.940000
    reduced_to: 1
  - symbol: Li # 7
    coordinates: [  0.304622551754184,  0.492195285302820,  0.214217080409140 ]
    mass: 6.940000
    reduced_to: 7
  - symbol: Li # 8
    coordinates: [  0.637955885087517,  0.492195285302820,  0.214217080409140 ]
    mass: 6.940000
    reduced_to: 7
  - symbol: Li # 9
    coordinates: [  0.971289218420850,  0.492195285302820,  0.214217080409140 ]
    mass: 6.940000
    reduced_to: 7
  - symbol: Li # 10
    coordinates: [  0.304622551754184,  0.992195285302820,  0.214217080409140 ]
    mass: 6.940000
    reduced_to: 7
  - symbol: Li # 11
    coordinates: [  0.637955885087517,  0.992195285302820,  0.214217080409140 ]
    mass: 6.940000
    reduced_to: 7
  - symbol: Li # 12
    coordinates: [  0.971289218420850,  0.992195285302820,  0.214217080409140 ]
    mass: 6.940000
    reduced_to: 7
  - symbol: Li # 13
    coordinates: [  0.301169007757678,  0.482272899234622,  0.521091887160559 ]
    mass: 6.940000
    reduced_to: 13
  - symbol: Li # 14
    coordinates: [  0.634502341091011,  0.482272899234622,  0.521091887160559 ]
    mass: 6.940000
    reduced_to: 13
  - symbol: Li # 15
    coordinates: [  0.967835674424345,  0.482272899234622,  0.521091887160559 ]
    mass: 6.940000
    reduced_to: 13
  - symbol: Li # 16
    coordinates: [  0.301169007757678,  0.982272899234622,  0.521091887160559 ]
    mass: 6.940000
    reduced_to: 13
  - symbol: Li # 17
    coordinates: [  0.634502341091011,  0.982272899234622,  0.521091887160559 ]
    mass: 6.940000
    reduced_to: 13
  - symbol: Li # 18
    coordinates: [  0.967835674424345,  0.982272899234622,  0.521091887160559 ]
    mass: 6.940000
    reduced_to: 13
  - symbol: Li # 19
    coordinates: [  0.189950376059338,  0.148503429152350,  0.874715299084240 ]
    mass: 6.940000
    reduced_to: 19
  - symbol: Li # 20
    coordinates: [  0.523283709392671,  0.148503429152350,  0.874715299084240 ]
    mass: 6.940000
    reduced_to: 19
  - symbol: Li # 21
    coordinates: [  0.856617042726005,  0.148503429152350,  0.874715299084240 ]
    mass: 6.940000
    reduced_to: 19
  - symbol: Li # 22
    coordinates: [  0.189950376059338,  0.648503429152350,  0.874715299084240 ]
    mass: 6.940000
    reduced_to: 19
  - symbol: Li # 23
    coordinates: [  0.523283709392671,  0.648503429152350,  0.874715299084240 ]
    mass: 6.940000
    reduced_to: 19
  - symbol: Li # 24
    coordinates: [  0.856617042726005,  0.648503429152350,  0.874715299084240 ]
    mass: 6.940000
    reduced_to: 19
  - symbol: Li # 25
    coordinates: [  0.254950097758847,  0.343717676781468,  0.720882987721054 ]
    mass: 6.940000
    reduced_to: 25
  - symbol: Li # 26
    coordinates: [  0.588283431092180,  0.343717676781468,  0.720882987721054 ]
    mass: 6.940000
    reduced_to: 25
  - symbol: Li # 27
    coordinates: [  0.921616764425514,  0.343717676781468,  0.720882987721054 ]
    mass: 6.940000
    reduced_to: 25
  - symbol: Li # 28
    coordinates: [  0.254950097758847,  0.843717676781468,  0.720882987721054 ]
    mass: 6.940000
    reduced_to: 25
  - symbol: Li # 29
    coordinates: [  0.588283431092180,  0.843717676781468,  0.720882987721054 ]
    mass: 6.940000
    reduced_to: 25
  - symbol: Li # 30
    coordinates: [  0.921616764425514,  0.843717676781468,  0.720882987721054 ]
    mass: 6.940000
    reduced_to: 25
  - symbol: Li # 31
    coordinates: [  0.203508150570055,  0.189557161967190,  0.525686872766481 ]
    mass: 6.940000
    reduced_to: 31
  - symbol: Li # 32
    coordinates: [  0.536841483903388,  0.189557161967190,  0.525686872766481 ]
    mass: 6.940000
    reduced_to: 31
  - symbol: Li # 33
    coordinates: [  0.870174817236722,  0.189557161967190,  0.525686872766481 ]
    mass: 6.940000
    reduced_to: 31
  - symbol: Li # 34
    coordinates: [  0.203508150570055,  0.689557161967190,  0.525686872766481 ]
    mass: 6.940000
    reduced_to: 31
  - symbol: Li # 35
    coordinates: [  0.536841483903388,  0.689557161967190,  0.525686872766481 ]
    mass: 6.940000
    reduced_to: 31
  - symbol: Li # 36
    coordinates: [  0.870174817236722,  0.689557161967190,  0.525686872766481 ]
    mass: 6.940000
    reduced_to: 31
  - symbol: Li # 37
    coordinates: [  0.205006706274573,  0.193500293124177,  0.211338056500392 ]
    mass: 6.940000
    reduced_to: 37
  - symbol: Li # 38
    coordinates: [  0.538340039607907,  0.193500293124177,  0.211338056500392 ]
    mass: 6.940000
    reduced_to: 37
  - symbol: Li # 39
    coordinates: [  0.871673372941240,  0.193500293124177,  0.211338056500392 ]
    mass: 6.940000
    reduced_to: 37
  - symbol: Li # 40
    coordinates: [  0.205006706274573,  0.693500293124177,  0.211338056500392 ]
    mass: 6.940000
    reduced_to: 37
  - symbol: Li # 41
    coordinates: [  0.538340039607907,  0.693500293124177,  0.211338056500392 ]
    mass: 6.940000
    reduced_to: 37
  - symbol: Li # 42
    coordinates: [  0.871673372941240,  0.693500293124177,  0.211338056500392 ]
    mass: 6.940000
    reduced_to: 37
  - symbol: Ga # 43
    coordinates: [  0.025138481429333,  0.153993343693105,  0.043469931360022 ]
    mass: 69.723000
    reduced_to: 43
  - symbol: Ga # 44
    coordinates: [  0.358471814762667,  0.153993343693105,  0.043469931360022 ]
    mass: 69.723000
    reduced_to: 43
  - symbol: Ga # 45
    coordinates: [  0.691805148096000,  0.153993343693105,  0.043469931360022 ]
    mass: 69.723000
    reduced_to: 43
  - symbol: Ga # 46
    coordinates: [  0.025138481429333,  0.653993343693105,  0.043469931360022 ]
    mass: 69.723000
    reduced_to: 43
  - symbol: Ga # 47
    coordinates: [  0.358471814762667,  0.653993343693105,  0.043469931360022 ]
    mass: 69.723000
    reduced_to: 43
  - symbol: Ga # 48
    coordinates: [  0.691805148096000,  0.653993343693105,  0.043469931360022 ]
    mass: 69.723000
    reduced_to: 43
  - symbol: Ga # 49
    coordinates: [  0.085234119349998,  0.334177254569000,  0.190787081510213 ]
    mass: 69.723000
    reduced_to: 49
  - symbol: Ga # 50
    coordinates: [  0.418567452683331,  0.334177254569000,  0.190787081510213 ]
    mass: 69.723000
    reduced_to: 49
  - symbol: Ga # 51
    coordinates: [  0.751900786016664,  0.334177254569000,  0.190787081510213 ]
    mass: 69.723000
    reduced_to: 49
  - symbol: Ga # 52
    coordinates: [  0.085234119349998,  0.834177254569000,  0.190787081510213 ]
    mass: 69.723000
    reduced_to: 49
  - symbol: Ga # 53
    coordinates: [  0.418567452683331,  0.834177254569000,  0.190787081510213 ]
    mass: 69.723000
    reduced_to: 49
  - symbol: Ga # 54
    coordinates: [  0.751900786016664,  0.834177254569000,  0.190787081510213 ]
    mass: 69.723000
    reduced_to: 49
  - symbol: Ga # 55
    coordinates: [  0.084274454845143,  0.331747381919234,  0.538561537284628 ]
    mass: 69.723000
    reduced_to: 55
  - symbol: Ga # 56
    coordinates: [  0.417607788178476,  0.331747381919234,  0.538561537284628 ]
    mass: 69.723000
    reduced_to: 55
  - symbol: Ga # 57
    coordinates: [  0.750941121511810,  0.331747381919234,  0.538561537284628 ]
    mass: 69.723000
    reduced_to: 55
  - symbol: Ga # 58
    coordinates: [  0.084274454845143,  0.831747381919234,  0.538561537284628 ]
    mass: 69.723000
    reduced_to: 55
  - symbol: Ga # 59
    coordinates: [  0.417607788178476,  0.831747381919234,  0.538561537284628 ]
    mass: 69.723000
    reduced_to: 55
  - symbol: Ga # 60
    coordinates: [  0.750941121511810,  0.831747381919234,  0.538561537284628 ]
    mass: 69.723000
    reduced_to: 55
  - symbol: Ga # 61
    coordinates: [  0.035625039720913,  0.185547984858442,  0.368256779872934 ]
    mass: 69.723000
    reduced_to: 61
  - symbol: Ga # 62
    coordinates: [  0.368958373054246,  0.185547984858442,  0.368256779872934 ]
    mass: 69.723000
    reduced_to: 61
  - symbol: Ga # 63
    coordinates: [  0.702291706387580,  0.185547984858442,  0.368256779872934 ]
    mass: 69.723000
    reduced_to: 61
  - symbol: Ga # 64
    coordinates: [  0.035625039720913,  0.685547984858442,  0.368256779872934 ]
    mass: 69.723000
    reduced_to: 61
  - symbol: Ga # 65
    coordinates: [  0.368958373054246,  0.685547984858442,  0.368256779872934 ]
    mass: 69.723000
    reduced_to: 61
  - symbol: Ga # 66
    coordinates: [  0.702291706387580,  0.685547984858442,  0.368256779872934 ]
    mass: 69.723000
    reduced_to: 61
  - symbol: Ga # 67
    coordinates: [  0.147482606416606,  0.021039091286725,  0.054053481302257 ]
    mass: 69.723000
    reduced_to: 67
  - symbol: Ga # 68
    coordinates: [  0.480815939749939,  0.021039091286725,  0.054053481302257 ]
    mass: 69.723000
    reduced_to: 67
  - symbol: Ga # 69
    coordinates: [  0.814149273083272,  0.021039091286725,  0.054053481302257 ]
    mass: 69.723000
    reduced_to: 67
  - symbol: Ga # 70
    coordinates: [  0.147482606416606,  0.521039091286725,  0.054053481302257 ]
    mass: 69.723000
    reduced_to: 67
  - symbol: Ga # 71
    coordinates: [  0.480815939749939,  0.521039091286725,  0.054053481302257 ]
    mass: 69.723000
    reduced_to: 67
  - symbol: Ga # 72
    coordinates: [  0.814149273083272,  0.521039091286725,  0.054053481302257 ]
    mass: 69.723000
    reduced_to: 67
  - symbol: Ga # 73
    coordinates: [  0.138497199566424,  0.494253145857365,  0.688087599423824 ]
    mass: 69.723000
    reduced_to: 73
  - symbol: Ga # 74
    coordinates: [  0.471830532899758,  0.494253145857365,  0.688087599423824 ]
    mass: 69.723000
    reduced_to: 73
  - symbol: Ga # 75
    coordinates: [  0.805163866233091,  0.494253145857365,  0.688087599423824 ]
    mass: 69.723000
    reduced_to: 73
  - symbol: Ga # 76
    coordinates: [  0.138497199566424,  0.994253145857365,  0.688087599423824 ]
    mass: 69.723000
    reduced_to: 73
  - symbol: Ga # 77
    coordinates: [  0.471830532899758,  0.994253145857365,  0.688087599423824 ]
    mass: 69.723000
    reduced_to: 73
  - symbol: Ga # 78
    coordinates: [  0.805163866233091,  0.994253145857365,  0.688087599423824 ]
    mass: 69.723000
    reduced_to: 73
  - symbol: Sn # 79
    coordinates: [  0.089203098421007,  0.346489332056810,  0.881013049671361 ]
    mass: 118.710000
    reduced_to: 79
  - symbol: Sn # 80
    coordinates: [  0.422536431754340,  0.346489332056810,  0.881013049671361 ]
    mass: 118.710000
    reduced_to: 79
  - symbol: Sn # 81
    coordinates: [  0.755869765087673,  0.346489332056810,  0.881013049671361 ]
    mass: 118.710000
    reduced_to: 79
  - symbol: Sn # 82
    coordinates: [  0.089203098421007,  0.846489332056810,  0.881013049671361 ]
    mass: 118.710000
    reduced_to: 79
  - symbol: Sn # 83
    coordinates: [  0.422536431754340,  0.846489332056810,  0.881013049671361 ]
    mass: 118.710000
    reduced_to: 79
  - symbol: Sn # 84
    coordinates: [  0.755869765087673,  0.846489332056810,  0.881013049671361 ]
    mass: 118.710000
    reduced_to: 79
  - symbol: Sn # 85
    coordinates: [  0.144254125264915,  0.011304060762708,  0.367411163404005 ]
    mass: 118.710000
    reduced_to: 85
  - symbol: Sn # 86
    coordinates: [  0.477587458598248,  0.011304060762708,  0.367411163404005 ]
    mass: 118.710000
    reduced_to: 85
  - symbol: Sn # 87
    coordinates: [  0.810920791931581,  0.011304060762708,  0.367411163404005 ]
    mass: 118.710000
    reduced_to: 85
  - symbol: Sn # 88
    coordinates: [  0.144254125264915,  0.511304060762708,  0.367411163404005 ]
    mass: 118.710000
    reduced_to: 85
  - symbol: Sn # 89
    coordinates: [  0.477587458598248,  0.511304060762708,  0.367411163404005 ]
    mass: 118.710000
    reduced_to: 85
  - symbol: Sn # 90
    coordinates: [  0.810920791931581,  0.511304060762708,  0.367411163404005 ]
    mass: 118.710000
    reduced_to: 85
  - symbol: Sn # 91
    coordinates: [  0.022410014004787,  0.145997978542087,  0.703610187950951 ]
    mass: 118.710000
    reduced_to: 91
  - symbol: Sn # 92
    coordinates: [  0.355743347338120,  0.145997978542087,  0.703610187950951 ]
    mass: 118.710000
    reduced_to: 91
  - symbol: Sn # 93
    coordinates: [  0.689076680671454,  0.145997978542087,  0.703610187950951 ]
    mass: 118.710000
    reduced_to: 91
  - symbol: Sn # 94
    coordinates: [  0.022410014004787,  0.645997978542087,  0.703610187950951 ]
    mass: 118.710000
    reduced_to: 91
  - symbol: Sn # 95
    coordinates: [  0.355743347338120,  0.645997978542087,  0.703610187950951 ]
    mass: 118.710000
    reduced_to: 91
  - symbol: Sn # 96
    coordinates: [  0.689076680671454,  0.645997978542087,  0.703610187950951 ]
    mass: 118.710000
    reduced_to: 91

displacements:
- atom:    1
  displacement:
    [   0.0100000000000000,  0.0000000000000000,  0.0000000000000000 ]
  forces:
  - [  -0.0231425892561674,  0.0539150349795818,  0.0114926360547543 ]
  - [   0.0024004695005715,  0.0538652352988720,  0.0117498673498631 ]
  - [   0.0024070541840047,  0.0540113821625710,  0.0110008269548416 ]
  - [   0.0013958951458335,  0.0540008135139942,  0.0113833174109459 ]
  - [   0.0016280319541693,  0.0538532510399818,  0.0113814771175385 ]
  - [   0.0016277059912682,  0.0539567582309246,  0.0113608241081238 ]
  - [  -0.0015682522207499, -0.0177271515130997, -0.0539660677313805 ]
  - [  -0.0018144492059946, -0.0177854746580124, -0.0538704767823219 ]
  - [  -0.0018198974430561, -0.0176578089594841, -0.0540543273091316 ]
  - [  -0.0018039699643850, -0.0177470333874226, -0.0539605319499969 ]
  - [  -0.0018182517960668, -0.0177385173738003, -0.0539648979902267 ]
  - [  -0.0018148636445403, -0.0176751501858234, -0.0539557561278343 ]
  - [  -0.0002995154354721,  0.0210125148296356,  0.0358479171991348 ]
  - [  -0.0003359083784744,  0.0209958925843239,  0.0358101278543472 ]
  - [  -0.0003363994183019,  0.0210314244031906,  0.0358859300613403 ]
  - [  -0.0003267140127718,  0.0209661498665810,  0.0358093529939651 ]
  - [  -0.0003186634276062,  0.0210141688585281,  0.0358481183648109 ]
  - [  -0.0003246753476560,  0.0210619345307350,  0.0358816199004650 ]
  - [  -0.0003382875293028, -0.0265225656330585, -0.0241045355796814 ]
  - [  -0.0009375805384479, -0.0264009796082973, -0.0243345610797405 ]
  - [  -0.0009402760188095, -0.0266608409583569, -0.0238861329853535 ]
  - [  -0.0006695697084069, -0.0268100984394550, -0.0239595733582973 ]
  - [  -0.0006802398711443, -0.0262438319623470, -0.0242545753717422 ]
  - [  -0.0007679862901568, -0.0265370532870293, -0.0241119768470526 ]
  - [   0.0012180390767753,  0.0201017856597900, -0.0206993222236633 ]
  - [  -0.0004711339133792,  0.0200365614145994, -0.0198982860893011 ]
  - [  -0.0004728952771984,  0.0201660469174385, -0.0215112101286650 ]
  - [   0.0005263201892376,  0.0200549811124802, -0.0206880103796721 ]
  - [   0.0005148127675056,  0.0201263129711151, -0.0207121931016445 ]
  - [   0.0005104513838887,  0.0201205350458622, -0.0207129567861557 ]
  - [   0.0015108096413314, -0.0548658259212971,  0.0859003812074661 ]
  - [   0.0014542103745043, -0.0548412650823593,  0.0859066322445869 ]
  - [   0.0014539039693773, -0.0548893883824348,  0.0858937650918961 ]
  - [   0.0014740321785212, -0.0548869594931602,  0.0858610272407532 ]
  - [   0.0014802301302552, -0.0548484846949577,  0.0859391540288925 ]
  - [   0.0014659631997347, -0.0548635870218277,  0.0859014838933945 ]
  - [   0.0000033911783248, -0.0143530406057835, -0.0291417315602303 ]
  - [  -0.0002721243072301, -0.0141876451671124, -0.0290117654949427 ]
  - [  -0.0002732803113759, -0.0145296268165112, -0.0292495526373386 ]
  - [  -0.0000630450667813, -0.0142992027103901, -0.0290702246129513 ]
  - [  -0.0000696175920893, -0.0144018754363060, -0.0292041040956974 ]
  - [  -0.0002336486941203, -0.0143743678927422, -0.0291278436779976 ]
  - [   0.0012900263536721,  0.1151055842638016, -0.0462257936596870 ]
  - [   0.0013033333234489,  0.1086415201425552, -0.0456782542169094 ]
  - [  -0.0006302317488007,  0.1118984818458557, -0.0459540262818336 ]
  - [  -0.0014869136502966,  0.1126543655991554, -0.0459493882954121 ]
  - [  -0.0001399755710736,  0.1118831932544708, -0.0459512509405613 ]
  - [  -0.0014960106927902,  0.1111211925745010, -0.0459592789411545 ]
  - [   0.0013103657402098,  0.0125034768134356,  0.0810377448797226 ]
  - [   0.0013395989080891,  0.0119532160460949,  0.0851828306913376 ]
  - [  -0.0003474300610833,  0.0122269392013550,  0.0830921679735184 ]
  - [  -0.0001562690013088,  0.0122614670544863,  0.0831029340624809 ]
  - [  -0.0001196776283905,  0.0122455870732665,  0.0830657780170441 ]
  - [  -0.0002638886217028,  0.0121808676049113,  0.0831206887960434 ]
  - [   0.0007171733304858, -0.0530903786420822, -0.0367375276982784 ]
  - [   0.0007162782130763, -0.0531504824757576, -0.0365738645195961 ]
  - [   0.0007461635395885, -0.0531191676855087, -0.0366547033190727 ]
  - [   0.0007260449929163, -0.0531191937625408, -0.0366556532680988 ]
  - [   0.0007338132709265, -0.0531345158815384, -0.0366494506597519 ]
  - [   0.0007192604825832, -0.0531025901436806, -0.0366700589656830 ]
  - [   0.0007702994626015,  0.3684277534484863, -0.0055932141840458 ]
  - [   0.0007724014576524,  0.3683463931083679, -0.0057550184428692 ]
  - [   0.0007823095656931,  0.3683851659297943, -0.0056722173467278 ]
  - [   0.0007677538087592,  0.3683988749980927, -0.0056708920747042 ]
  - [   0.0007696308894083,  0.3683881759643555, -0.0056670391932130 ]
  - [   0.0007706317119300,  0.3683981597423553, -0.0056767035275698 ]
  - [   0.0001692877267487, -0.1712067872285843,  0.0875436216592789 ]
  - [  -0.0008341916836798, -0.1705323755741119,  0.0875503346323967 ]
  - [  -0.0008161594741978, -0.1718485951423645,  0.0875532627105713 ]
  - [   0.0032228187192231, -0.1751969456672668,  0.0862360596656799 ]
  - [   0.0032793206628412, -0.1671361029148102,  0.0888835415244102 ]
  - [  -0.0004135546623729, -0.1711979210376740,  0.0875476896762848 ]
  - [  -0.0009086951613426, -0.0950332581996918, -0.0431792959570885 ]
  - [  -0.0009145229123533, -0.0945308133959770, -0.0441748723387718 ]
  - [  -0.0007038495969027, -0.0947859138250351, -0.0436755716800690 ]
  - [  -0.0004985841806047, -0.0947804749011993, -0.0436814203858376 ]
  - [  -0.0008027289295569, -0.0946876257658005, -0.0436549484729767 ]
  - [  -0.0008144310559146, -0.0948811322450638, -0.0436898022890091 ]
  - [   0.0074198991060257,  0.0470820181071758, -0.0314968600869179 ]
  - [   0.0075508370064199,  0.0469556152820587, -0.0449313074350357 ]
  - [   0.0009021875448525,  0.0470151156187057, -0.0381333269178867 ]
  - [   0.0009550111135468,  0.0470499470829964, -0.0381528697907925 ]
  - [   0.0009361124248244,  0.0470644496381283, -0.0380932316184044 ]
  - [   0.0008385119144805,  0.0469400249421597, -0.0381650552153587 ]
  - [  -0.0010277337860316, -0.3265976011753082, -0.0056245694868267 ]
  - [  -0.0012212812434882, -0.3264976441860199, -0.0056601921096444 ]
  - [  -0.0012139580212533, -0.3266639113426208, -0.0055795339867473 ]
  - [  -0.0011564088054001, -0.3267524242401123, -0.0056513976305723 ]
  - [  -0.0011598069686443, -0.3264082968235016, -0.0055929655209184 ]
  - [  -0.0011291984701529, -0.3265797495841980, -0.0056234151124954 ]
  - [  -0.0001911087892950,  0.1248591169714928,  0.0002374164760113 ]
  - [  -0.0001961081288755,  0.1242907792329788, -0.0005300119519234 ]
  - [   0.0000609410926700,  0.1245781630277634, -0.0001419503241777 ]
  - [  -0.0001657214015722,  0.1246714591979980, -0.0001440756022930 ]
  - [   0.0002472915221006,  0.1245667710900307, -0.0001497361809015 ]
  - [  -0.0001664021983743,  0.1244969889521599, -0.0001371484249830 ]
- atom:    1
  displacement:
    [  -0.0100000000000000,  0.0000000000000000,  0.0000000000000000 ]
  forces:
  - [   0.0264374669641256,  0.0539044216275215,  0.0114571824669838 ]
  - [   0.0008883135160431,  0.0540116876363754,  0.0109999664127827 ]
  - [   0.0008945580339059,  0.0538659021258354,  0.0117506794631481 ]
  - [   0.0018981928005815,  0.0538726262748241,  0.0113663226366043 ]
  - [   0.0016675963997841,  0.0540209412574768,  0.0113683976233006 ]
  - [   0.0016670096665621,  0.0539177507162094,  0.0113899521529675 ]
  - [  -0.0020551793277264, -0.0177333317697048, -0.0539715401828289 ]
  - [  -0.0018037632107735, -0.0176561474800110, -0.0540516115725040 ]
  - [  -0.0018102461472154, -0.0177846923470497, -0.0538687743246555 ]
  - [  -0.0018184566870332, -0.0176947042346001, -0.0539595410227776 ]
  - [  -0.0018065450713038, -0.0177006572484970, -0.0539559684693813 ]
  - [  -0.0018085138872266, -0.0177669711410999, -0.0539657995104790 ]
  - [  -0.0003472645184956,  0.0210134461522102,  0.0358478203415871 ]
  - [  -0.0003117761516478,  0.0210309028625488,  0.0358856171369553 ]
  - [  -0.0003126525552943,  0.0209957882761955,  0.0358105152845383 ]
  - [  -0.0003204108215868,  0.0210618302226067,  0.0358829721808434 ]
  - [  -0.0003273384645581,  0.0210147276520729,  0.0358443483710289 ]
  - [  -0.0003228804562241,  0.0209655836224556,  0.0358122140169144 ]
  - [  -0.0012319531524554, -0.0265269540250301, -0.0240988228470087 ]
  - [  -0.0006315467762761, -0.0266586691141129, -0.0238872282207012 ]
  - [  -0.0006335640791804, -0.0263993330299854, -0.0243354104459286 ]
  - [  -0.0008999751880765, -0.0262501537799835, -0.0242584180086851 ]
  - [  -0.0008926689624786, -0.0268161408603191, -0.0239622946828604 ]
  - [  -0.0008030701428652, -0.0265243053436279, -0.0241050086915493 ]
  - [  -0.0001834784925450,  0.0201024338603020, -0.0206964612007141 ]
  - [   0.0015097204595804,  0.0201670434325933, -0.0215116143226624 ]
  - [   0.0015089515363798,  0.0200367793440819, -0.0198983345180750 ]
  - [   0.0005091214552522,  0.0201452188193798, -0.0207208245992661 ]
  - [   0.0005199806764722,  0.0200755968689919, -0.0206966921687126 ]
  - [   0.0005221907049417,  0.0200806297361851, -0.0206958204507828 ]
  - [   0.0014347489923239, -0.0548648089170456,  0.0859000533819199 ]
  - [   0.0014923519920558, -0.0548901371657848,  0.0858940035104752 ]
  - [   0.0014918697997928, -0.0548414513468742,  0.0859065651893616 ]
  - [   0.0014719115570188, -0.0548446774482727,  0.0859406143426895 ]
  - [   0.0014667427167296, -0.0548831224441528,  0.0858633220195770 ]
  - [   0.0014815917238593, -0.0548705048859119,  0.0858987271785736 ]
  - [  -0.0003962989430875, -0.0143475197255611, -0.0291480571031570 ]
  - [  -0.0001158057712018, -0.0145317278802395, -0.0292485281825066 ]
  - [  -0.0001247893087566, -0.0141882002353668, -0.0290113426744938 ]
  - [  -0.0003297565854155, -0.0144202336668968, -0.0292013399302959 ]
  - [  -0.0003216410405003, -0.0143172629177570, -0.0290679652243853 ]
  - [  -0.0001631266204640, -0.0143410265445709, -0.0291368179023266 ]
  - [  -0.0023421226069331,  0.1086339429020882, -0.0456781834363937 ]
  - [  -0.0023100133985281,  0.1150989234447479, -0.0462258085608482 ]
  - [  -0.0003970468533225,  0.1118896752595901, -0.0459521934390068 ]
  - [   0.0004738739226013,  0.1111198514699936, -0.0459550693631172 ]
  - [  -0.0008893202175386,  0.1118752360343933, -0.0459582433104515 ]
  - [   0.0004484068485908,  0.1126565933227539, -0.0459450334310532 ]
  - [  -0.0017679309239611,  0.0119520537555218,  0.0852008536458015 ]
  - [  -0.0017087974119931,  0.0125028640031815,  0.0810544639825821 ]
  - [  -0.0000629046990070,  0.0122282952070236,  0.0830925703048706 ]
  - [  -0.0002550265053287,  0.0121965361759067,  0.0830920189619064 ]
  - [  -0.0002936178352684,  0.0122183170169592,  0.0831285938620567 ]
  - [  -0.0001485019456595,  0.0122748715803027,  0.0830713659524918 ]
  - [   0.0007364732446149, -0.0531509183347225, -0.0365746095776558 ]