# Thermal properties / unit cell (natom)

unit:
  temperature:   K
  free_energy:   kJ/mol
  entropy:       J/K/mol
  heat_capacity: J/K/mol

natom: 16   
cutoff_frequency: 0.00000
num_modes: 172800
num_integrated_modes: 172797

zero_point_energy:      50.5369534

thermal_properties:
- temperature:         0.0000000
  free_energy:        50.5369534
  entropy:             0.0000000
  heat_capacity:       0.0000000
  energy:             50.5369534

- temperature:        10.0000000
  free_energy:        50.5332930
  entropy:             1.6168058
  heat_capacity:       5.4292233
  energy:             50.5494611

- temperature:        20.0000000
  free_energy:        50.4700816
  entropy:            12.9143751
  heat_capacity:      33.1842989
  energy:             50.7283691

- temperature:        30.0000000
  free_energy:        50.2454732
  entropy:            33.0516624
  heat_capacity:      68.6959332
  energy:             51.2370231

- temperature:        40.0000000
  free_energy:        49.7948126
  entropy:            57.5336378
  heat_capacity:     102.5885975
  energy:             52.0961581

- temperature:        50.0000000
  free_energy:        49.0891414
  entropy:            83.7568328
  heat_capacity:     132.9980634
  energy:             53.2769830

- temperature:        60.0000000
  free_energy:        48.1181606
  entropy:           110.4554660
  heat_capacity:     160.2194205
  energy:             54.7454886

- temperature:        70.0000000
  free_energy:        46.8804821
  entropy:           137.0281978
  heat_capacity:     184.7574087
  energy:             56.4724559

- temperature:        80.0000000
  free_energy:        45.3790455
  entropy:           163.1703618
  heat_capacity:     206.9020040
  energy:             58.4326744

- temperature:        90.0000000
  free_energy:        43.6190895
  entropy:           188.7102544
  heat_capacity:     226.8007364
  energy:             60.6030124

- temperature:       100.0000000
  free_energy:        41.6071991
  entropy:           213.5438672
  heat_capacity:     244.5693007
  energy:             62.9615858

- temperature:       110.0000000
  free_energy:        39.3507776
  entropy:           237.6087972
  heat_capacity:     260.3429043
  energy:             65.4877453

- temperature:       120.0000000
  free_energy:        36.8576981
  entropy:           260.8719573
  heat_capacity:     274.2837979
  energy:             68.1623330

- temperature:       130.0000000
  free_energy:        34.1360507
  entropy:           283.3219836
  heat_capacity:     286.5709821
  energy:             70.9679085

- temperature:       140.0000000
  free_energy:        31.1939546
  entropy:           304.9635362
  heat_capacity:     297.3870412
  energy:             73.8888497

- temperature:       150.0000000
  free_energy:        28.0394220
  entropy:           325.8127423
  heat_capacity:     306.9078376
  energy:             76.9113333

- temperature:       160.0000000
  free_energy:        24.6802616
  entropy:           345.8935733
  heat_capacity:     315.2961452
  energy:             80.0232333

- temperature:       170.0000000
  free_energy:        21.1240154
  entropy:           365.2350380
  heat_capacity:     322.6985669
  energy:             83.2139718

- temperature:       180.0000000
  free_energy:        17.3779191
  entropy:           383.8690731
  heat_capacity:     329.2447144
  energy:             86.4743522

- temperature:       190.0000000
  free_energy:        13.4488810
  entropy:           401.8289992
  heat_capacity:     335.0477616
  energy:             89.7963908

- temperature:       200.0000000
  free_energy:         9.3434740
  entropy:           419.1484234
  heat_capacity:     340.2057303
  energy:             93.1731587

- temperature:       210.0000000
  free_energy:         5.0679369
  entropy:           435.8604815
  heat_capacity:     344.8030917
  energy:             96.5986381

- temperature:       220.0000000
  free_energy:         0.6281816
  entropy:           451.9973334
  heat_capacity:     348.9124337
  energy:            100.0675949

- temperature:       230.0000000
  free_energy:        -3.9701954
  entropy:           467.5898437
  heat_capacity:     352.5960556
  energy:            103.5754686

- temperature:       240.0000000
  free_energy:        -8.7218989
  entropy:           482.6673957
  heat_capacity:     355.9074218
  energy:            107.1182760

- temperature:       250.0000000
  free_energy:       -13.6219197
  entropy:           497.2577987
  heat_capacity:     358.8924504
  energy:            110.6925300

- temperature:       260.0000000
  free_energy:       -18.6655186
  entropy:           511.3872619
  heat_capacity:     361.5906317
  energy:            114.2951695

- temperature:       270.0000000
  free_energy:       -23.8482107
  entropy:           525.0804115
  heat_capacity:     364.0359901
  energy:            117.9235004

- temperature:       280.0000000
  free_energy:       -29.1657496
  entropy:           538.3603375
  heat_capacity:     366.2579022
  energy:            121.5751449

- temperature:       290.0000000
  free_energy:       -34.6141123
  entropy:           551.2486586
  heat_capacity:     368.2817911
  energy:            125.2479987

- temperature:       300.0000000
  free_energy:       -40.1894850
  entropy:           563.7655982
  heat_capacity:     370.1297131
  energy:            128.9401945

- temperature:       310.0000000
  free_energy:       -45.8882495
  entropy:           575.9300649
  heat_capacity:     371.8208520
  energy:            132.6500707

- temperature:       320.0000000
  free_energy:       -51.7069704
  entropy:           587.7597354
  heat_capacity:     373.3719374
  energy:            136.3761449

- temperature:       330.0000000
  free_energy:       -57.6423834
  entropy:           599.2711361
  heat_capacity:     374.7975965
  energy:            140.1170915

- temperature:       340.0000000
  free_energy:       -63.6913838
  entropy:           610.4797222
  heat_capacity:     376.1106519
  energy:            143.8717217

- temperature:       350.0000000
  free_energy:       -69.8510167
  entropy:           621.3999534
  heat_capacity:     377.3223736
  energy:            147.6389669

- temperature:       360.0000000
  free_energy:       -76.1184669
  entropy:           632.0453654
  heat_capacity:     378.4426921
  energy:            151.4178646

- temperature:       370.0000000
  free_energy:       -82.4910503
  entropy:           642.4286373
  heat_capacity:     379.4803796
  energy:            155.2075454

- temperature:       380.0000000
  free_energy:       -88.9662056
  entropy:           652.5616535
  heat_capacity:     380.4432043
  energy:            159.0072228

- temperature:       390.0000000
  free_energy:       -95.5414865
  entropy:           662.4555629
  heat_capacity:     381.3380617
  energy:            162.8161831

- temperature:       400.0000000
  free_energy:      -102.2145548
  entropy:           672.1208318
  heat_capacity:     382.1710869
  energy:            166.6337780

- temperature:       410.0000000
  free_energy:      -108.9831738
  entropy:           681.5672946
  heat_capacity:     382.9477514
  energy:            170.4594170

- temperature:       420.0000000
  free_energy:      -115.8452022
  entropy:           690.8041992
  heat_capacity:     383.6729448
  energy:            174.2925615

- temperature:       430.0000000
  free_energy:      -122.7985883
  entropy:           699.8402496
  heat_capacity:     384.3510470
  energy:            178.1327190

- temperature:       440.0000000
  free_energy:      -129.8413651
  entropy:           708.6836447
  heat_capacity:     384.9859890
  energy:            181.9794386

- temperature:       450.0000000
  free_energy:      -136.9716449
  entropy:           717.3421146
  heat_capacity:     385.5813061
  energy:            185.8323067

- temperature:       460.0000000
  free_energy:      -144.1876153
  entropy:           725.8229534
  heat_capacity:     386.1401842
  energy:            189.6909433

- temperature:       470.0000000
  free_energy:      -151.4875348
  entropy:           734.1330497
  heat_capacity:     386.6654998
  energy:            193.5549985

- temperature:       480.0000000
  free_energy:      -158.8697289
  entropy:           742.2789146
  heat_capacity:     387.1598546
  energy:            197.4241501

- temperature:       490.0000000
  free_energy:      -166.3325863
  entropy:           750.2667073
  heat_capacity:     387.6256062
  energy:            201.2981003

- temperature:       500.0000000
  free_energy:      -173.8745556
  entropy:           758.1022593
  heat_capacity:     388.0648947
  energy:            205.1765740

- temperature:       510.0000000
  free_energy:      -181.4941424
  entropy:           765.7910959
  heat_capacity:     388.4796660
  energy:            209.0593165

- temperature:       520.0000000
  free_energy:      -189.1899060
  entropy:           773.3384568
  heat_capacity:     388.8716923
  energy:            212.9460916

- temperature:       530.0000000
  free_energy:      -196.9604566
  entropy:           780.7493142
  heat_capacity:     389.2425903
  energy:            216.8366799

- temperature:       540.0000000
  free_energy:      -204.8044530
  entropy:           788.0283905
  heat_capacity:     389.5938368
  energy:            220.7308779

- temperature:       550.0000000
  free_energy:      -212.7206001
  entropy:           795.1801742
  heat_capacity:     389.9267832
  energy:            224.6284957

- temperature:       560.0000000
  free_energy:      -220.7076464
  entropy:           802.2089341
  heat_capacity:     390.2426678
  energy:            228.5293567

- temperature:       570.0000000
  free_energy:      -228.7643823
  entropy:           809.1187337
  heat_capacity:     390.5426267
  energy:            232.4332960

- temperature:       580.0000000
  free_energy:      -236.8896375
  entropy:           815.9134433
  heat_capacity:     390.8277040
  energy:            236.3401596

- temperature:       590.0000000
  free_energy:      -245.0822798
  entropy:           822.5967516
  heat_capacity:     391.0988602
  energy:            240.2498037

- temperature:       600.0000000
  free_energy:      -253.3412129
  entropy:           829.1721772
  heat_capacity:     391.3569802
  energy:            244.1620934

- temperature:       610.0000000
  free_energy:      -261.6653750
  entropy:           835.6430778
  heat_capacity:     391.6028802
  energy:            248.0769025

- temperature:       620.0000000
  free_energy:      -270.0537368
  entropy:           842.0126605
  heat_capacity:     391.8373140
  energy:            251.9941128

- temperature:       630.0000000
  free_energy:      -278.5053007
  entropy:           848.2839898
  heat_capacity:     392.0609786
  energy:            255.9136129

- temperature:       640.0000000
  free_energy:      -287.0190988
  entropy:           854.4599960
  heat_capacity:     392.2745192
  energy:            259.8352986

- temperature:       650.0000000
  free_energy:      -295.5941922
  entropy:           860.5434827
  heat_capacity:     392.4785337
  energy:            263.7590716

- temperature:       660.0000000
  free_energy:      -304.2296691
  entropy:           866.5371340
  heat_capacity:     392.6735769
  energy:            267.6848394

- temperature:       670.0000000
  free_energy:      -312.9246440
  entropy:           872.4435208
  heat_capacity:     392.8601638
  energy:            271.6125149

- temperature:       680.0000000
  free_energy:      -321.6782568
  entropy:           878.2651072
  heat_capacity:     393.0387735
  energy:            275.5420161

- temperature:       690.0000000
  free_energy:      -330.4896714
  entropy:           884.0042560
  heat_capacity:     393.2098516
  energy:            279.4732653

- temperature:       700.0000000
  free_energy:      -339.3580747
  entropy:           889.6632344
  heat_capacity:     393.3738133
  energy:            283.4061894

- temperature:       710.0000000
  free_energy:      -348.2826761
  entropy:           895.2442186
  heat_capacity:     393.5310458
  energy:            287.3407191

- temperature:       720.0000000
  free_energy:      -357.2627061
  entropy:           900.7492988
  heat_capacity:     393.6819104
  energy:            291.2767891

- temperature:       730.0000000
  free_energy:      -366.2974158
  entropy:           906.1804835
  heat_capacity:     393.8267445
  energy:            295.2143372

- temperature:       740.0000000
  free_energy:      -375.3860759
  entropy:           911.5397038
  heat_capacity:     393.9658638
  energy:            299.1533049

- temperature:       750.0000000
  free_energy:      -384.5279762
  entropy:           916.8288168
  heat_capacity:     394.0995635
  energy:            303.0936364

- temperature:       760.0000000
  free_energy:      -393.7224245
  entropy:           922.0496099
  heat_capacity:     394.2281202
  energy:            307.0352790

- temperature:       770.0000000
  free_energy:      -402.9687464
  entropy:           927.2038038
  heat_capacity:     394.3517930
  energy:            310.9781826

- temperature:       780.0000000
  free_energy:      -412.2662841
  entropy:           932.2930558
  heat_capacity:     394.4708252
  energy:            314.9222994

- temperature:       790.0000000
  free_energy:      -421.6143963
  entropy:           937.3189629
  heat_capacity:     394.5854450
  energy:            318.8675844

- temperature:       800.0000000
  free_energy:      -431.0124573
  entropy:           942.2830646
  heat_capacity:     394.6958670
  energy:            322.8139943

- temperature:       810.0000000
  free_energy:      -440.4598566
  entropy:           947.1868456
  heat_capacity:     394.8022927
  energy:            326.7614884

- temperature:       820.0000000
  free_energy:      -449.9559980
  entropy:           952.0317384
  heat_capacity:     394.9049119
  energy:            330.7100275

- temperature:       830.0000000
  free_energy:      -459.5002997
  entropy:           956.8191255
  heat_capacity:     395.0039032
  energy:            334.6595745

- temperature:       840.0000000
  free_energy:      -469.0921933
  entropy:           961.5503420
  heat_capacity:     395.0994352
  energy:            338.6100940

- temperature:       850.0000000
  free_energy:      -478.7311236
  entropy:           966.2266774
  heat_capacity:     395.1916663
  energy:            342.5615522

- temperature:       860.0000000
  free_energy:      -488.4165480
  entropy:           970.8493778
  heat_capacity:     395.2807465
  energy:            346.5139169

- temperature:       870.0000000
  free_energy:      -498.1479364
  entropy:           975.4196477
  heat_capacity:     395.3668170
  energy:            350.4671571

- temperature:       880.0000000
  free_energy:      -507.9247701
  entropy:           979.9386519
  heat_capacity:     395.4500116
  energy:            354.4212436

- temperature:       890.0000000
  free_energy:      -517.7465423
  entropy:           984.4075174
  heat_capacity:     395.5304564
  energy:            358.3761482

- temperature:       900.0000000
  free_energy:      -527.6127570
  entropy:           988.8273344
  heat_capacity:     395.6082710
  energy:            362.3318440

- temperature:       910.0000000
  free_energy:      -537.5229290
  entropy:           993.1991585
  heat_capacity:     395.6835683
  energy:            366.2883052

- temperature:       920.0000000
  free_energy:      -547.4765836
  entropy:           997.5240118
  heat_capacity:     395.7564554
  energy:            370.2455073

- temperature:       930.0000000
  free_energy:      -557.4732559
  entropy:          1001.8028845
  heat_capacity:     395.8270338
  energy:            374.2034266

- temperature:       940.0000000
  free_energy:      -567.5124912
  entropy:          1006.0367359
  heat_capacity:     395.8953996
  energy:            378.1620406

- temperature:       950.0000000
  free_energy:      -577.5938437
  entropy:          1010.2264961
  heat_capacity:     395.9616442
  energy:            382.1213276

- temperature:       960.0000000
  free_energy:      -587.7168771
  entropy:          1014.3730665
  heat_capacity:     396.0258540
  energy:            386.0812667

- temperature:       970.0000000
  free_energy:      -597.8811640
  entropy:          1018.4773218
  heat_capacity:     396.0881114
  energy:            390.0418381

- temperature:       980.0000000
  free_energy:      -608.0862854
  entropy:          1022.5401102
  heat_capacity:     396.1484945
  energy:            394.0030227

- temperature:       990.0000000
  free_energy:      -618.3318307
  entropy:          1026.5622553
  heat_capacity:     396.2070775
  energy:            397.9648020

- temperature:      1000.0000000
  free_energy:      -628.6173976
  entropy:          1030.5445561
  heat_capacity:     396.2639312
  energy:            401.9271585
