# Tetrahedron method
       -5.0100990733        0.0000000000
       -4.9150403954        0.0000000000
       -4.8199817175        0.0000000000
       -4.7249230396        0.0000000000
       -4.6298643617        0.0000000000
       -4.5348056838        0.0000000000
       -4.4397470059        0.0000000000
       -4.3446883280        0.0000000000
       -4.2496296501        0.0000000000
       -4.1545709722        0.0000000000
       -4.0595122943        0.0000000000
       -3.9644536164        0.0000000000
       -3.8693949385        0.0000000000
       -3.7743362605        0.0000000000
       -3.6792775826        0.0000000000
       -3.5842189047        0.0000000000
       -3.4891602268        0.0000000000
       -3.3941015489        0.9232925543
       -3.2990428710        2.7756257856
       -3.2039841931        1.5939644900
       -3.1089255152        0.9668649556
       -3.0138668373        0.7061832112
       -2.9188081594        0.5440302937
       -2.8237494815        0.4486939797
       -2.7286908036        0.3850198701
       -2.6336321257        0.3206160358
       -2.5385734478        0.2887232340
       -2.4435147698        0.2481139740
       -2.3484560919        0.2243826953
       -2.2533974140        0.1973370771
       -2.1583387361        0.1778625235
       -2.0632800582        0.1580614420
       -1.9682213803        0.1456054682
       -1.8731627024        0.1237941443
       -1.7781040245        0.0016463220
       -1.6830453466        0.0000000000
       -1.5879866687        0.0000000000
       -1.4929279908        0.1472921280
       -1.3978693129        0.2489564019
       -1.3028106350        0.3895212917
       -1.2077519571        0.3798637603
       -1.1126932791        0.3603696805
       -1.0176346012        0.3345785465
       -0.9225759233        0.3071416666
       -0.8275172454        0.2688030038
       -0.7324585675        0.2190719110
       -0.6373998896        0.1819408422
       -0.5423412117        0.1626103258
       -0.4472825338        0.1515762436
       -0.3522238559        0.1459573198
       -0.2571651780        0.1435774450
       -0.1621065001        0.1435928455
       -0.0670478222        0.1457629896
        0.0280108557        0.1495831473
        0.1230695336        0.1637538526
        0.2181282115        0.1915009879
        0.3131868895        0.2454659434
        0.4082455674        0.3435755551
        0.5033042453        0.4807810753
        0.5983629232        0.6055122503
        0.6934216011        0.7133953286
        0.7884802790        0.8394313674
        0.8835389569        1.0471180576
        0.9785976348        1.3162787564
        1.0736563127        1.7190008775
        1.1687149906        1.2136090351
        1.2637736685        2.6082810885
        1.3588323464        3.2862596441
        1.4538910243        5.5291832405
        1.5489497022        1.7833106228
        1.6440083802        1.6432009417
        1.7390670581        2.0694709573
        1.8341257360        2.9052791562
        1.9291844139        2.5736585892
        2.0242430918        5.4973856657
        2.1193017697        8.7137143417
        2.2143604476        6.5813525964
        2.3094191255        5.4573584272
        2.4044778034        5.5755012728
        2.4995364813        4.8798717877
        2.5945951592        2.2460380274
        2.6896538371        1.7949409024
        2.7847125150        1.5418373849
        2.8797711929        0.6928037244
        2.9748298709        0.8049199230
        3.0698885488        1.7464061837
        3.1649472267        1.7469384068
        3.2600059046        1.7090603026
        3.3550645825        1.9109884643
        3.4501232604        3.1502191813
        3.5451819383        3.3091408442
        3.6402406162        3.3448797389
        3.7352992941        3.6621937585
        3.8303579720        2.5792449549
        3.9254166499        0.0785238290
        4.0204753278        0.0026860226
        4.1155340057        2.8581796734
        4.2105926836        3.8688804807
        4.3056513616        1.4363451841
        4.4007100395        1.0950084546
        4.4957687174        0.9030177853
        4.5908273953        0.2638936841
        4.6858860732        0.0000000000
        4.7809447511        0.0000000000
        4.8760034290        0.0000000000
        4.9710621069        0.0000000000
        5.0661207848        0.0000000000
        5.1611794627        0.0000000000
        5.2562381406        0.0000000000
        5.3512968185        0.0000000000
        5.4463554964        0.0000000000
        5.5414141743        0.4779249262
        5.6364728523        2.7254962031
        5.7315315302        3.3674974121
        5.8265902081        6.0899569958
        5.9216488860        3.6214729022
        6.0167075639        2.1209305105
        6.1117662418        1.9397034107
        6.2068249197        6.7141030875
        6.3018835976        3.4815294118
        6.3969422755        8.5938956631
        6.4920009534        4.5784120078
        6.5870596313        0.5716936128
        6.6821183092        1.0027406483
        6.7771769871        1.8250574799
        6.8722356650        2.3548190771
        6.9672943429        2.3481046045
        7.0623530209        2.5557040584
        7.1574116988        3.6864620956
        7.2524703767        2.0651059248
        7.3475290546        9.0127257068
        7.4425877325        6.2158337468
        7.5376464104       12.4399002099
        7.6327050883       11.2521519828
        7.7277637662        6.5975624838
        7.8228224441        4.5691409325
        7.9178811220        3.1292439022
        8.0129397999        1.9200228263
        8.1079984778        1.2252497352
        8.2030571557        0.3345509052
        8.2981158336        0.1635545202
        8.3931745116        0.0000000000
        8.4882331895        2.0879111363
        8.5832918674       15.6673624589
        8.6783505453        0.0000000000
        8.7734092232        0.0000000000
        8.8684679011        0.0000000000
        8.9635265790        0.0000000000
        9.0585852569        0.0000000000
        9.1536439348        0.0000000000
        9.2487026127        0.0000000000
        9.3437612906        0.0000000000
        9.4388199685        0.0000000000
        9.5338786464        0.0000000000
        9.6289373243        0.0000000000
        9.7239960023        0.0000000000
        9.8190546802        0.3690124410
        9.9141133581        1.3029373335
       10.0091720360        1.6314482331
       10.1042307139        2.3653529695
       10.1992893918        4.1453822463
       10.2943480697        4.3325709548
       10.3894067476        3.6202331202
       10.4844654255        3.1887398979
       10.5795241034        2.2485934505
       10.6745827813        2.7718466340
       10.7696414592        3.0288961756
       10.8647001371        4.5389975422
       10.9597588150        6.9938114297
       11.0548174930        6.3818826073
       11.1498761709        4.2538669438
       11.2449348488        3.3771724097
       11.3399935267        4.4548747386
       11.4350522046        4.4723537427
       11.5301108825        5.5410521887
       11.6251695604        4.4102396559
       11.7202282383        4.3075445325
       11.8152869162        3.8335232316
       11.9103455941        3.5980446945
       12.0054042720        2.6626694959
       12.1004629499        2.0383417872
       12.1955216278        1.3508314167
       12.2905803057        1.3618508954
       12.3856389837        1.5007543686
       12.4806976616        0.0000000000
       12.5757563395        0.0000000000
       12.6708150174        0.0000000000
       12.7658736953        0.0000000000
       12.8609323732        0.0000000000
       12.9559910511        0.0000000000
       13.0510497290        0.0000000000
       13.1461084069        0.0000000000
       13.2411670848        0.0000000000
       13.3362257627        0.0000000000
       13.4312844406        0.0000000000
       13.5263431185        0.0000000000
       13.6214017964        0.0000000000
       13.7164604743        0.0000000000
       13.8115191523        0.0000000000
       13.9065778302        0.0000000000
       14.0016365081        0.0000000000
