phonopy:
  version: "2.37.1"
  frequency_unit_conversion_factor: 15.633302
  symmetry_tolerance: 1.00000e-05

space_group:
  type: "P1"
  number: 1
  Hall_symbol: "P 1"

primitive_matrix:
- [  1.000000000000000,  0.000000000000000, -0.000000000000000 ]
- [  0.000000000000000,  1.000000000000000,  0.000000000000000 ]
- [  0.000000000000000,  0.000000000000000,  1.000000000000000 ]

supercell_matrix:
- [   3,   0,   0 ]
- [   0,   2,   0 ]
- [   0,   0,   2 ]

primitive_cell:
  lattice:
  - [     4.698239932428248,     0.000000000000000,     0.000000000000000 ] # a
  - [    -2.348806622181523,     4.909687614798489,     0.000000000000000 ] # b
  - [    -0.000423695661085,    -2.226029628156503,     6.387841325106685 ] # c
  points:
  - symbol: Li # 1
    coordinates: [  0.107617074087004,  0.381492028267948,  0.814132021471234 ]
    mass: 6.940000
  - symbol: Li # 2
    coordinates: [  0.356190246349212,  0.877820440962230,  0.182935759716069 ]
    mass: 6.940000
  - symbol: Li # 3
    coordinates: [  0.602381761736125,  0.371171348744913,  0.549882619941617 ]
    mass: 6.940000
  - symbol: Li # 4
    coordinates: [  0.121250410002992,  0.408209534767433,  0.314789877689559 ]
    mass: 6.940000
  - symbol: Li # 5
    coordinates: [  0.369710749040830,  0.904401278243247,  0.683908450020728 ]
    mass: 6.940000
  - symbol: Li # 6
    coordinates: [  0.874831781211077,  0.914540890489938,  0.947762039303765 ]
    mass: 6.940000
  - symbol: Sn # 7
    coordinates: [  0.611162230595832,  0.388262431579130,  0.051642102919410 ]
    mass: 118.710000
  - symbol: Sn # 8
    coordinates: [  0.866300920861636,  0.897855426659906,  0.446328916924096 ]
    mass: 118.710000
  reciprocal_lattice: # without 2pi
  - [     0.212845664415261,     0.101825888998380,     0.035498318769600 ] # a*
  - [     0.000000000000000,     0.203678946290974,     0.070977869674593 ] # b*
  - [     0.000000000000000,     0.000000000000000,     0.156547407661742 ] # c*

unit_cell:
  lattice:
  - [     4.698239932428248,     0.000000000000000,     0.000000000000000 ] # a
  - [    -2.348806622181524,     4.909687614798490,     0.000000000000000 ] # b
  - [    -0.000423695661085,    -2.226029628156503,     6.387841325106685 ] # c
  points:
  - symbol: Li # 1
    coordinates: [  0.107617074087004,  0.381492028267948,  0.814132021471234 ]
    mass: 6.940000
    reduced_to: 1
  - symbol: Li # 2
    coordinates: [  0.356190246349212,  0.877820440962230,  0.182935759716069 ]
    mass: 6.940000
    reduced_to: 2
  - symbol: Li # 3
    coordinates: [  0.602381761736125,  0.371171348744913,  0.549882619941617 ]
    mass: 6.940000
    reduced_to: 3
  - symbol: Li # 4
    coordinates: [  0.121250410002992,  0.408209534767433,  0.314789877689559 ]
    mass: 6.940000
    reduced_to: 4
  - symbol: Li # 5
    coordinates: [  0.369710749040830,  0.904401278243246,  0.683908450020728 ]
    mass: 6.940000
    reduced_to: 5
  - symbol: Li # 6
    coordinates: [  0.874831781211077,  0.914540890489938,  0.947762039303765 ]
    mass: 6.940000
    reduced_to: 6
  - symbol: Sn # 7
    coordinates: [  0.611162230595832,  0.388262431579129,  0.051642102919410 ]
    mass: 118.710000
    reduced_to: 7
  - symbol: Sn # 8
    coordinates: [  0.866300920861636,  0.897855426659906,  0.446328916924096 ]
    mass: 118.710000
    reduced_to: 8

supercell:
  lattice:
  - [    14.094719797284743,     0.000000000000000,     0.000000000000000 ] # a
  - [    -4.697613244363048,     9.819375229596981,     0.000000000000000 ] # b
  - [    -0.000847391322169,    -4.452059256313007,    12.775682650213369 ] # c
  points:
  - symbol: Li # 1
    coordinates: [  0.035872358029001,  0.190746014133974,  0.407066010735617 ]
    mass: 6.940000
    reduced_to: 1
  - symbol: Li # 2
    coordinates: [  0.369205691362335,  0.190746014133974,  0.407066010735617 ]
    mass: 6.940000
    reduced_to: 1
  - symbol: Li # 3
    coordinates: [  0.702539024695668,  0.190746014133974,  0.407066010735617 ]
    mass: 6.940000
    reduced_to: 1
  - symbol: Li # 4
    coordinates: [  0.035872358029001,  0.690746014133974,  0.407066010735617 ]
    mass: 6.940000
    reduced_to: 1
  - symbol: Li # 5
    coordinates: [  0.369205691362335,  0.690746014133974,  0.407066010735617 ]
    mass: 6.940000
    reduced_to: 1
  - symbol: Li # 6
    coordinates: [  0.702539024695668,  0.690746014133974,  0.407066010735617 ]
    mass: 6.940000
    reduced_to: 1
  - symbol: Li # 7
    coordinates: [  0.035872358029001,  0.190746014133974,  0.907066010735617 ]
    mass: 6.940000
    reduced_to: 1
  - symbol: Li # 8
    coordinates: [  0.369205691362335,  0.190746014133974,  0.907066010735617 ]
    mass: 6.940000
    reduced_to: 1
  - symbol: Li # 9
    coordinates: [  0.702539024695668,  0.190746014133974,  0.907066010735617 ]
    mass: 6.940000
    reduced_to: 1
  - symbol: Li # 10
    coordinates: [  0.035872358029001,  0.690746014133974,  0.907066010735617 ]
    mass: 6.940000
    reduced_to: 1
  - symbol: Li # 11
    coordinates: [  0.369205691362335,  0.690746014133974,  0.907066010735617 ]
    mass: 6.940000
    reduced_to: 1
  - symbol: Li # 12
    coordinates: [  0.702539024695668,  0.690746014133974,  0.907066010735617 ]
    mass: 6.940000
    reduced_to: 1
  - symbol: Li # 13
    coordinates: [  0.118730082116404,  0.438910220481115,  0.091467879858035 ]
    mass: 6.940000
    reduced_to: 13
  - symbol: Li # 14
    coordinates: [  0.452063415449737,  0.438910220481115,  0.091467879858035 ]
    mass: 6.940000
    reduced_to: 13
  - symbol: Li # 15
    coordinates: [  0.785396748783071,  0.438910220481115,  0.091467879858035 ]
    mass: 6.940000
    reduced_to: 13
  - symbol: Li # 16
    coordinates: [  0.118730082116404,  0.938910220481115,  0.091467879858035 ]
    mass: 6.940000
    reduced_to: 13
  - symbol: Li # 17
    coordinates: [  0.452063415449737,  0.938910220481115,  0.091467879858035 ]
    mass: 6.940000
    reduced_to: 13
  - symbol: Li # 18
    coordinates: [  0.785396748783071,  0.938910220481115,  0.091467879858035 ]
    mass: 6.940000
    reduced_to: 13
  - symbol: Li # 19
    coordinates: [  0.118730082116404,  0.438910220481115,  0.591467879858035 ]
    mass: 6.940000
    reduced_to: 13
  - symbol: Li # 20
    coordinates: [  0.452063415449737,  0.438910220481115,  0.591467879858035 ]
    mass: 6.940000
    reduced_to: 13
  - symbol: Li # 21
    coordinates: [  0.785396748783071,  0.438910220481115,  0.591467879858035 ]
    mass: 6.940000
    reduced_to: 13
  - symbol: Li # 22
    coordinates: [  0.118730082116404,  0.938910220481115,  0.591467879858035 ]
    mass: 6.940000
    reduced_to: 13
  - symbol: Li # 23
    coordinates: [  0.452063415449737,  0.938910220481115,  0.591467879858035 ]
    mass: 6.940000
    reduced_to: 13
  - symbol: Li # 24
    coordinates: [  0.785396748783071,  0.938910220481115,  0.591467879858035 ]
    mass: 6.940000
    reduced_to: 13
  - symbol: Li # 25
    coordinates: [  0.200793920578708,  0.185585674372457,  0.274941309970809 ]
    mass: 6.940000
    reduced_to: 25
  - symbol: Li # 26
    coordinates: [  0.534127253912042,  0.185585674372457,  0.274941309970809 ]
    mass: 6.940000
    reduced_to: 25
  - symbol: Li # 27
    coordinates: [  0.867460587245375,  0.185585674372457,  0.274941309970809 ]
    mass: 6.940000
    reduced_to: 25
  - symbol: Li # 28
    coordinates: [  0.200793920578708,  0.685585674372457,  0.274941309970809 ]
    mass: 6.940000
    reduced_to: 25
  - symbol: Li # 29
    coordinates: [  0.534127253912042,  0.685585674372457,  0.274941309970809 ]
    mass: 6.940000
    reduced_to: 25
  - symbol: Li # 30
    coordinates: [  0.867460587245375,  0.685585674372457,  0.274941309970809 ]
    mass: 6.940000
    reduced_to: 25
  - symbol: Li # 31
    coordinates: [  0.200793920578708,  0.185585674372457,  0.774941309970809 ]
    mass: 6.940000
    reduced_to: 25
  - symbol: Li # 32
    coordinates: [  0.534127253912042,  0.185585674372457,  0.774941309970809 ]
    mass: 6.940000
    reduced_to: 25
  - symbol: Li # 33
    coordinates: [  0.867460587245375,  0.185585674372457,  0.774941309970809 ]
    mass: 6.940000
    reduced_to: 25
  - symbol: Li # 34
    coordinates: [  0.200793920578708,  0.685585674372457,  0.774941309970809 ]
    mass: 6.940000
    reduced_to: 25
  - symbol: Li # 35
    coordinates: [  0.534127253912042,  0.685585674372457,  0.774941309970809 ]
    mass: 6.940000
    reduced_to: 25
  - symbol: Li # 36
    coordinates: [  0.867460587245375,  0.685585674372457,  0.774941309970809 ]
    mass: 6.940000
    reduced_to: 25
  - symbol: Li # 37
    coordinates: [  0.040416803334331,  0.204104767383716,  0.157394938844779 ]
    mass: 6.940000
    reduced_to: 37
  - symbol: Li # 38
    coordinates: [  0.373750136667664,  0.204104767383716,  0.157394938844779 ]
    mass: 6.940000
    reduced_to: 37
  - symbol: Li # 39
    coordinates: [  0.707083470000997,  0.204104767383716,  0.157394938844779 ]
    mass: 6.940000
    reduced_to: 37
  - symbol: Li # 40
    coordinates: [  0.040416803334331,  0.704104767383716,  0.157394938844779 ]
    mass: 6.940000
    reduced_to: 37
  - symbol: Li # 41
    coordinates: [  0.373750136667664,  0.704104767383716,  0.157394938844779 ]
    mass: 6.940000
    reduced_to: 37
  - symbol: Li # 42
    coordinates: [  0.707083470000997,  0.704104767383716,  0.157394938844779 ]
    mass: 6.940000
    reduced_to: 37
  - symbol: Li # 43
    coordinates: [  0.040416803334331,  0.204104767383716,  0.657394938844779 ]
    mass: 6.940000
    reduced_to: 37
  - symbol: Li # 44
    coordinates: [  0.373750136667664,  0.204104767383716,  0.657394938844779 ]
    mass: 6.940000
    reduced_to: 37
  - symbol: Li # 45
    coordinates: [  0.707083470000997,  0.204104767383716,  0.657394938844779 ]
    mass: 6.940000
    reduced_to: 37
  - symbol: Li # 46
    coordinates: [  0.040416803334331,  0.704104767383716,  0.657394938844779 ]
    mass: 6.940000
    reduced_to: 37
  - symbol: Li # 47
    coordinates: [  0.373750136667664,  0.704104767383716,  0.657394938844779 ]
    mass: 6.940000
    reduced_to: 37
  - symbol: Li # 48
    coordinates: [  0.707083470000997,  0.704104767383716,  0.657394938844779 ]
    mass: 6.940000
    reduced_to: 37
  - symbol: Li # 49
    coordinates: [  0.123236916346943,  0.452200639121623,  0.341954225010364 ]
    mass: 6.940000
    reduced_to: 49
  - symbol: Li # 50
    coordinates: [  0.456570249680277,  0.452200639121623,  0.341954225010364 ]
    mass: 6.940000
    reduced_to: 49
  - symbol: Li # 51
    coordinates: [  0.789903583013610,  0.452200639121623,  0.341954225010364 ]
    mass: 6.940000
    reduced_to: 49
  - symbol: Li # 52
    coordinates: [  0.123236916346943,  0.952200639121623,  0.341954225010364 ]
    mass: 6.940000
    reduced_to: 49
  - symbol: Li # 53
    coordinates: [  0.456570249680277,  0.952200639121623,  0.341954225010364 ]
    mass: 6.940000
    reduced_to: 49
  - symbol: Li # 54
    coordinates: [  0.789903583013610,  0.952200639121623,  0.341954225010364 ]
    mass: 6.940000
    reduced_to: 49
  - symbol: Li # 55
    coordinates: [  0.123236916346943,  0.452200639121623,  0.841954225010364 ]
    mass: 6.940000
    reduced_to: 49
  - symbol: Li # 56
    coordinates: [  0.456570249680277,  0.452200639121623,  0.841954225010364 ]
    mass: 6.940000
    reduced_to: 49
  - symbol: Li # 57
    coordinates: [  0.789903583013610,  0.452200639121623,  0.841954225010364 ]
    mass: 6.940000
    reduced_to: 49
  - symbol: Li # 58
    coordinates: [  0.123236916346943,  0.952200639121623,  0.841954225010364 ]
    mass: 6.940000
    reduced_to: 49
  - symbol: Li # 59
    coordinates: [  0.456570249680277,  0.952200639121623,  0.841954225010364 ]
    mass: 6.940000
    reduced_to: 49
  - symbol: Li # 60
    coordinates: [  0.789903583013610,  0.952200639121623,  0.841954225010364 ]
    mass: 6.940000
    reduced_to: 49
  - symbol: Li # 61
    coordinates: [  0.291610593737026,  0.457270445244969,  0.473881019651882 ]
    mass: 6.940000
    reduced_to: 61
  - symbol: Li # 62
    coordinates: [  0.624943927070359,  0.457270445244969,  0.473881019651882 ]
    mass: 6.940000
    reduced_to: 61
  - symbol: Li # 63
    coordinates: [  0.958277260403692,  0.457270445244969,  0.473881019651882 ]
    mass: 6.940000
    reduced_to: 61
  - symbol: Li # 64
    coordinates: [  0.291610593737026,  0.957270445244969,  0.473881019651882 ]
    mass: 6.940000
    reduced_to: 61
  - symbol: Li # 65
    coordinates: [  0.624943927070359,  0.957270445244969,  0.473881019651882 ]
    mass: 6.940000
    reduced_to: 61
  - symbol: Li # 66
    coordinates: [  0.958277260403692,  0.957270445244969,  0.473881019651882 ]
    mass: 6.940000
    reduced_to: 61
  - symbol: Li # 67
    coordinates: [  0.291610593737026,  0.457270445244969,  0.973881019651882 ]
    mass: 6.940000
    reduced_to: 61
  - symbol: Li # 68
    coordinates: [  0.624943927070359,  0.457270445244969,  0.973881019651882 ]
    mass: 6.940000
    reduced_to: 61
  - symbol: Li # 69
    coordinates: [  0.958277260403692,  0.457270445244969,  0.973881019651882 ]
    mass: 6.940000
    reduced_to: 61
  - symbol: Li # 70
    coordinates: [  0.291610593737026,  0.957270445244969,  0.973881019651882 ]
    mass: 6.940000
    reduced_to: 61
  - symbol: Li # 71
    coordinates: [  0.624943927070359,  0.957270445244969,  0.973881019651882 ]
    mass: 6.940000
    reduced_to: 61
  - symbol: Li # 72
    coordinates: [  0.958277260403692,  0.957270445244969,  0.973881019651882 ]
    mass: 6.940000
    reduced_to: 61
  - symbol: Sn # 73
    coordinates: [  0.203720743531944,  0.194131215789565,  0.025821051459705 ]
    mass: 118.710000
    reduced_to: 73
  - symbol: Sn # 74
    coordinates: [  0.537054076865277,  0.194131215789565,  0.025821051459705 ]
    mass: 118.710000
    reduced_to: 73
  - symbol: Sn # 75
    coordinates: [  0.870387410198610,  0.194131215789565,  0.025821051459705 ]
    mass: 118.710000
    reduced_to: 73
  - symbol: Sn # 76
    coordinates: [  0.203720743531944,  0.694131215789565,  0.025821051459705 ]
    mass: 118.710000
    reduced_to: 73
  - symbol: Sn # 77
    coordinates: [  0.537054076865277,  0.694131215789565,  0.025821051459705 ]
    mass: 118.710000
    reduced_to: 73
  - symbol: Sn # 78
    coordinates: [  0.870387410198610,  0.694131215789565,  0.025821051459705 ]
    mass: 118.710000
    reduced_to: 73
  - symbol: Sn # 79
    coordinates: [  0.203720743531944,  0.194131215789565,  0.525821051459705 ]
    mass: 118.710000
    reduced_to: 73
  - symbol: Sn # 80
    coordinates: [  0.537054076865277,  0.194131215789565,  0.525821051459705 ]
    mass: 118.710000
    reduced_to: 73
  - symbol: Sn # 81
    coordinates: [  0.870387410198610,  0.194131215789565,  0.525821051459705 ]
    mass: 118.710000
    reduced_to: 73
  - symbol: Sn # 82
    coordinates: [  0.203720743531944,  0.694131215789565,  0.525821051459705 ]
    mass: 118.710000
    reduced_to: 73
  - symbol: Sn # 83
    coordinates: [  0.537054076865277,  0.694131215789565,  0.525821051459705 ]
    mass: 118.710000
    reduced_to: 73
  - symbol: Sn # 84
    coordinates: [  0.870387410198610,  0.694131215789565,  0.525821051459705 ]
    mass: 118.710000
    reduced_to: 73
  - symbol: Sn # 85
    coordinates: [  0.288766973620545,  0.448927713329953,  0.223164458462048 ]
    mass: 118.710000
    reduced_to: 85
  - symbol: Sn # 86
    coordinates: [  0.622100306953879,  0.448927713329953,  0.223164458462048 ]
    mass: 118.710000
    reduced_to: 85
  - symbol: Sn # 87
    coordinates: [  0.955433640287212,  0.448927713329953,  0.223164458462048 ]
    mass: 118.710000
    reduced_to: 85
  - symbol: Sn # 88
    coordinates: [  0.288766973620545,  0.948927713329953,  0.223164458462048 ]
    mass: 118.710000
    reduced_to: 85
  - symbol: Sn # 89
    coordinates: [  0.622100306953879,  0.948927713329953,  0.223164458462048 ]
    mass: 118.710000
    reduced_to: 85
  - symbol: Sn # 90
    coordinates: [  0.955433640287212,  0.948927713329953,  0.223164458462048 ]
    mass: 118.710000
    reduced_to: 85
  - symbol: Sn # 91
    coordinates: [  0.288766973620545,  0.448927713329953,  0.723164458462048 ]
    mass: 118.710000
    reduced_to: 85
  - symbol: Sn # 92
    coordinates: [  0.622100306953879,  0.448927713329953,  0.723164458462048 ]
    mass: 118.710000
    reduced_to: 85
  - symbol: Sn # 93
    coordinates: [  0.955433640287212,  0.448927713329953,  0.723164458462048 ]
    mass: 118.710000
    reduced_to: 85
  - symbol: Sn # 94
    coordinates: [  0.288766973620545,  0.948927713329953,  0.723164458462048 ]
    mass: 118.710000
    reduced_to: 85
  - symbol: Sn # 95
    coordinates: [  0.622100306953879,  0.948927713329953,  0.723164458462048 ]
    mass: 118.710000
    reduced_to: 85
  - symbol: Sn # 96
    coordinates: [  0.955433640287212,  0.948927713329953,  0.723164458462048 ]
    mass: 118.710000
    reduced_to: 85

displacements:
- atom:    1
  displacement:
    [   0.0100000000000000,  0.0000000000000000,  0.0000000000000000 ]
  forces:
  - [  -0.0237204395234585,  0.0067046191543341, -0.0281577464193106 ]
  - [   0.0014633239479735,  0.0065823160111904, -0.0278882402926683 ]
  - [   0.0014769030967727,  0.0067369304597378, -0.0280925296247005 ]
  - [   0.0019205791177228,  0.0065970234572887, -0.0280223712325096 ]
  - [   0.0019060256890953,  0.0067078284919262, -0.0279645528644323 ]
  - [   0.0019076316384599,  0.0066761560738087, -0.0279869958758354 ]
  - [   0.0018996101571247,  0.0066605284810066, -0.0279917679727077 ]
  - [   0.0018945938209072,  0.0066586472094059, -0.0280059650540352 ]
  - [   0.0018943005707115,  0.0066629629582167, -0.0279781203716993 ]
  - [   0.0018984364578500,  0.0066427588462830, -0.0280198343098164 ]
  - [   0.0018968447111547,  0.0066804680973291, -0.0279625542461872 ]
  - [   0.0018966402858496,  0.0066607762128115, -0.0279914960265160 ]
  - [   0.0012044081231579,  0.0051901526749134, -0.0051779113709927 ]
  - [   0.0012532569235191,  0.0051955133676529, -0.0051884483546019 ]
  - [   0.0012515985872597,  0.0051798522472382, -0.0051710782572627 ]
  - [   0.0013430900871754,  0.0053297206759453, -0.0051604462787509 ]
  - [   0.0012378394603729,  0.0051880516111851, -0.0051810285076499 ]
  - [   0.0013422211632133,  0.0050467960536480, -0.0051961299031973 ]
  - [   0.0007189614698291,  0.0051855668425560, -0.0051850508898497 ]
  - [   0.0012135289143771,  0.0049974210560322, -0.0051056882366538 ]
  - [   0.0012144307838753,  0.0053824894130230, -0.0052533969283104 ]
  - [   0.0012823216384277,  0.0054545402526855, -0.0052443621680140 ]
  - [   0.0012243790552020,  0.0052009746432304, -0.0051785008981824 ]
  - [   0.0012747235596180,  0.0049152672290802, -0.0051205484196544 ]
  - [   0.0045913304202259,  0.0157408416271210,  0.0242402255535126 ]
  - [   0.0020583756268024,  0.0152168609201908,  0.0263052061200142 ]
  - [   0.0045694038271904,  0.0147076128050685,  0.0283438209444284 ]
  - [   0.0018940947484225,  0.0152398701757193,  0.0263308845460415 ]
  - [   0.0019667407032102,  0.0152097092941403,  0.0262752883136272 ]
  - [   0.0019350306829438,  0.0152039378881454,  0.0263100992888212 ]
  - [   0.0020770430564880,  0.0152768343687057,  0.0262128449976444 ]
  - [   0.0019351802766323,  0.0152182150632143,  0.0263051725924015 ]
  - [   0.0020775869488716,  0.0151592995971441,  0.0263977460563183 ]
  - [   0.0019765242468566,  0.0152134764939547,  0.0263066757470369 ]
  - [   0.0019876384176314,  0.0152060464024544,  0.0262857563793659 ]
  - [   0.0019880176987499,  0.0152324177324772,  0.0263231899589300 ]
  - [  -0.0012511321110651, -0.0062211081385612,  0.0063940491527319 ]
  - [  -0.0016937430482358, -0.0062809735536575,  0.0063979635015130 ]
  - [  -0.0016961947549134, -0.0061589032411575,  0.0063781738281250 ]
  - [  -0.0014607147313654, -0.0063764005899429,  0.0063063520938158 ]
  - [  -0.0016055330634117, -0.0062407813966274,  0.0063947457820177 ]
  - [  -0.0014632064849138, -0.0060430988669395,  0.0064664930105209 ]
  - [  -0.0015386630548164, -0.0062172263860703,  0.0063885431736708 ]
  - [  -0.0019203561823815, -0.0061806589365005,  0.0061715077608824 ]
  - [  -0.0019252575002611, -0.0062598660588264,  0.0066109020262957 ]
  - [  -0.0015910438960418, -0.0061972178518772,  0.0063603632152081 ]
  - [  -0.0015886757755652, -0.0062248595058918,  0.0064133610576391 ]
  - [  -0.0016037779860198, -0.0062366127967834,  0.0063947141170502 ]
  - [  -0.0018029283965006, -0.0056625362485647,  0.0263475924730301 ]
  - [  -0.0016715923557058, -0.0056080184876919,  0.0263217911124229 ]
  - [  -0.0016681947745383, -0.0057205576449633,  0.0263667646795511 ]
  - [  -0.0005606923950836, -0.0063159968703985,  0.0258790701627731 ]
  - [  -0.0017220925074071, -0.0056596491485834,  0.0263491049408913 ]
  - [  -0.0005688566016033, -0.0050215665251017,  0.0268054679036140 ]
  - [  -0.0017199727008119, -0.0056628268212080,  0.0263432916253805 ]
  - [  -0.0017691208049655, -0.0056654363870621,  0.0263198371976614 ]
  - [  -0.0017678356962278, -0.0056594256311655,  0.0263664033263922 ]
  - [  -0.0017489010933787, -0.0056464076042175,  0.0263465121388435 ]
  - [  -0.0017476292559877, -0.0056608617305756,  0.0263430476188660 ]
  - [  -0.0017501617548987, -0.0056807417422533,  0.0263411737978458 ]
  - [  -0.0012440804857761, -0.0142033016309142, -0.0247086063027382 ]
  - [  -0.0016757466364652, -0.0144694810733199, -0.0249225050210953 ]
  - [  -0.0012455591931939, -0.0147421183064580, -0.0251376554369926 ]
  - [  -0.0017127024475485, -0.0143440738320351, -0.0247505791485310 ]
  - [  -0.0017077719094232, -0.0146021684631705, -0.0250981245189905 ]
  - [  -0.0025346623733640, -0.0144706936553121, -0.0249249711632729 ]
  - [  -0.0016749210190028, -0.0144692780449986, -0.0249472670257092 ]
  - [  -0.0016805005725473, -0.0144703146070242, -0.0249200761318207 ]
  - [  -0.0016738486010581, -0.0144779384136200, -0.0249024238437414 ]
  - [  -0.0016759883146733, -0.0144665483385324, -0.0249252803623676 ]
  - [  -0.0016756121767685, -0.0144787114113569, -0.0249200016260147 ]
  - [  -0.0016920468769968, -0.0144726242870092, -0.0249217804521322 ]
  - [   0.0007128808647394,  0.0117969959974289, -0.0448299199342728 ]
  - [   0.0006826203316450,  0.0118107236921787, -0.0447858609259129 ]
  - [   0.0007130149751902,  0.0118281207978725, -0.0447408221662045 ]
  - [   0.0007131323218346,  0.0118364207446575, -0.0447469353675842 ]
  - [   0.0006967764347792,  0.0117812231183052, -0.0448174886405468 ]
  - [   0.0005656909197569,  0.0118213817477226, -0.0447818972170353 ]
  - [   0.0103788077831268,  0.0097421221435070, -0.0397223755717278 ]
  - [   0.0005040747928433,  0.0118081457912922, -0.0447856560349464 ]
  - [   0.0101438779383898,  0.0138182863593102, -0.0496648065745831 ]
  - [   0.0007244129083119,  0.0118300467729568, -0.0447855219244957 ]
  - [   0.0006166592938825,  0.0117088258266449, -0.0448264740407467 ]
  - [   0.0006105091888458,  0.0118941217660904, -0.0447448231279850 ]
  - [  -0.0008044652640820, -0.0127015598118305,  0.0438920892775059 ]
  - [  -0.0008251853287220, -0.0125191807746887,  0.0438410900533199 ]
  - [  -0.0008103642612696, -0.0123460739850998,  0.0437848158180714 ]
  - [  -0.0008296668529510, -0.0125967189669609,  0.0439338274300098 ]
  - [  -0.0008389316499233, -0.0124585703015327,  0.0437434427440166 ]
  - [  -0.0002655573189259, -0.0125099234282970,  0.0438491664826870 ]
  - [  -0.0007158331573009, -0.0124641358852386,  0.0440428331494331 ]
  - [  -0.0007834583520889, -0.0125240981578827,  0.0438409447669983 ]
  - [  -0.0007234402000904, -0.0125836879014969,  0.0436415225267410 ]
  - [  -0.0008548796176910, -0.0124803856015205,  0.0437994226813316 ]
  - [  -0.0008527152240276, -0.0125598832964897,  0.0438949763774872 ]
  - [  -0.0006804354488850, -0.0125257447361946,  0.0438283979892731 ]
- atom:    1
  displacement:
    [  -0.0100000000000000,  0.0000000000000000,  0.0000000000000000 ]
  forces:
  - [   0.0275176689028740,  0.0067279655486345, -0.0282300114631653 ]
  - [   0.0023212921805680,  0.0067378692328930, -0.0280926246196032 ]
  - [   0.0023348079994321,  0.0065838377922773, -0.0278892870992422 ]
  - [   0.0018763295374811,  0.0067218318581581, -0.0279601942747831 ]
  - [   0.0018888391787186,  0.0066131111234426, -0.0280180647969246 ]
  - [   0.0018902686424553,  0.0066444575786591, -0.0279956758022308 ]
  - [   0.0018934786785394,  0.0066606532782316, -0.0279913060367107 ]
  - [   0.0019005570793524,  0.0066629480570555, -0.0279784984886646 ]
  - [   0.0018999367021024,  0.0066584013402462, -0.0280063766986132 ]
  - [   0.0018951536621898,  0.0066797621548176, -0.0279616322368383 ]
  - [   0.0018985178321600,  0.0066428501158953, -0.0280190147459507 ]
  - [   0.0018984511261806,  0.0066612381488085, -0.0279932375997305 ]
  - [   0.0012730227317661,  0.0051872804760933, -0.0051802536472678 ]
  - [   0.0012244080426171,  0.0051818378269672, -0.0051702372729778 ]
  - [   0.0012252714950591,  0.0051964819431305, -0.0051876166835427 ]
  - [   0.0011351974681020,  0.0050481446087360, -0.0051960814744234 ]
  - [   0.0012404727749527,  0.0051881447434425, -0.0051778145134449 ]
  - [   0.0011353446170688,  0.0053297579288483, -0.0051602106541395 ]
  - [   0.0017583263106644,  0.0051861554384232, -0.0051890732720494 ]
  - [   0.0012630050769076,  0.0053794123232365, -0.0052547482773662 ]
  - [   0.0012666259426624,  0.0049940571188927, -0.0051066456362605 ]
  - [   0.0011961881536990,  0.0049306452274323, -0.0051202578470111 ]
  - [   0.0012529697269201,  0.0051752552390099, -0.0051816105842590 ]
  - [   0.0012043667957187,  0.0054693929851055, -0.0052424483001232 ]
  - [  -0.0005846701096743,  0.0147022064775229,  0.0283434055745602 ]
  - [   0.0019325129687786,  0.0152183789759874,  0.0263053625822067 ]
  - [  -0.0005986333126202,  0.0157355125993490,  0.0242401026189327 ]
  - [   0.0020955167710781,  0.0151957022026181,  0.0262795165181160 ]
  - [   0.0020226018968970,  0.0152258193120360,  0.0263343378901482 ]
  - [   0.0020534822251648,  0.0152315516024828,  0.0263021476566792 ]
  - [   0.0019135065376759,  0.0151603426784277,  0.0263960864394903 ]
  - [   0.0020547844469547,  0.0152175612747669,  0.0263056773692369 ]
  - [   0.0019119493663311,  0.0152771398425102,  0.0262110605835915 ]
  - [   0.0020147990435362,  0.0152208060026169,  0.0263037085533142 ]
  - [   0.0020031547173858,  0.0152285536751151,  0.0263252183794975 ]
  - [   0.0020036767236888,  0.0152020948007703,  0.0262870155274868 ]
  - [  -0.0019563736859709, -0.0062211677432060,  0.0063908621668816 ]
  - [  -0.0015104106860235, -0.0061583817005157,  0.0063767367973924 ]
  - [  -0.0015183861833066, -0.0062800794839859,  0.0063980910927057 ]
  - [  -0.0017476149369031, -0.0060624554753304,  0.0064731054008007 ]
  - [  -0.0016028676182032, -0.0062006786465645,  0.0063830576837063 ]
  - [  -0.0017427839338779, -0.0063957199454308,  0.0063131060451269 ]
  - [  -0.0016703617293388, -0.0062207393348217,  0.0063923262059689 ]
  - [  -0.0012806633021683, -0.0062597319483757,  0.0066122524440289 ]
  - [  -0.0012898200657219, -0.0061808116734028,  0.0061742290854454 ]
  - [  -0.0016187183791772, -0.0062428377568722,  0.0064188409596682 ]
  - [  -0.0016221257392317, -0.0062144845724106,  0.0063650980591774 ]
  - [  -0.0016053997678682, -0.0062020532786846,  0.0063842590898275 ]
  - [  -0.0016955659957603, -0.0056746117770672,  0.0263453479856253 ]
  - [  -0.0018259780481458, -0.0057178009301424,  0.0263689365237951 ]
  - [  -0.0018271455774084, -0.0056056883186102,  0.0263239815831184 ]
  - [  -0.0029196671675891, -0.0050328299403191,  0.0268014743924141 ]
  - [  -0.0017760836053640, -0.0056656245142221,  0.0263422373682261 ]
  - [  -0.0029480739030987, -0.0063273683190346,  0.0258729495108128 ]
  - [  -0.0017791140126064, -0.0056622773408890,  0.0263436567038298 ]
  - [  -0.0017302642809227, -0.0056596454232931,  0.0263668261468410 ]
  - [  -0.0017296280711889, -0.0056648962199688,  0.0263204127550125 ]
  - [  -0.0017479322850704, -0.0056793205440044,  0.0263415426015854 ]
  - [  -0.0017498747911304, -0.0056639164686203,  0.0263441354036331 ]
  - [  -0.0017485616263002, -0.0056447535753250,  0.0263451188802719 ]
  - [  -0.0021009317133576, -0.0147298211231828, -0.0251331254839897 ]
  - [  -0.0016781367594376, -0.0144760105758905, -0.0249250903725624 ]
  - [  -0.0021175825968385, -0.0141897369176149, -0.0247043855488300 ]
  - [  -0.0016449510585517, -0.0145993409678340, -0.0250956863164902 ]
  - [  -0.0016405703499913, -0.0143402274698019, -0.0247478336095810 ]
  - [  -0.0008170785149559, -0.0144535824656487, -0.0249302871525288 ]
  - [  -0.0016781070735306, -0.0144754387438297, -0.0248996093869209 ]
  - [  -0.0016731314826757, -0.0144748818129301, -0.0249257497489452 ]
  - [  -0.0016781800659373, -0.0144674535840750, -0.0249443650245667 ]
  - [  -0.0016786607448012, -0.0144785773009062, -0.0249200612306595 ]
  - [  -0.0016774311661720, -0.0144663462415338, -0.0249253213405609 ]
  - [  -0.0016613155603409, -0.0144731402397156, -0.0249207988381386 ]
  - [   0.0006737504154444,  0.0118265077471733, -0.0447411090135574 ]
  - [   0.0007027350366116,  0.0118124410510063, -0.0447842143476009 ]
  - [   0.0006730873137712,  0.0117961503565311, -0.0448316782712936 ]
  - [   0.0006711613386869,  0.0117895901203156, -0.0448166355490685 ]
  - [   0.0006871521472931,  0.0118450261652470, -0.0447464250028133 ]
  - [   0.0008209384977818,  0.0118010714650154, -0.0447889268398285 ]
  - [  -0.0087214605882764,  0.0138039290904999, -0.0496376045048237 ]
  - [   0.0008775718742982,  0.0118114240467548, -0.0447860583662987 ]
  - [  -0.0090336278080940,  0.0097266547381878, -0.0396948233246803 ]
  - [   0.0006599455955438,  0.0117960236966610, -0.0447836332023144 ]
  - [   0.0007669275510125,  0.0119102671742439, -0.0447452664375305 ]
  - [   0.0007729005883448,  0.0117240063846111, -0.0448284633457661 ]
  - [  -0.0007855463773012, -0.0123464167118073,  0.0437901988625526 ]