# Thermal properties / unit cell (natom)

unit:
  temperature:   K
  free_energy:   kJ/mol
  entropy:       J/K/mol
  heat_capacity: J/K/mol

natom: 1    
cutoff_frequency: 0.00000
num_modes: 151959
num_integrated_modes: 140292

zero_point_energy:       0.7909254

thermal_properties:
- temperature:         0.0000000
  free_energy:         0.7909254
  entropy:             0.0000000
  heat_capacity:       0.0000000
  energy:              0.7909254

- temperature:        10.0000000
  free_energy:         0.7828666
  entropy:             2.2184306
  heat_capacity:       3.6816410
  energy:              0.8050509

- temperature:        20.0000000
  free_energy:         0.7394936
  entropy:             6.6807118
  heat_capacity:      10.0108567
  energy:              0.8731078

- temperature:        30.0000000
  free_energy:         0.6473093
  entropy:            11.7467468
  heat_capacity:      14.9073010
  energy:              0.9997117

- temperature:        40.0000000
  free_energy:         0.5058117
  entropy:            16.4630578
  heat_capacity:      17.7507735
  energy:              1.1643340

- temperature:        50.0000000
  free_energy:         0.3199465
  entropy:            20.6166716
  heat_capacity:      19.3960113
  energy:              1.3507801

- temperature:        60.0000000
  free_energy:         0.0952200
  entropy:            24.2487537
  heat_capacity:      20.3996825
  energy:              1.5501453

- temperature:        70.0000000
  free_energy:        -0.1635783
  entropy:            27.4454183
  heat_capacity:      21.0471943
  energy:              1.7576010

- temperature:        80.0000000
  free_energy:        -0.4525042
  entropy:            30.2862999
  heat_capacity:      21.4857987
  energy:              1.9703998

- temperature:        90.0000000
  free_energy:        -0.7683347
  entropy:            32.8358305
  heat_capacity:      21.7952535
  energy:              2.1868901

- temperature:       100.0000000
  free_energy:        -1.1084190
  entropy:            35.1444722
  heat_capacity:      22.0211144
  energy:              2.4060282

- temperature:       110.0000000
  free_energy:        -1.4705534
  entropy:            37.2516300
  heat_capacity:      22.1907033
  energy:              2.6271259

- temperature:       120.0000000
  free_energy:        -1.8528841
  entropy:            39.1883032
  heat_capacity:      22.3211243
  energy:              2.8497123

- temperature:       130.0000000
  free_energy:        -2.2538339
  entropy:            40.9791475
  heat_capacity:      22.4234915
  energy:              3.0734552

- temperature:       140.0000000
  free_energy:        -2.6720475
  entropy:            42.6440087
  heat_capacity:      22.5052634
  energy:              3.2981137

- temperature:       150.0000000
  free_energy:        -3.1063484
  entropy:            44.1990502
  heat_capacity:      22.5715880
  energy:              3.5235092

- temperature:       160.0000000
  free_energy:        -3.5557070
  entropy:            45.6575831
  heat_capacity:      22.6261075
  energy:              3.7495063

- temperature:       170.0000000
  free_energy:        -4.0192154
  entropy:            47.0306839
  heat_capacity:      22.6714549
  energy:              3.9760008

- temperature:       180.0000000
  free_energy:        -4.4960671
  entropy:            48.3276579
  heat_capacity:      22.7095707
  energy:              4.2029113

- temperature:       190.0000000
  free_energy:        -4.9855413
  entropy:            49.5563909
  heat_capacity:      22.7419098
  energy:              4.4301730

- temperature:       200.0000000
  free_energy:        -5.4869900
  entropy:            50.7236200
  heat_capacity:      22.7695798
  energy:              4.6577340

- temperature:       210.0000000
  free_energy:        -5.9998281
  entropy:            51.8351428
  heat_capacity:      22.7934358
  energy:              4.8855519

- temperature:       220.0000000
  free_energy:        -6.5235240
  entropy:            52.8959828
  heat_capacity:      22.8141462
  energy:              5.1135922

- temperature:       230.0000000
  free_energy:        -7.0575934
  entropy:            53.9105198
  heat_capacity:      22.8322395
  energy:              5.3418261

- temperature:       240.0000000
  free_energy:        -7.6015929
  entropy:            54.8825942
  heat_capacity:      22.8481379
  energy:              5.5702297

- temperature:       250.0000000
  free_energy:        -8.1551151
  entropy:            55.8155913
  heat_capacity:      22.8621818
  energy:              5.7987827

- temperature:       260.0000000
  free_energy:        -8.7177845
  entropy:            56.7125100
  heat_capacity:      22.8746485
  energy:              6.0274681

- temperature:       270.0000000
  free_energy:        -9.2892540
  entropy:            57.5760191
  heat_capacity:      22.8857651
  energy:              6.2562712

- temperature:       280.0000000
  free_energy:        -9.8692015
  entropy:            58.4085036
  heat_capacity:      22.8957195
  energy:              6.4851795

- temperature:       290.0000000
  free_energy:       -10.4573278
  entropy:            59.2121035
  heat_capacity:      22.9046680
  energy:              6.7141822

- temperature:       300.0000000
  free_energy:       -11.0533537
  entropy:            59.9887457
  heat_capacity:      22.9127416
  energy:              6.9432700

- temperature:       310.0000000
  free_energy:       -11.6570187
  entropy:            60.7401715
  heat_capacity:      22.9200505
  energy:              7.1724345

- temperature:       320.0000000
  free_energy:       -12.2680784
  entropy:            61.4679598
  heat_capacity:      22.9266882
  energy:              7.4016687

- temperature:       330.0000000
  free_energy:       -12.8863039
  entropy:            62.1735460
  heat_capacity:      22.9327345
  energy:              7.6309663

- temperature:       340.0000000
  free_energy:       -13.5114797
  entropy:            62.8582393
  heat_capacity:      22.9382574
  energy:              7.8603217

- temperature:       350.0000000
  free_energy:       -14.1434030
  entropy:            63.5232369
  heat_capacity:      22.9433156
  energy:              8.0897299

- temperature:       360.0000000
  free_energy:       -14.7818824
  entropy:            64.1696362
  heat_capacity:      22.9479597
  energy:              8.3191866

- temperature:       370.0000000
  free_energy:       -15.4267371
  entropy:            64.7984459
  heat_capacity:      22.9522338
  energy:              8.5486879

- temperature:       380.0000000
  free_energy:       -16.0777958
  entropy:            65.4105948
  heat_capacity:      22.9561761
  energy:              8.7782302

- temperature:       390.0000000
  free_energy:       -16.7348963
  entropy:            66.0069403
  heat_capacity:      22.9598200
  energy:              9.0078104

- temperature:       400.0000000
  free_energy:       -17.3978846
  entropy:            66.5882757
  heat_capacity:      22.9631948
  energy:              9.2374257

- temperature:       410.0000000
  free_energy:       -18.0666143
  entropy:            67.1553360
  heat_capacity:      22.9663265
  energy:              9.4670735

- temperature:       420.0000000
  free_energy:       -18.7409460
  entropy:            67.7088036
  heat_capacity:      22.9692378
  energy:              9.6967515

- temperature:       430.0000000
  free_energy:       -19.4207471
  entropy:            68.2493133
  heat_capacity:      22.9719489
  energy:              9.9264576

- temperature:       440.0000000
  free_energy:       -20.1058911
  entropy:            68.7774566
  heat_capacity:      22.9744777
  energy:             10.1561899

- temperature:       450.0000000
  free_energy:       -20.7962569
  entropy:            69.2937855
  heat_capacity:      22.9768402
  energy:             10.3859466

- temperature:       460.0000000
  free_energy:       -21.4917291
  entropy:            69.7988158
  heat_capacity:      22.9790506
  energy:             10.6157262

- temperature:       470.0000000
  free_energy:       -22.1921972
  entropy:            70.2930304
  heat_capacity:      22.9811218
  energy:             10.8455271

- temperature:       480.0000000
  free_energy:       -22.8975552
  entropy:            70.7768820
  heat_capacity:      22.9830652
  energy:             11.0753482

- temperature:       490.0000000
  free_energy:       -23.6077017
  entropy:            71.2507954
  heat_capacity:      22.9848911
  energy:             11.3051880

- temperature:       500.0000000
  free_energy:       -24.3225393
  entropy:            71.7151698
  heat_capacity:      22.9866087
  energy:             11.5350456

- temperature:       510.0000000
  free_energy:       -25.0419745
  entropy:            72.1703812
  heat_capacity:      22.9882265
  energy:             11.7649199

- temperature:       520.0000000
  free_energy:       -25.7659176
  entropy:            72.6167835
  heat_capacity:      22.9897520
  energy:             11.9948098

- temperature:       530.0000000
  free_energy:       -26.4942820
  entropy:            73.0547106
  heat_capacity:      22.9911921
  energy:             12.2247146

- temperature:       540.0000000
  free_energy:       -27.2269846
  entropy:            73.4844778
  heat_capacity:      22.9925531
  energy:             12.4546334

- temperature:       550.0000000
  free_energy:       -27.9639453
  entropy:            73.9063832
  heat_capacity:      22.9938407
  energy:             12.6845655

- temperature:       560.0000000
  free_energy:       -28.7050870
  entropy:            74.3207089
  heat_capacity:      22.9950600
  energy:             12.9145100

- temperature:       570.0000000
  free_energy:       -29.4503351
  entropy:            74.7277220
  heat_capacity:      22.9962158
  energy:             13.1444664

- temperature:       580.0000000
  free_energy:       -30.1996179
  entropy:            75.1276759
  heat_capacity:      22.9973124
  energy:             13.3744341

- temperature:       590.0000000
  free_energy:       -30.9528659
  entropy:            75.5208109
  heat_capacity:      22.9983538
  energy:             13.6044125

- temperature:       600.0000000
  free_energy:       -31.7100121
  entropy:            75.9073553
  heat_capacity:      22.9993437
  energy:             13.8344010

- temperature:       610.0000000
  free_energy:       -32.4709918
  entropy:            76.2875262
  heat_capacity:      23.0002853
  energy:             14.0643992

- temperature:       620.0000000
  free_energy:       -33.2357421
  entropy:            76.6615302
  heat_capacity:      23.0011818
  energy:             14.2944066

- temperature:       630.0000000
  free_energy:       -34.0042025
  entropy:            77.0295638
  heat_capacity:      23.0020360
  energy:             14.5244227

- temperature:       640.0000000
  free_energy:       -34.7763141
  entropy:            77.3918145
  heat_capacity:      23.0028505
  energy:             14.7544472

- temperature:       650.0000000
  free_energy:       -35.5520201
  entropy:            77.7484610
  heat_capacity:      23.0036278
  energy:             14.9844796

- temperature:       660.0000000
  free_energy:       -36.3312652
  entropy:            78.0996740
  heat_capacity:      23.0043700
  energy:             15.2145196

- temperature:       670.0000000
  free_energy:       -37.1139960
  entropy:            78.4456162
  heat_capacity:      23.0050793
  energy:             15.4445669

- temperature:       680.0000000
  free_energy:       -37.9001605
  entropy:            78.7864435
  heat_capacity:      23.0057575
  energy:             15.6746211

- temperature:       690.0000000
  free_energy:       -38.6897083
  entropy:            79.1223047
  heat_capacity:      23.0064066
  energy:             15.9046819

- temperature:       700.0000000
  free_energy:       -39.4825905
  entropy:            79.4533423
  heat_capacity:      23.0070280
  energy:             16.1347491

- temperature:       710.0000000
  free_energy:       -40.2787595
  entropy:            79.7796929
  heat_capacity:      23.0076234
  energy:             16.3648224

- temperature:       720.0000000
  free_energy:       -41.0781692
  entropy:            80.1014871
  heat_capacity:      23.0081941
  energy:             16.5949015

- temperature:       730.0000000
  free_energy:       -41.8807745
  entropy:            80.4188503
  heat_capacity:      23.0087416
  energy:             16.8249862

- temperature:       740.0000000
  free_energy:       -42.6865318
  entropy:            80.7319028
  heat_capacity:      23.0092671
  energy:             17.0550763

- temperature:       750.0000000
  free_energy:       -43.4953986
  entropy:            81.0407601
  heat_capacity:      23.0097717
  energy:             17.2851715

- temperature:       760.0000000
  free_energy:       -44.3073334
  entropy:            81.3455330
  heat_capacity:      23.0102565
  energy:             17.5152717

- temperature:       770.0000000
  free_energy:       -45.1222960
  entropy:            81.6463280
  heat_capacity:      23.0107226
  energy:             17.7453766

- temperature:       780.0000000
  free_energy:       -45.9402470
  entropy:            81.9432475
  heat_capacity:      23.0111709
  energy:             17.9754860

- temperature:       790.0000000
  free_energy:       -46.7611483
  entropy:            82.2363902
  heat_capacity:      23.0116023
  energy:             18.2055999

- temperature:       800.0000000
  free_energy:       -47.5849626
  entropy:            82.5258508
  heat_capacity:      23.0120176
  energy:             18.4357180

- temperature:       810.0000000
  free_energy:       -48.4116534
  entropy:            82.8117205
  heat_capacity:      23.0124177
  energy:             18.6658402

- temperature:       820.0000000
  free_energy:       -49.2411853
  entropy:            83.0940874
  heat_capacity:      23.0128032
  energy:             18.8959663

- temperature:       830.0000000
  free_energy:       -50.0735237
  entropy:            83.3730361
  heat_capacity:      23.0131749
  energy:             19.1260962

- temperature:       840.0000000
  free_energy:       -50.9086349
  entropy:            83.6486485
  heat_capacity:      23.0135334
  energy:             19.3562298

- temperature:       850.0000000
  free_energy:       -51.7464858
  entropy:            83.9210032
  heat_capacity:      23.0138793
  energy:             19.5863669

- temperature:       860.0000000
  free_energy:       -52.5870444
  entropy:            84.1901764
  heat_capacity:      23.0142132
  energy:             19.8165073

- temperature:       870.0000000
  free_energy:       -53.4302790
  entropy:            84.4562415
  heat_capacity:      23.0145357
  energy:             20.0466511

- temperature:       880.0000000
  free_energy:       -54.2761591
  entropy:            84.7192694
  heat_capacity:      23.0148473
  energy:             20.2767980

- temperature:       890.0000000
  free_energy:       -55.1246545
  entropy:            84.9793287
  heat_capacity:      23.0151484
  energy:             20.5069480

- temperature:       900.0000000
  free_energy:       -55.9757360
  entropy:            85.2364855
  heat_capacity:      23.0154395
  energy:             20.7371010

- temperature:       910.0000000
  free_energy:       -56.8293748
  entropy:            85.4908039
  heat_capacity:      23.0157212
  energy:             20.9672568

- temperature:       920.0000000
  free_energy:       -57.6855428
  entropy:            85.7423458
  heat_capacity:      23.0159936
  energy:             21.1974153

- temperature:       930.0000000
  free_energy:       -58.5442126
  entropy:            85.9911712
  heat_capacity:      23.0162574
  energy:             21.4275766

- temperature:       940.0000000
  free_energy:       -59.4053574
  entropy:            86.2373381
  heat_capacity:      23.0165128
  energy:             21.6577405

- temperature:       950.0000000
  free_energy:       -60.2689507
  entropy:            86.4809027
  heat_capacity:      23.0167601
  energy:             21.8879068

- temperature:       960.0000000
  free_energy:       -61.1349669
  entropy:            86.7219193
  heat_capacity:      23.0169998
  energy:             22.1180756

- temperature:       970.0000000
  free_energy:       -62.0033808
  entropy:            86.9604408
  heat_capacity:      23.0172321
  energy:             22.3482468

- temperature:       980.0000000
  free_energy:       -62.8741676
  entropy:            87.1965182
  heat_capacity:      23.0174573
  energy:             22.5784203

- temperature:       990.0000000
  free_energy:       -63.7473032
  entropy:            87.4302011
  heat_capacity:      23.0176758
  energy:             22.8085959

- temperature:      1000.0000000
  free_energy:       -64.6227638
  entropy:            87.6615375
  heat_capacity:      23.0178877
  energy:             23.0387738
