phonopy:
  version: "2.37.1"
  frequency_unit_conversion_factor: 15.633302
  symmetry_tolerance: 1.00000e-05

space_group:
  type: "P1"
  number: 1
  Hall_symbol: "P 1"

primitive_matrix:
- [ -0.000000000000000,  1.000000000000000, -1.000000000000000 ]
- [  1.000000000000000,  0.000000000000000, -1.000000000000000 ]
- [  0.000000000000000,  0.000000000000000, -1.000000000000000 ]

supercell_matrix:
- [   3,   0,   0 ]
- [   0,   3,   0 ]
- [   0,   0,   1 ]

primitive_cell:
  lattice:
  - [    -0.000087451911621,     4.380633704059256,     0.000000000000000 ] # a
  - [     4.413309769700012,     0.000000000000000,     0.000000000000000 ] # b
  - [    -2.205036635496949,    -2.188453448933998,   -12.610553493534974 ] # c
  points:
  - symbol: Li # 1
    coordinates: [  0.178096397104653,  0.592317022198668,  0.117497399866723 ]
    mass: 6.940000
  - symbol: Li # 2
    coordinates: [  0.927279753309679,  0.841731931876094,  0.615633376454826 ]
    mass: 6.940000
  - symbol: Li # 3
    coordinates: [  0.515526932435807,  0.930140623108969,  0.792416602536576 ]
    mass: 6.940000
  - symbol: Li # 4
    coordinates: [  0.013515138000665,  0.428133201589677,  0.788119097996381 ]
    mass: 6.940000
  - symbol: Li # 5
    coordinates: [  0.679967924389073,  0.094458457381269,  0.121881575435160 ]
    mass: 6.940000
  - symbol: Li # 6
    coordinates: [  0.765903899875902,  0.680058500594755,  0.293284307691945 ]
    mass: 6.940000
  - symbol: Li # 7
    coordinates: [  0.846519357671441,  0.260735124628414,  0.454242213519752 ]
    mass: 6.940000
  - symbol: Sn # 8
    coordinates: [  0.257701635427297,  0.172039865059609,  0.277256146174911 ]
    mass: 118.710000
  - symbol: Sn # 9
    coordinates: [  0.346675372008426,  0.760817600332858,  0.454515530466403 ]
    mass: 118.710000
  - symbol: Sn # 10
    coordinates: [  0.598481091498169,  0.512892277383339,  0.958057966483851 ]
    mass: 118.710000
  - symbol: Sn # 11
    coordinates: [  0.095355286499931,  0.009916213360731,  0.952085911365305 ]
    mass: 118.710000
  - symbol: Sn # 12
    coordinates: [  0.435615607450864,  0.349982705144704,  0.632213584231369 ]
    mass: 118.710000
  reciprocal_lattice: # without 2pi
  - [     0.000000000000000,     0.228277474803101,    -0.039615598736638 ] # a*
  - [     0.226587312512163,     0.000004523430847,    -0.039621038426434 ] # b*
  - [     0.000000000000000,     0.000000000000000,    -0.079298660484067 ] # c*

unit_cell:
  lattice:
  - [     4.413309769700013,     0.000000000000000,     0.000000000000000 ] # a
  - [    -0.000087451911621,     4.380633704059257,     0.000000000000000 ] # b
  - [    -2.208185682291443,    -2.192180255125258,    12.610553493534978 ] # c
  points:
  - symbol: Li # 1
    coordinates: [  0.474819622331945,  0.060598997237930,  0.882502600133277 ]
    mass: 6.940000
    reduced_to: 1
  - symbol: Li # 2
    coordinates: [  0.226098555421268,  0.311646376854853,  0.384366623545174 ]
    mass: 6.940000
    reduced_to: 2
  - symbol: Li # 3
    coordinates: [  0.137724020572392,  0.723110329899231,  0.207583397463424 ]
    mass: 6.940000
    reduced_to: 3
  - symbol: Li # 4
    coordinates: [  0.640014103593297,  0.225396040004284,  0.211880902003619 ]
    mass: 6.940000
    reduced_to: 4
  - symbol: Li # 5
    coordinates: [  0.972576881946110,  0.558086348953913,  0.878118424564840 ]
    mass: 6.940000
    reduced_to: 5
  - symbol: Li # 6
    coordinates: [  0.386774192902811,  0.472619592183957,  0.706715692308055 ]
    mass: 6.940000
    reduced_to: 6
  - symbol: Li # 7
    coordinates: [  0.806492911108662,  0.392277144151689,  0.545757786480248 ]
    mass: 6.940000
    reduced_to: 7
  - symbol: Sn # 8
    coordinates: [  0.894783718884698,  0.980445489252386,  0.722743853825089 ]
    mass: 118.710000
    reduced_to: 8
  - symbol: Sn # 9
    coordinates: [  0.306302069866455,  0.892159841542022,  0.545484469533597 ]
    mass: 118.710000
    reduced_to: 9
  - symbol: Sn # 10
    coordinates: [  0.554834310899488,  0.640423125014318,  0.041942033516149 ]
    mass: 118.710000
    reduced_to: 10
  - symbol: Sn # 11
    coordinates: [  0.057830301995426,  0.143269375134626,  0.047914088634695 ]
    mass: 118.710000
    reduced_to: 11
  - symbol: Sn # 12
    coordinates: [  0.717769120913335,  0.803402023219494,  0.367786415768631 ]
    mass: 118.710000
    reduced_to: 12

supercell:
  lattice:
  - [    13.239929309100038,     0.000000000000000,     0.000000000000000 ] # a
  - [    -0.000262355734863,    13.141901112177770,     0.000000000000000 ] # b
  - [    -2.208185682291443,    -2.192180255125258,    12.610553493534978 ] # c
  points:
  - symbol: Li # 1
    coordinates: [  0.158273207443982,  0.020199665745977,  0.882502600133277 ]
    mass: 6.940000
    reduced_to: 1
  - symbol: Li # 2
    coordinates: [  0.491606540777315,  0.020199665745977,  0.882502600133277 ]
    mass: 6.940000
    reduced_to: 1
  - symbol: Li # 3
    coordinates: [  0.824939874110648,  0.020199665745977,  0.882502600133277 ]
    mass: 6.940000
    reduced_to: 1
  - symbol: Li # 4
    coordinates: [  0.158273207443982,  0.353532999079310,  0.882502600133277 ]
    mass: 6.940000
    reduced_to: 1
  - symbol: Li # 5
    coordinates: [  0.491606540777315,  0.353532999079310,  0.882502600133277 ]
    mass: 6.940000
    reduced_to: 1
  - symbol: Li # 6
    coordinates: [  0.824939874110648,  0.353532999079310,  0.882502600133277 ]
    mass: 6.940000
    reduced_to: 1
  - symbol: Li # 7
    coordinates: [  0.158273207443982,  0.686866332412643,  0.882502600133277 ]
    mass: 6.940000
    reduced_to: 1
  - symbol: Li # 8
    coordinates: [  0.491606540777315,  0.686866332412643,  0.882502600133277 ]
    mass: 6.940000
    reduced_to: 1
  - symbol: Li # 9
    coordinates: [  0.824939874110648,  0.686866332412643,  0.882502600133277 ]
    mass: 6.940000
    reduced_to: 1
  - symbol: Li # 10
    coordinates: [  0.075366185140423,  0.103882125618284,  0.384366623545174 ]
    mass: 6.940000
    reduced_to: 10
  - symbol: Li # 11
    coordinates: [  0.408699518473756,  0.103882125618284,  0.384366623545174 ]
    mass: 6.940000
    reduced_to: 10
  - symbol: Li # 12
    coordinates: [  0.742032851807089,  0.103882125618284,  0.384366623545174 ]
    mass: 6.940000
    reduced_to: 10
  - symbol: Li # 13
    coordinates: [  0.075366185140423,  0.437215458951618,  0.384366623545174 ]
    mass: 6.940000
    reduced_to: 10
  - symbol: Li # 14
    coordinates: [  0.408699518473756,  0.437215458951618,  0.384366623545174 ]
    mass: 6.940000
    reduced_to: 10
  - symbol: Li # 15
    coordinates: [  0.742032851807089,  0.437215458951618,  0.384366623545174 ]
    mass: 6.940000
    reduced_to: 10
  - symbol: Li # 16
    coordinates: [  0.075366185140423,  0.770548792284951,  0.384366623545174 ]
    mass: 6.940000
    reduced_to: 10
  - symbol: Li # 17
    coordinates: [  0.408699518473756,  0.770548792284951,  0.384366623545174 ]
    mass: 6.940000
    reduced_to: 10
  - symbol: Li # 18
    coordinates: [  0.742032851807089,  0.770548792284951,  0.384366623545174 ]
    mass: 6.940000
    reduced_to: 10
  - symbol: Li # 19
    coordinates: [  0.045908006857464,  0.241036776633077,  0.207583397463424 ]
    mass: 6.940000
    reduced_to: 19
  - symbol: Li # 20
    coordinates: [  0.379241340190797,  0.241036776633077,  0.207583397463424 ]
    mass: 6.940000
    reduced_to: 19
  - symbol: Li # 21
    coordinates: [  0.712574673524131,  0.241036776633077,  0.207583397463424 ]
    mass: 6.940000
    reduced_to: 19
  - symbol: Li # 22
    coordinates: [  0.045908006857464,  0.574370109966410,  0.207583397463424 ]
    mass: 6.940000
    reduced_to: 19
  - symbol: Li # 23
    coordinates: [  0.379241340190797,  0.574370109966410,  0.207583397463424 ]
    mass: 6.940000
    reduced_to: 19
  - symbol: Li # 24
    coordinates: [  0.712574673524131,  0.574370109966410,  0.207583397463424 ]
    mass: 6.940000
    reduced_to: 19
  - symbol: Li # 25
    coordinates: [  0.045908006857464,  0.907703443299744,  0.207583397463424 ]
    mass: 6.940000
    reduced_to: 19
  - symbol: Li # 26
    coordinates: [  0.379241340190797,  0.907703443299744,  0.207583397463424 ]
    mass: 6.940000
    reduced_to: 19
  - symbol: Li # 27
    coordinates: [  0.712574673524131,  0.907703443299744,  0.207583397463424 ]
    mass: 6.940000
    reduced_to: 19
  - symbol: Li # 28
    coordinates: [  0.213338034531099,  0.075132013334761,  0.211880902003619 ]
    mass: 6.940000
    reduced_to: 28
  - symbol: Li # 29
    coordinates: [  0.546671367864432,  0.075132013334761,  0.211880902003619 ]
    mass: 6.940000
    reduced_to: 28
  - symbol: Li # 30
    coordinates: [  0.880004701197765,  0.075132013334761,  0.211880902003619 ]
    mass: 6.940000
    reduced_to: 28
  - symbol: Li # 31
    coordinates: [  0.213338034531099,  0.408465346668095,  0.211880902003619 ]
    mass: 6.940000
    reduced_to: 28
  - symbol: Li # 32
    coordinates: [  0.546671367864432,  0.408465346668095,  0.211880902003619 ]
    mass: 6.940000
    reduced_to: 28
  - symbol: Li # 33
    coordinates: [  0.880004701197765,  0.408465346668095,  0.211880902003619 ]
    mass: 6.940000
    reduced_to: 28
  - symbol: Li # 34
    coordinates: [  0.213338034531099,  0.741798680001428,  0.211880902003619 ]
    mass: 6.940000
    reduced_to: 28
  - symbol: Li # 35
    coordinates: [  0.546671367864432,  0.741798680001428,  0.211880902003619 ]
    mass: 6.940000
    reduced_to: 28
  - symbol: Li # 36
    coordinates: [  0.880004701197765,  0.741798680001428,  0.211880902003619 ]
    mass: 6.940000
    reduced_to: 28
  - symbol: Li # 37
    coordinates: [  0.324192293982037,  0.186028782984638,  0.878118424564840 ]
    mass: 6.940000
    reduced_to: 37
  - symbol: Li # 38
    coordinates: [  0.657525627315370,  0.186028782984638,  0.878118424564840 ]
    mass: 6.940000
    reduced_to: 37
  - symbol: Li # 39
    coordinates: [  0.990858960648703,  0.186028782984638,  0.878118424564840 ]
    mass: 6.940000
    reduced_to: 37
  - symbol: Li # 40
    coordinates: [  0.324192293982037,  0.519362116317971,  0.878118424564840 ]
    mass: 6.940000
    reduced_to: 37
  - symbol: Li # 41
    coordinates: [  0.657525627315370,  0.519362116317971,  0.878118424564840 ]
    mass: 6.940000
    reduced_to: 37
  - symbol: Li # 42
    coordinates: [  0.990858960648703,  0.519362116317971,  0.878118424564840 ]
    mass: 6.940000
    reduced_to: 37
  - symbol: Li # 43
    coordinates: [  0.324192293982037,  0.852695449651304,  0.878118424564840 ]
    mass: 6.940000
    reduced_to: 37
  - symbol: Li # 44
    coordinates: [  0.657525627315370,  0.852695449651304,  0.878118424564840 ]
    mass: 6.940000
    reduced_to: 37
  - symbol: Li # 45
    coordinates: [  0.990858960648703,  0.852695449651304,  0.878118424564840 ]
    mass: 6.940000
    reduced_to: 37
  - symbol: Li # 46
    coordinates: [  0.128924730967604,  0.157539864061319,  0.706715692308055 ]
    mass: 6.940000
    reduced_to: 46
  - symbol: Li # 47
    coordinates: [  0.462258064300937,  0.157539864061319,  0.706715692308055 ]
    mass: 6.940000
    reduced_to: 46
  - symbol: Li # 48
    coordinates: [  0.795591397634270,  0.157539864061319,  0.706715692308055 ]
    mass: 6.940000
    reduced_to: 46
  - symbol: Li # 49
    coordinates: [  0.128924730967604,  0.490873197394652,  0.706715692308055 ]
    mass: 6.940000
    reduced_to: 46
  - symbol: Li # 50
    coordinates: [  0.462258064300937,  0.490873197394652,  0.706715692308055 ]
    mass: 6.940000
    reduced_to: 46
  - symbol: Li # 51
    coordinates: [  0.795591397634270,  0.490873197394652,  0.706715692308055 ]
    mass: 6.940000
    reduced_to: 46
  - symbol: Li # 52
    coordinates: [  0.128924730967604,  0.824206530727986,  0.706715692308055 ]
    mass: 6.940000
    reduced_to: 46
  - symbol: Li # 53
    coordinates: [  0.462258064300937,  0.824206530727986,  0.706715692308055 ]
    mass: 6.940000
    reduced_to: 46
  - symbol: Li # 54
    coordinates: [  0.795591397634270,  0.824206530727986,  0.706715692308055 ]
    mass: 6.940000
    reduced_to: 46
  - symbol: Li # 55
    coordinates: [  0.268830970369554,  0.130759048050563,  0.545757786480248 ]
    mass: 6.940000
    reduced_to: 55
  - symbol: Li # 56
    coordinates: [  0.602164303702887,  0.130759048050563,  0.545757786480248 ]
    mass: 6.940000
    reduced_to: 55
  - symbol: Li # 57
    coordinates: [  0.935497637036221,  0.130759048050563,  0.545757786480248 ]
    mass: 6.940000
    reduced_to: 55
  - symbol: Li # 58
    coordinates: [  0.268830970369554,  0.464092381383896,  0.545757786480248 ]
    mass: 6.940000
    reduced_to: 55
  - symbol: Li # 59
    coordinates: [  0.602164303702887,  0.464092381383896,  0.545757786480248 ]
    mass: 6.940000
    reduced_to: 55
  - symbol: Li # 60
    coordinates: [  0.935497637036221,  0.464092381383896,  0.545757786480248 ]
    mass: 6.940000
    reduced_to: 55
  - symbol: Li # 61
    coordinates: [  0.268830970369554,  0.797425714717230,  0.545757786480248 ]
    mass: 6.940000
    reduced_to: 55
  - symbol: Li # 62
    coordinates: [  0.602164303702887,  0.797425714717230,  0.545757786480248 ]
    mass: 6.940000
    reduced_to: 55
  - symbol: Li # 63
    coordinates: [  0.935497637036221,  0.797425714717230,  0.545757786480248 ]
    mass: 6.940000
    reduced_to: 55
  - symbol: Sn # 64
    coordinates: [  0.298261239628233,  0.326815163084129,  0.722743853825089 ]
    mass: 118.710000
    reduced_to: 64
  - symbol: Sn # 65
    coordinates: [  0.631594572961566,  0.326815163084129,  0.722743853825089 ]
    mass: 118.710000
    reduced_to: 64
  - symbol: Sn # 66
    coordinates: [  0.964927906294899,  0.326815163084129,  0.722743853825089 ]
    mass: 118.710000
    reduced_to: 64
  - symbol: Sn # 67
    coordinates: [  0.298261239628233,  0.660148496417462,  0.722743853825089 ]
    mass: 118.710000
    reduced_to: 64
  - symbol: Sn # 68
    coordinates: [  0.631594572961566,  0.660148496417462,  0.722743853825089 ]
    mass: 118.710000
    reduced_to: 64
  - symbol: Sn # 69
    coordinates: [  0.964927906294899,  0.660148496417462,  0.722743853825089 ]
    mass: 118.710000
    reduced_to: 64
  - symbol: Sn # 70
    coordinates: [  0.298261239628233,  0.993481829750795,  0.722743853825089 ]
    mass: 118.710000
    reduced_to: 64
  - symbol: Sn # 71
    coordinates: [  0.631594572961566,  0.993481829750795,  0.722743853825089 ]
    mass: 118.710000
    reduced_to: 64
  - symbol: Sn # 72
    coordinates: [  0.964927906294899,  0.993481829750795,  0.722743853825089 ]
    mass: 118.710000
    reduced_to: 64
  - symbol: Sn # 73
    coordinates: [  0.102100689955485,  0.297386613847341,  0.545484469533597 ]
    mass: 118.710000
    reduced_to: 73
  - symbol: Sn # 74
    coordinates: [  0.435434023288818,  0.297386613847341,  0.545484469533597 ]
    mass: 118.710000
    reduced_to: 73
  - symbol: Sn # 75
    coordinates: [  0.768767356622152,  0.297386613847341,  0.545484469533597 ]
    mass: 118.710000
    reduced_to: 73
  - symbol: Sn # 76
    coordinates: [  0.102100689955485,  0.630719947180674,  0.545484469533597 ]
    mass: 118.710000
    reduced_to: 73
  - symbol: Sn # 77
    coordinates: [  0.435434023288818,  0.630719947180674,  0.545484469533597 ]
    mass: 118.710000
    reduced_to: 73
  - symbol: Sn # 78
    coordinates: [  0.768767356622152,  0.630719947180674,  0.545484469533597 ]
    mass: 118.710000
    reduced_to: 73
  - symbol: Sn # 79
    coordinates: [  0.102100689955485,  0.964053280514007,  0.545484469533597 ]
    mass: 118.710000
    reduced_to: 73
  - symbol: Sn # 80
    coordinates: [  0.435434023288818,  0.964053280514007,  0.545484469533597 ]
    mass: 118.710000
    reduced_to: 73
  - symbol: Sn # 81
    coordinates: [  0.768767356622152,  0.964053280514007,  0.545484469533597 ]
    mass: 118.710000
    reduced_to: 73
  - symbol: Sn # 82
    coordinates: [  0.184944770299829,  0.213474375004773,  0.041942033516149 ]
    mass: 118.710000
    reduced_to: 82
  - symbol: Sn # 83
    coordinates: [  0.518278103633163,  0.213474375004773,  0.041942033516149 ]
    mass: 118.710000
    reduced_to: 82
  - symbol: Sn # 84
    coordinates: [  0.851611436966496,  0.213474375004773,  0.041942033516149 ]
    mass: 118.710000
    reduced_to: 82
  - symbol: Sn # 85
    coordinates: [  0.184944770299829,  0.546807708338106,  0.041942033516149 ]
    mass: 118.710000
    reduced_to: 82
  - symbol: Sn # 86
    coordinates: [  0.518278103633163,  0.546807708338106,  0.041942033516149 ]
    mass: 118.710000
    reduced_to: 82
  - symbol: Sn # 87
    coordinates: [  0.851611436966496,  0.546807708338106,  0.041942033516149 ]
    mass: 118.710000
    reduced_to: 82
  - symbol: Sn # 88
    coordinates: [  0.184944770299829,  0.880141041671439,  0.041942033516149 ]
    mass: 118.710000
    reduced_to: 82
  - symbol: Sn # 89
    coordinates: [  0.518278103633163,  0.880141041671439,  0.041942033516149 ]
    mass: 118.710000
    reduced_to: 82
  - symbol: Sn # 90
    coordinates: [  0.851611436966496,  0.880141041671439,  0.041942033516149 ]
    mass: 118.710000
    reduced_to: 82
  - symbol: Sn # 91
    coordinates: [  0.019276767331809,  0.047756458378209,  0.047914088634695 ]
    mass: 118.710000
    reduced_to: 91
  - symbol: Sn # 92
    coordinates: [  0.352610100665142,  0.047756458378209,  0.047914088634695 ]
    mass: 118.710000
    reduced_to: 91
  - symbol: Sn # 93
    coordinates: [  0.685943433998475,  0.047756458378209,  0.047914088634695 ]
    mass: 118.710000
    reduced_to: 91
  - symbol: Sn # 94
    coordinates: [  0.019276767331809,  0.381089791711542,  0.047914088634695 ]
    mass: 118.710000
    reduced_to: 91
  - symbol: Sn # 95
    coordinates: [  0.352610100665142,  0.381089791711542,  0.047914088634695 ]
    mass: 118.710000
    reduced_to: 91
  - symbol: Sn # 96
    coordinates: [  0.685943433998475,  0.381089791711542,  0.047914088634695 ]
    mass: 118.710000
    reduced_to: 91
  - symbol: Sn # 97
    coordinates: [  0.019276767331809,  0.714423125044875,  0.047914088634695 ]
    mass: 118.710000
    reduced_to: 91
  - symbol: Sn # 98
    coordinates: [  0.352610100665142,  0.714423125044875,  0.047914088634695 ]
    mass: 118.710000
    reduced_to: 91
  - symbol: Sn # 99
    coordinates: [  0.685943433998475,  0.714423125044875,  0.047914088634695 ]
    mass: 118.710000
    reduced_to: 91
  - symbol: Sn # 100
    coordinates: [  0.239256373637778,  0.267800674406498,  0.367786415768631 ]
    mass: 118.710000
    reduced_to: 100
  - symbol: Sn # 101
    coordinates: [  0.572589706971111,  0.267800674406498,  0.367786415768631 ]
    mass: 118.710000
    reduced_to: 100
  - symbol: Sn # 102
    coordinates: [  0.905923040304445,  0.267800674406498,  0.367786415768631 ]
    mass: 118.710000
    reduced_to: 100
  - symbol: Sn # 103
    coordinates: [  0.239256373637778,  0.601134007739831,  0.367786415768631 ]
    mass: 118.710000
    reduced_to: 100
  - symbol: Sn # 104
    coordinates: [  0.572589706971111,  0.601134007739831,  0.367786415768631 ]
    mass: 118.710000
    reduced_to: 100
  - symbol: Sn # 105
    coordinates: [  0.905923040304445,  0.601134007739831,  0.367786415768631 ]
    mass: 118.710000
    reduced_to: 100
  - symbol: Sn # 106
    coordinates: [  0.239256373637778,  0.934467341073165,  0.367786415768631 ]
    mass: 118.710000
    reduced_to: 100
  - symbol: Sn # 107
    coordinates: [  0.572589706971111,  0.934467341073165,  0.367786415768631 ]
    mass: 118.710000
    reduced_to: 100
  - symbol: Sn # 108
    coordinates: [  0.905923040304445,  0.934467341073165,  0.367786415768631 ]
    mass: 118.710000
    reduced_to: 100

displacements:
- atom:    1
  displacement:
    [   0.0100000000000000,  0.0000000000000000,  0.0000000000000000 ]
  forces:
  - [  -0.0166407302021980, -0.0007595107890666, -0.0076928474009037 ]
  - [   0.0003845728933811, -0.0007592269685119, -0.0077798161655664 ]
  - [   0.0003920118324459, -0.0007585132261738, -0.0077441055327654 ]
  - [   0.0001809642417356, -0.0007587738800794, -0.0077629834413528 ]
  - [  -0.0002396632917225, -0.0009518748265691, -0.0077635738998652 ]
  - [  -0.0002375883050263, -0.0005656884750351, -0.0077636037021875 ]
  - [   0.0001810309477150, -0.0007585956482217, -0.0077633336186409 ]
  - [  -0.0002394318580627, -0.0005659043090418, -0.0077630542218685 ]
  - [  -0.0002388684079051, -0.0009509467636235, -0.0077632330358028 ]
  - [  -0.0004345542110968, -0.0001285756006837, -0.0184197071939707 ]
  - [  -0.0005101766437292, -0.0000935395364650, -0.0184140056371689 ]
  - [  -0.0005269087851048, -0.0001634732616367, -0.0183963179588318 ]
  - [  -0.0004919514758512, -0.0001261346042156, -0.0184080116450787 ]
  - [  -0.0004888623952866, -0.0001313702377956, -0.0184067524969578 ]
  - [  -0.0004905015230179, -0.0001288508065045, -0.0184138119220734 ]
  - [  -0.0004378713783808, -0.0001330934464931, -0.0184053443372250 ]
  - [  -0.0005130395293236, -0.0001629670005059, -0.0184228681027889 ]
  - [  -0.0005151052027941, -0.0000958997698035, -0.0183931384235620 ]
  - [   0.0005422530230135,  0.0010303854942322,  0.0098672583699226 ]
  - [   0.0005460224347189,  0.0006344745634124,  0.0098301805555820 ]
  - [   0.0003191342111677,  0.0008356212638319,  0.0098480526357889 ]
  - [   0.0003547757223714,  0.0008339626947418,  0.0098646357655525 ]
  - [   0.0003566679079086,  0.0008356360485777,  0.0098342634737492 ]
  - [   0.0003650359576568,  0.0008324858499691,  0.0098482053726912 ]
  - [   0.0005735027370974,  0.0006369022303261,  0.0098684057593346 ]
  - [   0.0005306596867740,  0.0010327135678381,  0.0098127387464046 ]
  - [   0.0003031011437997,  0.0008337778272107,  0.0098653882741928 ]
  - [  -0.0010794842382893, -0.0001871157437563, -0.0165988281369209 ]
  - [  -0.0018715024925768, -0.0001753633841872, -0.0172370374202728 ]
  - [  -0.0018670117715374, -0.0001635523512959, -0.0159947350621223 ]
  - [  -0.0009974370477721, -0.0001743938773870, -0.0166099667549133 ]
  - [  -0.0011092076310888, -0.0002008676528931, -0.0166327580809593 ]
  - [  -0.0011096431408077, -0.0001495657488704, -0.0165864601731300 ]
  - [  -0.0009965978097171, -0.0001637237146497, -0.0165981948375702 ]
  - [  -0.0011112466454506, -0.0001492323353887, -0.0166326910257339 ]
  - [  -0.0011081737466156, -0.0002112127840519, -0.0165981426835060 ]
  - [   0.0019290960626677,  0.0029102880507708,  0.0197123363614082 ]
  - [   0.0007449228432961,  0.0013765627518296,  0.0195890292525291 ]
  - [   0.0019003120251000, -0.0001219473779202,  0.0194628909230232 ]
  - [   0.0007418530294672,  0.0013766936026514,  0.0195856988430023 ]
  - [   0.0007332491222769,  0.0013776966370642,  0.0195887163281441 ]
  - [   0.0007413047133014,  0.0013766339980066,  0.0195916593074799 ]
  - [   0.0019198155496269, -0.0001451447606087,  0.0197099000215530 ]
  - [   0.0007452268037014,  0.0013777734711766,  0.0195889025926590 ]
  - [   0.0018915610853583,  0.0028667394071817,  0.0194644629955292 ]
  - [   0.0004915009485558,  0.0000191138024093,  0.0117301736027002 ]
  - [   0.0006463142344728,  0.0001358391309623,  0.0116192214190960 ]
  - [   0.0006409423658624, -0.0000816775573185,  0.0118325892835855 ]
  - [   0.0005018484080210,  0.0000266295828624,  0.0117245018482208 ]
  - [   0.0004839626490138,  0.0000263613401330,  0.0117284590378404 ]
  - [   0.0004849798278883,  0.0000264394329861,  0.0117216724902391 ]
  - [   0.0004919683560729,  0.0000314431963488,  0.0117291193455458 ]
  - [   0.0006419059354812, -0.0000832101504784,  0.0116171445697546 ]
  - [   0.0006363699212670,  0.0001310063817073,  0.0118303745985031 ]
  - [  -0.0000207382527151, -0.0002545500174165, -0.0046090353280306 ]
  - [  -0.0000219169669435, -0.0002051442861557, -0.0046028327196836 ]
  - [  -0.0000167106445588, -0.0001570731401443, -0.0045872423797846 ]
  - [  -0.0000362901118933, -0.0002048201858997, -0.0045970296487212 ]
  - [  -0.0000409651293012, -0.0002057300880551, -0.0046009439975023 ]
  - [  -0.0000350301088474, -0.0002046721056104, -0.0046030450612307 ]
  - [  -0.0000191663930309, -0.0001548165455461, -0.0046074362471700 ]
  - [  -0.0000217804572458, -0.0002053882926702, -0.0046011060476303 ]
  - [  -0.0000170637122210, -0.0002568084746599, -0.0045921122655272 ]
  - [   0.0009833676740527,  0.0012953311670572,  0.0055336728692055 ]
  - [   0.0009384859586135,  0.0010770029621199,  0.0055955648422241 ]
  - [   0.0009819375118241,  0.0008604720933363,  0.0056535974144936 ]
  - [   0.0009833142394200,  0.0008610477671027,  0.0055337548255920 ]
  - [   0.0009382841526531,  0.0010778155410662,  0.0055947825312614 ]
  - [   0.0009832214564085,  0.0012951327953488,  0.0056533217430115 ]
  - [   0.0042949710041285,  0.0010708753252402,  0.0024727284908295 ]
  - [   0.0013457767199725,  0.0010784525657073,  0.0055952668190002 ]
  - [   0.0041777603328228,  0.0010854409774765,  0.0085633695125580 ]
  - [   0.0007779283332638, -0.0005421154201031, -0.0042526354081929 ]
  - [   0.0006674258038402, -0.0005645670462400, -0.0042164991609752 ]
  - [   0.0006591957062483, -0.0005242750048637, -0.0042878463864326 ]
  - [   0.0007742266170681, -0.0005457590450533, -0.0042520896531641 ]
  - [   0.0006646839901805, -0.0005265154759400, -0.0042158411815763 ]
  - [   0.0006660409271717, -0.0005630710511468, -0.0042871898040175 ]
  - [   0.0000135190784931, -0.0005423080874607, -0.0042518936097622 ]
  - [   0.0001631546765566, -0.0005400918889791, -0.0037751756608486 ]
  - [   0.0001735705882311, -0.0005421207752079, -0.0047188200987875 ]
  - [  -0.0003695958293974, -0.0014981734566391,  0.0210329592227936 ]
  - [  -0.0006702996324748, -0.0013243627035990,  0.0209989342838526 ]
  - [  -0.0006707961438224, -0.0016392497345805,  0.0211019050329924 ]
  - [  -0.0005279942415655, -0.0014821677468717,  0.0210505425930023 ]
  - [  -0.0007427440723404, -0.0014810836873949,  0.0210548155009747 ]
  - [  -0.0007426516967826, -0.0014800293138251,  0.0210444498807192 ]
  - [  -0.0003702006360982, -0.0014644504990429,  0.0210366547107697 ]
  - [  -0.0006686102133244, -0.0016371624078602,  0.0209996383637190 ]
  - [  -0.0006670139264315, -0.0013243264984339,  0.0210974477231503 ]
  - [   0.0025912665296346,  0.0005030389875174, -0.0178702902048826 ]
  - [   0.0026541426777840,  0.0005015581846237, -0.0093390606343746 ]
  - [  -0.0000712823821232,  0.0005031749606133, -0.0136487968266010 ]
  - [  -0.0003831923240796,  0.0005557471886277, -0.0136959664523602 ]
  - [  -0.0003835880197585,  0.0004479632771108, -0.0136025212705135 ]
  - [  -0.0001090249352274,  0.0005014037014917, -0.0136476587504148 ]
  - [  -0.0003856258990709,  0.0004492858424783, -0.0136947054415941 ]
  - [  -0.0003825295716524,  0.0005565531319007, -0.0136028360575438 ]
  - [  -0.0001067426055670,  0.0005012707551941, -0.0136470384895802 ]
  - [  -0.0006962119950913, -0.0005233511328697, -0.0025204047560692 ]
  - [  -0.0006706685526296, -0.0004950910806656, -0.0024774372577667 ]
  - [  -0.0006639510393143, -0.0005541592836380, -0.0025725066661835 ]
  - [  -0.0006771372281946, -0.0005242191255093, -0.0025207027792931 ]
  - [  -0.0006805402226746, -0.0005233865231276, -0.0025204196572304 ]
  - [  -0.0006727796280757, -0.0005235392600298, -0.0025293231010437 ]
  - [  -0.0008933134377003, -0.0005241595208645, -0.0025665462017059 ]
  - [  -0.0002767276018858, -0.0005537346005440, -0.0024760290980339 ]
  - [  -0.0008608344942331, -0.0004942957311869, -0.0025230422616005 ]
- atom:    1
  displacement:
    [  -0.0100000000000000,  0.0000000000000000,  0.0000000000000000 ]
  forces:
  - [   0.0166284218430519, -0.0007588340085931, -0.0077696237713099 ]
  - [  -0.0004048477858305, -0.0007584303966723, -0.0077444426715374 ]
  - [  -0.0003976416774094, -0.0007591423345730, -0.0077794883400202 ]
  - [  -0.0001928379060701, -0.0007607855368406, -0.0077621228992939 ]
  - [   0.0002266252413392, -0.0005660182796419, -0.0077638123184443 ]
  - [   0.0002283547073603, -0.0009516914724372, -0.0077637191861868 ]
  - [  -0.0001928452402353, -0.0007564798579551, -0.0077623873949051 ]
  - [   0.0002264450304210, -0.0009508831426501, -0.0077633019536734 ]
  - [   0.0002274001017213, -0.0005660615861416, -0.0077635720372200 ]
  - [  -0.0005466969450936, -0.0001283735036850, -0.0183994863182306 ]
  - [  -0.0004715193063021, -0.0001637002715142, -0.0184050090610981 ]
  - [  -0.0004534479230642, -0.0000938202720135, -0.0184248499572277 ]
  - [  -0.0004889114061370, -0.0001315744593740, -0.0184111539274454 ]
  - [  -0.0004918128252029, -0.0001260822755285, -0.0184120945632458 ]
  - [  -0.0004904717206955, -0.0001287660270464, -0.0184054709970951 ]
  - [  -0.0005393536412157, -0.0001280391588807, -0.0184085275977850 ]
  - [  -0.0004640370607376, -0.0000983836071100, -0.0183908045291901 ]
  - [  -0.0004627555608749, -0.0001653411309235, -0.0184213779866695 ]
  - [   0.0001725366018945,  0.0006353020435199,  0.0098289083689451 ]
  - [   0.0001734432298690,  0.0010318565182388,  0.0098660551011562 ]
  - [   0.0003999612526968,  0.0008322879439220,  0.0098493490368128 ]
  - [   0.0003619696362875,  0.0008338053012267,  0.0098339486867189 ]
  - [   0.0003606153186411,  0.0008325116941705,  0.0098639540374279 ]
  - [   0.0003537688171491,  0.0008356339531019,  0.0098494682461023 ]
  - [   0.0001427098759450,  0.0010332542005926,  0.0098284296691418 ]
  - [   0.0001874595182016,  0.0006373658543453,  0.0098834130913019 ]
  - [   0.0004140576347709,  0.0008338462794200,  0.0098334960639477 ]
  - [  -0.0011111770290881, -0.0001641837880015, -0.0166214779019356 ]
  - [  -0.0003189868875779, -0.0001746546477079, -0.0159841552376747 ]
  - [  -0.0003227072593290, -0.0001870337873697, -0.0172258466482162 ]
  - [  -0.0011924478458241, -0.0001732027158141, -0.0166076868772507 ]
  - [  -0.0010816270951182, -0.0001499000936747, -0.0165875554084778 ]
  - [  -0.0010819754097611, -0.0002007121220231, -0.0166329592466354 ]
  - [  -0.0011941095581278, -0.0001878999173641, -0.0166192129254341 ]