# Thermal properties / unit cell (natom)

unit:
  temperature:   K
  free_energy:   kJ/mol
  entropy:       J/K/mol
  heat_capacity: J/K/mol

natom: 8    
cutoff_frequency: 0.00000
num_modes: 116280
num_integrated_modes: 116279

zero_point_energy:      14.1774326

thermal_properties:
- temperature:         0.0000000
  free_energy:        14.1774326
  entropy:             0.0000000
  heat_capacity:       0.0000000
  energy:             14.1774326

- temperature:        10.0000000
  free_energy:        14.1700982
  entropy:             3.0345461
  heat_capacity:       9.7695069
  energy:             14.2004437

- temperature:        20.0000000
  free_energy:        14.0613022
  entropy:            21.2123721
  heat_capacity:      49.0427669
  energy:             14.4855496

- temperature:        30.0000000
  free_energy:        13.7174614
  entropy:            48.0954706
  heat_capacity:      83.7149055
  energy:             15.1603255

- temperature:        40.0000000
  free_energy:        13.0982305
  entropy:            75.5271303
  heat_capacity:     106.4804212
  energy:             16.1193157

- temperature:        50.0000000
  free_energy:        12.2134546
  entropy:           101.0592340
  heat_capacity:     122.1045464
  energy:             17.2664163

- temperature:        60.0000000
  free_energy:        11.0843553
  entropy:           124.4108732
  heat_capacity:     133.9456228
  energy:             18.5490077

- temperature:        70.0000000
  free_energy:         9.7317823
  entropy:           145.7994240
  heat_capacity:     143.4852032
  energy:             19.9377420

- temperature:        80.0000000
  free_energy:         8.1740226
  entropy:           165.4897135
  heat_capacity:     151.3625634
  energy:             21.4131997

- temperature:        90.0000000
  free_energy:         6.4268903
  entropy:           183.7078959
  heat_capacity:     157.9192199
  energy:             22.9606009

- temperature:       100.0000000
  free_energy:         4.5041539
  entropy:           200.6382356
  heat_capacity:     163.3924463
  energy:             24.5679775

- temperature:       110.0000000
  free_energy:         2.4179101
  entropy:           216.4324103
  heat_capacity:     167.9722544
  energy:             26.2254753

- temperature:       120.0000000
  free_energy:         0.1788670
  entropy:           231.2175614
  heat_capacity:     171.8167255
  energy:             27.9249744

- temperature:       130.0000000
  free_energy:        -2.2034399
  entropy:           245.1018366
  heat_capacity:     175.0571564
  energy:             29.6597989

- temperature:       140.0000000
  free_energy:        -4.7204779
  entropy:           258.1781722
  heat_capacity:     177.8015126
  energy:             31.4244662

- temperature:       150.0000000
  free_energy:        -7.3645794
  entropy:           270.5270018
  heat_capacity:     180.1378184
  energy:             33.2144708

- temperature:       160.0000000
  free_energy:       -10.1288272
  entropy:           282.2183067
  heat_capacity:     182.1374724
  energy:             35.0261019

- temperature:       170.0000000
  free_energy:       -13.0069585
  entropy:           293.3132381
  heat_capacity:     183.8582725
  energy:             36.8562920

- temperature:       180.0000000
  free_energy:       -15.9932836
  entropy:           303.8654354
  heat_capacity:     185.3470264
  energy:             38.7024948

- temperature:       190.0000000
  free_energy:       -19.0826161
  entropy:           313.9221185
  heat_capacity:     186.6417222
  energy:             40.5625864

- temperature:       200.0000000
  free_energy:       -22.2702138
  entropy:           323.5249996
  heat_capacity:     187.7732928
  energy:             42.4347861

- temperature:       210.0000000
  free_energy:       -25.5517271
  entropy:           332.7110497
  heat_capacity:     188.7670282
  energy:             44.3175933

- temperature:       220.0000000
  free_energy:       -28.9231553
  entropy:           341.5131464
  heat_capacity:     189.6436994
  energy:             46.2097369

- temperature:       230.0000000
  free_energy:       -32.3808083
  entropy:           349.9606212
  heat_capacity:     190.4204475
  energy:             48.1101346

- temperature:       240.0000000
  free_energy:       -35.9212735
  entropy:           358.0797245
  heat_capacity:     191.1114882
  energy:             50.0178604

- temperature:       250.0000000
  free_energy:       -39.5413870
  entropy:           365.8940215
  heat_capacity:     191.7286692
  energy:             51.9321183

- temperature:       260.0000000
  free_energy:       -43.2382088
  entropy:           373.4247295
  heat_capacity:     192.2819133
  energy:             53.8522208

- temperature:       270.0000000
  free_energy:       -47.0090004
  entropy:           380.6910068
  heat_capacity:     192.7795709
  energy:             55.7775715

- temperature:       280.0000000
  free_energy:       -50.8512055
  entropy:           387.7102005
  heat_capacity:     193.2287020
  energy:             57.7076506

- temperature:       290.0000000
  free_energy:       -54.7624334
  entropy:           394.4980596
  heat_capacity:     193.6353031
  energy:             59.6420038

- temperature:       300.0000000
  free_energy:       -58.7404435
  entropy:           401.0689186
  heat_capacity:     194.0044891
  energy:             61.5802320

- temperature:       310.0000000
  free_energy:       -62.7831322
  entropy:           407.4358573
  heat_capacity:     194.3406419
  energy:             63.5219836

- temperature:       320.0000000
  free_energy:       -66.8885209
  entropy:           413.6108385
  heat_capacity:     194.6475304
  energy:             65.4669474

- temperature:       330.0000000
  free_energy:       -71.0547458
  entropy:           419.6048282
  heat_capacity:     194.9284089
  energy:             67.4148475

- temperature:       340.0000000
  free_energy:       -75.2800479
  entropy:           425.4279005
  heat_capacity:     195.1860977
  energy:             69.3654383

- temperature:       350.0000000
  free_energy:       -79.5627650
  entropy:           431.0893298
  heat_capacity:     195.4230503
  energy:             71.3185004

- temperature:       360.0000000
  free_energy:       -83.9013242
  entropy:           436.5976711
  heat_capacity:     195.6414077
  energy:             73.2738374

- temperature:       370.0000000
  free_energy:       -88.2942346
  entropy:           441.9608309
  heat_capacity:     195.8430449
  energy:             75.2312728

- temperature:       380.0000000
  free_energy:       -92.7400814
  entropy:           447.1861300
  heat_capacity:     196.0296090
  energy:             77.1906480

- temperature:       390.0000000
  free_energy:       -97.2375203
  entropy:           452.2803589
  heat_capacity:     196.2025512
  energy:             79.1518196

- temperature:       400.0000000
  free_energy:      -101.7852727
  entropy:           457.2498267
  heat_capacity:     196.3631538
  energy:             81.1146579

- temperature:       410.0000000
  free_energy:      -106.3821206
  entropy:           462.1004049
  heat_capacity:     196.5125531
  energy:             83.0790454

- temperature:       420.0000000
  free_energy:      -111.0269028
  entropy:           466.8375663
  heat_capacity:     196.6517588
  energy:             85.0448750

- temperature:       430.0000000
  free_energy:      -115.7185110
  entropy:           471.4664199
  heat_capacity:     196.7816702
  energy:             87.0120496

- temperature:       440.0000000
  free_energy:      -120.4558861
  entropy:           475.9917416
  heat_capacity:     196.9030903
  energy:             88.9804801

- temperature:       450.0000000
  free_energy:      -125.2380156
  entropy:           480.4180025
  heat_capacity:     197.0167381
  energy:             90.9500855

- temperature:       460.0000000
  free_energy:      -130.0639300
  entropy:           484.7493938
  heat_capacity:     197.1232583
  energy:             92.9207912

- temperature:       470.0000000
  free_energy:      -134.9327004
  entropy:           488.9898495
  heat_capacity:     197.2232309
  energy:             94.8925288

- temperature:       480.0000000
  free_energy:      -139.8434362
  entropy:           493.1430665
  heat_capacity:     197.3171783
  energy:             96.8652357

- temperature:       490.0000000
  free_energy:      -144.7952826
  entropy:           497.2125234
  heat_capacity:     197.4055722
  energy:             98.8388539

- temperature:       500.0000000
  free_energy:      -149.7874184
  entropy:           501.2014969
  heat_capacity:     197.4888391
  energy:            100.8133301

- temperature:       510.0000000
  free_energy:      -154.8190545
  entropy:           505.1130773
  heat_capacity:     197.5673660
  energy:            102.7886149

- temperature:       520.0000000
  free_energy:      -159.8894317
  entropy:           508.9501817
  heat_capacity:     197.6415038
  energy:            104.7646627

- temperature:       530.0000000
  free_energy:      -164.9978191
  entropy:           512.7155670
  heat_capacity:     197.7115720
  energy:            106.7414314

- temperature:       540.0000000
  free_energy:      -170.1435127
  entropy:           516.4118413
  heat_capacity:     197.7778616
  energy:            108.7188816

- temperature:       550.0000000
  free_energy:      -175.3258338
  entropy:           520.0414741
  heat_capacity:     197.8406382
  energy:            110.6969769

- temperature:       560.0000000
  free_energy:      -180.5441279
  entropy:           523.6068060
  heat_capacity:     197.9001445
  energy:            112.6756835

- temperature:       570.0000000
  free_energy:      -185.7977630
  entropy:           527.1100573
  heat_capacity:     197.9566028
  energy:            114.6549697

- temperature:       580.0000000
  free_energy:      -191.0861291
  entropy:           530.5533365
  heat_capacity:     198.0102168
  energy:            116.6348060

- temperature:       590.0000000
  free_energy:      -196.4086365
  entropy:           533.9386469
  heat_capacity:     198.0611737
  energy:            118.6151651

- temperature:       600.0000000
  free_energy:      -201.7647152
  entropy:           537.2678940
  heat_capacity:     198.1096454
  energy:            120.5960212

- temperature:       610.0000000
  free_energy:      -207.1538136
  entropy:           540.5428916
  heat_capacity:     198.1557903
  energy:            122.5773503

- temperature:       620.0000000
  free_energy:      -212.5753980
  entropy:           543.7653673
  heat_capacity:     198.1997545
  energy:            124.5591298

- temperature:       630.0000000
  free_energy:      -218.0289514
  entropy:           546.9369681
  heat_capacity:     198.2416727
  energy:            126.5413386

- temperature:       640.0000000
  free_energy:      -223.5139730
  entropy:           550.0592653
  heat_capacity:     198.2816695
  energy:            128.5239568

- temperature:       650.0000000
  free_energy:      -229.0299773
  entropy:           553.1337589
  heat_capacity:     198.3198601
  energy:            130.5069659

- temperature:       660.0000000
  free_energy:      -234.5764936
  entropy:           556.1618818
  heat_capacity:     198.3563513
  energy:            132.4903484

- temperature:       670.0000000
  free_energy:      -240.1530650
  entropy:           559.1450039
  heat_capacity:     198.3912421
  energy:            134.4740876

- temperature:       680.0000000
  free_energy:      -245.7592480
  entropy:           562.0844356
  heat_capacity:     198.4246245
  energy:            136.4581682

- temperature:       690.0000000
  free_energy:      -251.3946122
  entropy:           564.9814313
  heat_capacity:     198.4565840
  energy:            138.4425754

- temperature:       700.0000000
  free_energy:      -257.0587392
  entropy:           567.8371923
  heat_capacity:     198.4871999
  energy:            140.4272954

- temperature:       710.0000000
  free_energy:      -262.7512225
  entropy:           570.6528699
  heat_capacity:     198.5165464
  energy:            142.4123151

- temperature:       720.0000000
  free_energy:      -268.4716667
  entropy:           573.4295681
  heat_capacity:     198.5446925
  energy:            144.3976223

- temperature:       730.0000000
  free_energy:      -274.2196874
  entropy:           576.1683461
  heat_capacity:     198.5717025
  energy:            146.3832052

- temperature:       740.0000000
  free_energy:      -279.9949106
  entropy:           578.8702208
  heat_capacity:     198.5976367
  energy:            148.3690528

- temperature:       750.0000000
  free_energy:      -285.7969721
  entropy:           581.5361689
  heat_capacity:     198.6225513
  energy:            150.3551545

- temperature:       760.0000000
  free_energy:      -291.6255174
  entropy:           584.1671289
  heat_capacity:     198.6464990
  energy:            152.3415006

- temperature:       770.0000000
  free_energy:      -297.4802011
  entropy:           586.7640033
  heat_capacity:     198.6695289
  energy:            154.3280815

- temperature:       780.0000000
  free_energy:      -303.3606867
  entropy:           589.3276602
  heat_capacity:     198.6916873
  energy:            156.3148882

- temperature:       790.0000000
  free_energy:      -309.2666463
  entropy:           591.8589352
  heat_capacity:     198.7130175
  energy:            158.3019124

- temperature:       800.0000000
  free_energy:      -315.1977602
  entropy:           594.3586327
  heat_capacity:     198.7335601
  energy:            160.2891460

- temperature:       810.0000000
  free_energy:      -321.1537163
  entropy:           596.8275277
  heat_capacity:     198.7533535
  energy:            162.2765811

- temperature:       820.0000000
  free_energy:      -327.1342105
  entropy:           599.2663673
  heat_capacity:     198.7724334
  energy:            164.2642107

- temperature:       830.0000000
  free_energy:      -333.1389459
  entropy:           601.6758716
  heat_capacity:     198.7908338
  energy:            166.2520276

- temperature:       840.0000000
  free_energy:      -339.1676325
  entropy:           604.0567353
  heat_capacity:     198.8085864
  energy:            168.2400252

- temperature:       850.0000000
  free_energy:      -345.2199874
  entropy:           606.4096289
  heat_capacity:     198.8257212
  energy:            170.2281972

- temperature:       860.0000000
  free_energy:      -351.2957340
  entropy:           608.7351996
  heat_capacity:     198.8422666
  energy:            172.2165376

- temperature:       870.0000000
  free_energy:      -357.3946024
  entropy:           611.0340725
  heat_capacity:     198.8582491
  energy:            174.2050407

- temperature:       880.0000000
  free_energy:      -363.5163285
  entropy:           613.3068515
  heat_capacity:     198.8736940
  energy:            176.1937008

- temperature:       890.0000000
  free_energy:      -369.6606544
  entropy:           615.5541205
  heat_capacity:     198.8886251
  energy:            178.1825128

- temperature:       900.0000000
  free_energy:      -375.8273277
  entropy:           617.7764438
  heat_capacity:     198.9030649
  energy:            180.1714717

- temperature:       910.0000000
  free_energy:      -382.0161019
  entropy:           619.9743676
  heat_capacity:     198.9170346
  energy:            182.1605726

- temperature:       920.0000000
  free_energy:      -388.2267355
  entropy:           622.1484200
  heat_capacity:     198.9305545
  energy:            184.1498109

- temperature:       930.0000000
  free_energy:      -394.4589924
  entropy:           624.2991125
  heat_capacity:     198.9436435
  energy:            186.1391822

- temperature:       940.0000000
  free_energy:      -400.7126416
  entropy:           626.4269404
  heat_capacity:     198.9563199
  energy:            188.1286824

- temperature:       950.0000000
  free_energy:      -406.9874566
  entropy:           628.5323831
  heat_capacity:     198.9686006
  energy:            190.1183073

- temperature:       960.0000000
  free_energy:      -413.2832162
  entropy:           630.6159055
  heat_capacity:     198.9805020
  energy:            192.1080531

- temperature:       970.0000000
  free_energy:      -419.5997032
  entropy:           632.6779581
  heat_capacity:     198.9920396
  energy:            194.0979161

- temperature:       980.0000000
  free_energy:      -425.9367052
  entropy:           634.7189775
  heat_capacity:     199.0032279
  energy:            196.0878928

- temperature:       990.0000000
  free_energy:      -432.2940140
  entropy:           636.7393875
  heat_capacity:     199.0140809
  energy:            198.0779796

- temperature:      1000.0000000
  free_energy:      -438.6714256
  entropy:           638.7395989
  heat_capacity:     199.0246119
  energy:            200.0681733
