phonopy:
  version: "2.37.1"
  frequency_unit_conversion_factor: 15.633302
  symmetry_tolerance: 1.00000e-05

space_group:
  type: "Cmmm"
  number: 65
  Hall_symbol: "-C 2 2"

primitive_matrix:
- [  0.000000000000000,  1.000000000000000,  0.000000000000000 ]
- [ -1.000000000000000,  0.000000000000000, -0.000000000000000 ]
- [  0.000000000000000,  0.000000000000000,  1.000000000000000 ]

supercell_matrix:
- [   3,   0,   0 ]
- [   0,   3,   0 ]
- [   0,   0,   3 ]

primitive_cell:
  lattice:
  - [    -0.011871079288225,    -4.202515040952117,     0.000000000000000 ] # a
  - [     4.202531832873682,     0.000000000000000,     0.000000000000000 ] # b
  - [     0.000000061061917,    -0.000000373991339,     4.204564667154846 ] # c
  points:
  - symbol: Li # 1
    coordinates: [  0.500000005599121,  0.999999988206035,  0.499999998110216 ]
    mass: 6.940000
  - symbol: Li # 2
    coordinates: [  0.999999984872606,  0.499999986388616,  0.499999995310580 ]
    mass: 6.940000
  - symbol: Li # 3
    coordinates: [  0.499999987541016,  0.500000015387587,  0.000000005657830 ]
    mass: 6.940000
  - symbol: Sn # 4
    coordinates: [  0.000000023712929,  0.000000010340909,  0.000000001769775 ]
    mass: 118.710000
  reciprocal_lattice: # without 2pi
  - [     0.000000000000000,    -0.237952747403717,    -0.000000021165632 ] # a*
  - [     0.237951796623561,    -0.000672155748871,    -0.000000003515506 ] # b*
  - [     0.000000000000000,    -0.000000000000000,     0.237836751046258 ] # c*

unit_cell:
  lattice:
  - [     4.202531832873682,     0.000000000000000,     0.000000000000000 ] # a
  - [     0.011871079288225,     4.202515040952116,     0.000000000000000 ] # b
  - [     0.000000061061917,    -0.000000373991339,     4.204564667154847 ] # c
  points:
  - symbol: Li # 1
    coordinates: [  0.999999988206035,  0.499999994400879,  0.499999998110216 ]
    mass: 6.940000
    reduced_to: 1
  - symbol: Li # 2
    coordinates: [  0.499999986388616,  0.000000015127394,  0.499999995310580 ]
    mass: 6.940000
    reduced_to: 2
  - symbol: Li # 3
    coordinates: [  0.500000015387587,  0.500000012458985,  0.000000005657830 ]
    mass: 6.940000
    reduced_to: 3
  - symbol: Sn # 4
    coordinates: [  0.000000010340909,  0.999999976287071,  0.000000001769775 ]
    mass: 118.710000
    reduced_to: 4

supercell:
  lattice:
  - [    12.607595498621048,     0.000000000000000,     0.000000000000000 ] # a
  - [     0.035613237864676,    12.607545122856349,     0.000000000000000 ] # b
  - [     0.000000183185751,    -0.000001121974018,    12.613694001464541 ] # c
  points:
  - symbol: Li # 1
    coordinates: [  0.333333329402012,  0.166666664800293,  0.166666666036739 ]
    mass: 6.940000
    reduced_to: 1
  - symbol: Li # 2
    coordinates: [  0.666666662735345,  0.166666664800293,  0.166666666036739 ]
    mass: 6.940000
    reduced_to: 1
  - symbol: Li # 3
    coordinates: [  0.999999996068678,  0.166666664800293,  0.166666666036739 ]
    mass: 6.940000
    reduced_to: 1
  - symbol: Li # 4
    coordinates: [  0.333333329402012,  0.499999998133626,  0.166666666036739 ]
    mass: 6.940000
    reduced_to: 1
  - symbol: Li # 5
    coordinates: [  0.666666662735345,  0.499999998133626,  0.166666666036739 ]
    mass: 6.940000
    reduced_to: 1
  - symbol: Li # 6
    coordinates: [  0.999999996068678,  0.499999998133626,  0.166666666036739 ]
    mass: 6.940000
    reduced_to: 1
  - symbol: Li # 7
    coordinates: [  0.333333329402012,  0.833333331466960,  0.166666666036739 ]
    mass: 6.940000
    reduced_to: 1
  - symbol: Li # 8
    coordinates: [  0.666666662735345,  0.833333331466960,  0.166666666036739 ]
    mass: 6.940000
    reduced_to: 1
  - symbol: Li # 9
    coordinates: [  0.999999996068678,  0.833333331466960,  0.166666666036739 ]
    mass: 6.940000
    reduced_to: 1
  - symbol: Li # 10
    coordinates: [  0.333333329402012,  0.166666664800293,  0.499999999370072 ]
    mass: 6.940000
    reduced_to: 1
  - symbol: Li # 11
    coordinates: [  0.666666662735345,  0.166666664800293,  0.499999999370072 ]
    mass: 6.940000
    reduced_to: 1
  - symbol: Li # 12
    coordinates: [  0.999999996068678,  0.166666664800293,  0.499999999370072 ]
    mass: 6.940000
    reduced_to: 1
  - symbol: Li # 13
    coordinates: [  0.333333329402012,  0.499999998133626,  0.499999999370072 ]
    mass: 6.940000
    reduced_to: 1
  - symbol: Li # 14
    coordinates: [  0.666666662735345,  0.499999998133626,  0.499999999370072 ]
    mass: 6.940000
    reduced_to: 1
  - symbol: Li # 15
    coordinates: [  0.999999996068678,  0.499999998133626,  0.499999999370072 ]
    mass: 6.940000
    reduced_to: 1
  - symbol: Li # 16
    coordinates: [  0.333333329402012,  0.833333331466960,  0.499999999370072 ]
    mass: 6.940000
    reduced_to: 1
  - symbol: Li # 17
    coordinates: [  0.666666662735345,  0.833333331466960,  0.499999999370072 ]
    mass: 6.940000
    reduced_to: 1
  - symbol: Li # 18
    coordinates: [  0.999999996068678,  0.833333331466960,  0.499999999370072 ]
    mass: 6.940000
    reduced_to: 1
  - symbol: Li # 19
    coordinates: [  0.333333329402012,  0.166666664800293,  0.833333332703405 ]
    mass: 6.940000
    reduced_to: 1
  - symbol: Li # 20
    coordinates: [  0.666666662735345,  0.166666664800293,  0.833333332703405 ]
    mass: 6.940000
    reduced_to: 1
  - symbol: Li # 21
    coordinates: [  0.999999996068678,  0.166666664800293,  0.833333332703405 ]
    mass: 6.940000
    reduced_to: 1
  - symbol: Li # 22
    coordinates: [  0.333333329402012,  0.499999998133626,  0.833333332703405 ]
    mass: 6.940000
    reduced_to: 1
  - symbol: Li # 23
    coordinates: [  0.666666662735345,  0.499999998133626,  0.833333332703405 ]
    mass: 6.940000
    reduced_to: 1
  - symbol: Li # 24
    coordinates: [  0.999999996068678,  0.499999998133626,  0.833333332703405 ]
    mass: 6.940000
    reduced_to: 1
  - symbol: Li # 25
    coordinates: [  0.333333329402012,  0.833333331466960,  0.833333332703405 ]
    mass: 6.940000
    reduced_to: 1
  - symbol: Li # 26
    coordinates: [  0.666666662735345,  0.833333331466960,  0.833333332703405 ]
    mass: 6.940000
    reduced_to: 1
  - symbol: Li # 27
    coordinates: [  0.999999996068678,  0.833333331466960,  0.833333332703405 ]
    mass: 6.940000
    reduced_to: 1
  - symbol: Li # 28
    coordinates: [  0.166666662129539,  0.000000005042465,  0.166666665103527 ]
    mass: 6.940000
    reduced_to: 28
  - symbol: Li # 29
    coordinates: [  0.499999995462872,  0.000000005042465,  0.166666665103527 ]
    mass: 6.940000
    reduced_to: 28
  - symbol: Li # 30
    coordinates: [  0.833333328796205,  0.000000005042465,  0.166666665103527 ]
    mass: 6.940000
    reduced_to: 28
  - symbol: Li # 31
    coordinates: [  0.166666662129539,  0.333333338375798,  0.166666665103527 ]
    mass: 6.940000
    reduced_to: 28
  - symbol: Li # 32
    coordinates: [  0.499999995462872,  0.333333338375798,  0.166666665103527 ]
    mass: 6.940000
    reduced_to: 28
  - symbol: Li # 33
    coordinates: [  0.833333328796205,  0.333333338375798,  0.166666665103527 ]
    mass: 6.940000
    reduced_to: 28
  - symbol: Li # 34
    coordinates: [  0.166666662129539,  0.666666671709131,  0.166666665103527 ]
    mass: 6.940000
    reduced_to: 28
  - symbol: Li # 35
    coordinates: [  0.499999995462872,  0.666666671709131,  0.166666665103527 ]
    mass: 6.940000
    reduced_to: 28
  - symbol: Li # 36
    coordinates: [  0.833333328796205,  0.666666671709131,  0.166666665103527 ]
    mass: 6.940000
    reduced_to: 28
  - symbol: Li # 37
    coordinates: [  0.166666662129539,  0.000000005042465,  0.499999998436860 ]
    mass: 6.940000
    reduced_to: 28
  - symbol: Li # 38
    coordinates: [  0.499999995462872,  0.000000005042465,  0.499999998436860 ]
    mass: 6.940000
    reduced_to: 28
  - symbol: Li # 39
    coordinates: [  0.833333328796205,  0.000000005042465,  0.499999998436860 ]
    mass: 6.940000
    reduced_to: 28
  - symbol: Li # 40
    coordinates: [  0.166666662129539,  0.333333338375798,  0.499999998436860 ]
    mass: 6.940000
    reduced_to: 28
  - symbol: Li # 41
    coordinates: [  0.499999995462872,  0.333333338375798,  0.499999998436860 ]
    mass: 6.940000
    reduced_to: 28
  - symbol: Li # 42
    coordinates: [  0.833333328796205,  0.333333338375798,  0.499999998436860 ]
    mass: 6.940000
    reduced_to: 28
  - symbol: Li # 43
    coordinates: [  0.166666662129539,  0.666666671709131,  0.499999998436860 ]
    mass: 6.940000
    reduced_to: 28
  - symbol: Li # 44
    coordinates: [  0.499999995462872,  0.666666671709131,  0.499999998436860 ]
    mass: 6.940000
    reduced_to: 28
  - symbol: Li # 45
    coordinates: [  0.833333328796205,  0.666666671709131,  0.499999998436860 ]
    mass: 6.940000
    reduced_to: 28
  - symbol: Li # 46
    coordinates: [  0.166666662129539,  0.000000005042465,  0.833333331770193 ]
    mass: 6.940000
    reduced_to: 28
  - symbol: Li # 47
    coordinates: [  0.499999995462872,  0.000000005042465,  0.833333331770193 ]
    mass: 6.940000
    reduced_to: 28
  - symbol: Li # 48
    coordinates: [  0.833333328796205,  0.000000005042465,  0.833333331770193 ]
    mass: 6.940000
    reduced_to: 28
  - symbol: Li # 49
    coordinates: [  0.166666662129539,  0.333333338375798,  0.833333331770193 ]
    mass: 6.940000
    reduced_to: 28
  - symbol: Li # 50
    coordinates: [  0.499999995462872,  0.333333338375798,  0.833333331770193 ]
    mass: 6.940000
    reduced_to: 28
  - symbol: Li # 51
    coordinates: [  0.833333328796205,  0.333333338375798,  0.833333331770193 ]
    mass: 6.940000
    reduced_to: 28
  - symbol: Li # 52
    coordinates: [  0.166666662129539,  0.666666671709131,  0.833333331770193 ]
    mass: 6.940000
    reduced_to: 28
  - symbol: Li # 53
    coordinates: [  0.499999995462872,  0.666666671709131,  0.833333331770193 ]
    mass: 6.940000
    reduced_to: 28
  - symbol: Li # 54
    coordinates: [  0.833333328796205,  0.666666671709131,  0.833333331770193 ]
    mass: 6.940000
    reduced_to: 28
  - symbol: Li # 55
    coordinates: [  0.166666671795862,  0.166666670819661,  0.000000001885943 ]
    mass: 6.940000
    reduced_to: 55
  - symbol: Li # 56
    coordinates: [  0.500000005129196,  0.166666670819661,  0.000000001885943 ]
    mass: 6.940000
    reduced_to: 55
  - symbol: Li # 57
    coordinates: [  0.833333338462529,  0.166666670819661,  0.000000001885943 ]
    mass: 6.940000
    reduced_to: 55
  - symbol: Li # 58
    coordinates: [  0.166666671795862,  0.500000004152995,  0.000000001885943 ]
    mass: 6.940000
    reduced_to: 55
  - symbol: Li # 59
    coordinates: [  0.500000005129196,  0.500000004152995,  0.000000001885943 ]
    mass: 6.940000
    reduced_to: 55
  - symbol: Li # 60
    coordinates: [  0.833333338462529,  0.500000004152995,  0.000000001885943 ]
    mass: 6.940000
    reduced_to: 55
  - symbol: Li # 61
    coordinates: [  0.166666671795862,  0.833333337486328,  0.000000001885943 ]
    mass: 6.940000
    reduced_to: 55
  - symbol: Li # 62
    coordinates: [  0.500000005129196,  0.833333337486328,  0.000000001885943 ]
    mass: 6.940000
    reduced_to: 55
  - symbol: Li # 63
    coordinates: [  0.833333338462529,  0.833333337486328,  0.000000001885943 ]
    mass: 6.940000
    reduced_to: 55
  - symbol: Li # 64
    coordinates: [  0.166666671795862,  0.166666670819661,  0.333333335219276 ]
    mass: 6.940000
    reduced_to: 55
  - symbol: Li # 65
    coordinates: [  0.500000005129196,  0.166666670819661,  0.333333335219276 ]
    mass: 6.940000
    reduced_to: 55
  - symbol: Li # 66
    coordinates: [  0.833333338462529,  0.166666670819661,  0.333333335219276 ]
    mass: 6.940000
    reduced_to: 55
  - symbol: Li # 67
    coordinates: [  0.166666671795862,  0.500000004152995,  0.333333335219276 ]
    mass: 6.940000
    reduced_to: 55
  - symbol: Li # 68
    coordinates: [  0.500000005129196,  0.500000004152995,  0.333333335219276 ]
    mass: 6.940000
    reduced_to: 55
  - symbol: Li # 69
    coordinates: [  0.833333338462529,  0.500000004152995,  0.333333335219276 ]
    mass: 6.940000
    reduced_to: 55
  - symbol: Li # 70
    coordinates: [  0.166666671795862,  0.833333337486328,  0.333333335219276 ]
    mass: 6.940000
    reduced_to: 55
  - symbol: Li # 71
    coordinates: [  0.500000005129196,  0.833333337486328,  0.333333335219276 ]
    mass: 6.940000
    reduced_to: 55
  - symbol: Li # 72
    coordinates: [  0.833333338462529,  0.833333337486328,  0.333333335219276 ]
    mass: 6.940000
    reduced_to: 55
  - symbol: Li # 73
    coordinates: [  0.166666671795862,  0.166666670819661,  0.666666668552610 ]
    mass: 6.940000
    reduced_to: 55
  - symbol: Li # 74
    coordinates: [  0.500000005129196,  0.166666670819661,  0.666666668552610 ]
    mass: 6.940000
    reduced_to: 55
  - symbol: Li # 75
    coordinates: [  0.833333338462529,  0.166666670819661,  0.666666668552610 ]
    mass: 6.940000
    reduced_to: 55
  - symbol: Li # 76
    coordinates: [  0.166666671795862,  0.500000004152995,  0.666666668552610 ]
    mass: 6.940000
    reduced_to: 55
  - symbol: Li # 77
    coordinates: [  0.500000005129196,  0.500000004152995,  0.666666668552610 ]
    mass: 6.940000
    reduced_to: 55
  - symbol: Li # 78
    coordinates: [  0.833333338462529,  0.500000004152995,  0.666666668552610 ]
    mass: 6.940000
    reduced_to: 55
  - symbol: Li # 79
    coordinates: [  0.166666671795862,  0.833333337486328,  0.666666668552610 ]
    mass: 6.940000
    reduced_to: 55
  - symbol: Li # 80
    coordinates: [  0.500000005129196,  0.833333337486328,  0.666666668552610 ]
    mass: 6.940000
    reduced_to: 55
  - symbol: Li # 81
    coordinates: [  0.833333338462529,  0.833333337486328,  0.666666668552610 ]
    mass: 6.940000
    reduced_to: 55
  - symbol: Sn # 82
    coordinates: [  0.000000003446970,  0.333333325429024,  0.000000000589925 ]
    mass: 118.710000
    reduced_to: 82
  - symbol: Sn # 83
    coordinates: [  0.333333336780303,  0.333333325429024,  0.000000000589925 ]
    mass: 118.710000
    reduced_to: 82
  - symbol: Sn # 84
    coordinates: [  0.666666670113636,  0.333333325429024,  0.000000000589925 ]
    mass: 118.710000
    reduced_to: 82
  - symbol: Sn # 85
    coordinates: [  0.000000003446970,  0.666666658762357,  0.000000000589925 ]
    mass: 118.710000
    reduced_to: 82
  - symbol: Sn # 86
    coordinates: [  0.333333336780303,  0.666666658762357,  0.000000000589925 ]
    mass: 118.710000
    reduced_to: 82
  - symbol: Sn # 87
    coordinates: [  0.666666670113636,  0.666666658762357,  0.000000000589925 ]
    mass: 118.710000
    reduced_to: 82
  - symbol: Sn # 88
    coordinates: [  0.000000003446970,  0.999999992095690,  0.000000000589925 ]
    mass: 118.710000
    reduced_to: 82
  - symbol: Sn # 89
    coordinates: [  0.333333336780303,  0.999999992095690,  0.000000000589925 ]
    mass: 118.710000
    reduced_to: 82
  - symbol: Sn # 90
    coordinates: [  0.666666670113636,  0.999999992095690,  0.000000000589925 ]
    mass: 118.710000
    reduced_to: 82
  - symbol: Sn # 91
    coordinates: [  0.000000003446970,  0.333333325429024,  0.333333333923258 ]
    mass: 118.710000
    reduced_to: 82
  - symbol: Sn # 92
    coordinates: [  0.333333336780303,  0.333333325429024,  0.333333333923258 ]
    mass: 118.710000
    reduced_to: 82
  - symbol: Sn # 93
    coordinates: [  0.666666670113636,  0.333333325429024,  0.333333333923258 ]
    mass: 118.710000
    reduced_to: 82
  - symbol: Sn # 94
    coordinates: [  0.000000003446970,  0.666666658762357,  0.333333333923258 ]
    mass: 118.710000
    reduced_to: 82
  - symbol: Sn # 95
    coordinates: [  0.333333336780303,  0.666666658762357,  0.333333333923258 ]
    mass: 118.710000
    reduced_to: 82
  - symbol: Sn # 96
    coordinates: [  0.666666670113636,  0.666666658762357,  0.333333333923258 ]
    mass: 118.710000
    reduced_to: 82
  - symbol: Sn # 97
    coordinates: [  0.000000003446970,  0.999999992095690,  0.333333333923258 ]
    mass: 118.710000
    reduced_to: 82
  - symbol: Sn # 98
    coordinates: [  0.333333336780303,  0.999999992095690,  0.333333333923258 ]
    mass: 118.710000
    reduced_to: 82
  - symbol: Sn # 99
    coordinates: [  0.666666670113636,  0.999999992095690,  0.333333333923258 ]
    mass: 118.710000
    reduced_to: 82
  - symbol: Sn # 100
    coordinates: [  0.000000003446970,  0.333333325429024,  0.666666667256592 ]
    mass: 118.710000
    reduced_to: 82
  - symbol: Sn # 101
    coordinates: [  0.333333336780303,  0.333333325429024,  0.666666667256592 ]
    mass: 118.710000
    reduced_to: 82
  - symbol: Sn # 102
    coordinates: [  0.666666670113636,  0.333333325429024,  0.666666667256592 ]
    mass: 118.710000
    reduced_to: 82
  - symbol: Sn # 103
    coordinates: [  0.000000003446970,  0.666666658762357,  0.666666667256592 ]
    mass: 118.710000
    reduced_to: 82
  - symbol: Sn # 104
    coordinates: [  0.333333336780303,  0.666666658762357,  0.666666667256592 ]
    mass: 118.710000
    reduced_to: 82
  - symbol: Sn # 105
    coordinates: [  0.666666670113636,  0.666666658762357,  0.666666667256592 ]
    mass: 118.710000
    reduced_to: 82
  - symbol: Sn # 106
    coordinates: [  0.000000003446970,  0.999999992095690,  0.666666667256592 ]
    mass: 118.710000
    reduced_to: 82
  - symbol: Sn # 107
    coordinates: [  0.333333336780303,  0.999999992095690,  0.666666667256592 ]
    mass: 118.710000
    reduced_to: 82
  - symbol: Sn # 108
    coordinates: [  0.666666670113636,  0.999999992095690,  0.666666667256592 ]
    mass: 118.710000
    reduced_to: 82

displacements:
- atom:    1
  displacement:
    [   0.0070693578737789, -0.0000000006291157,  0.0070727773365518 ]
  forces:
  - [  -0.0131798163056374,  0.0000727772712708, -0.0141201671212912 ]
  - [  -0.0007587289437652,  0.0000016987323761,  0.0001272690133192 ]
  - [  -0.0007514895987697,  0.0000017005950212,  0.0001243054866791 ]
  - [  -0.0000052761752158, -0.0000015459954739, -0.0000504754279973 ]
  - [  -0.0000532697886229,  0.0000027157366276, -0.0000145626108861 ]
  - [  -0.0000525155919604, -0.0000045103952289, -0.0000153100118041 ]
  - [  -0.0000057323486544,  0.0000003051391104, -0.0000503472983837 ]
  - [  -0.0000503445917275, -0.0000065391359385, -0.0000152885913849 ]
  - [  -0.0000536454899702,  0.0000011590866507, -0.0000137658789754 ]
  - [  -0.0000052982941270, -0.0000000633299351, -0.0002444119309075 ]
  - [  -0.0000475537381135,  0.0000017993152142, -0.0000488991936436 ]
  - [  -0.0000566608214285,  0.0000009546056390, -0.0000568544492126 ]
  - [  -0.0000977595336735, -0.0005887970328331, -0.0007216450758278 ]
  - [   0.0000120840850286, -0.0000025704503059,  0.0000017531419871 ]
  - [   0.0000011424417607, -0.0000141449272633, -0.0000096708536148 ]
  - [  -0.0000946458894759,  0.0005851308815181, -0.0007183440029621 ]
  - [   0.0000139586627483,  0.0000023170432542,  0.0000014901161194 ]
  - [   0.0000023718748707,  0.0000142732314998, -0.0000099902972579 ]
  - [  -0.0000074912677519, -0.0000013373792171, -0.0002325045497855 ]
  - [  -0.0000558497849852,  0.0000002607703209, -0.0000576005404582 ]
  - [  -0.0000508041703142,  0.0000008987262845, -0.0000518127199030 ]
  - [  -0.0000917024735827,  0.0005964189767838, -0.0007263369043358 ]
  - [   0.0000008285569493,  0.0000148862600327, -0.0000091466936283 ]
  - [   0.0000127372622956,  0.0000030072405934,  0.0000022749009077 ]
  - [  -0.0000959084718488, -0.0005994089879096, -0.0007300935685635 ]
  - [   0.0000017695710994, -0.0000141340715345, -0.0000096186995506 ]
  - [   0.0000130587432068, -0.0000023485044949,  0.0000022184103727 ]
  - [   0.0014379918575287,  0.0014333224389702, -0.0001526353880763 ]
  - [   0.0014606593176723, -0.0014881668612361, -0.0001643905416131 ]
  - [   0.0000210292637348,  0.0000001496656097,  0.0000230744481087 ]
  - [   0.0014582630246878, -0.0014773670118302, -0.0001576512149768 ]
  - [   0.0014419052749872,  0.0014444201951846, -0.0001589025923749 ]
  - [   0.0000211708247662, -0.0000003006425686,  0.0000230370787904 ]
  - [  -0.0000006649643183,  0.0000000136205927,  0.0000233193713939 ]
  - [  -0.0000008437782526, -0.0000003102468327,  0.0000229145516641 ]
  - [   0.0000031962990761, -0.0000004874309525, -0.0000079734454630 ]
  - [   0.0001872992143035, -0.0001962418755284, -0.0001424588263035 ]
  - [   0.0000534188002348, -0.0001054549429682,  0.0001662764698267 ]
  - [   0.0000010952353477, -0.0000028074437068, -0.0000120000913739 ]
  - [   0.0001858724281192,  0.0001948028220795, -0.0001388471573591 ]
  - [   0.0000524166971445,  0.0001092551392503,  0.0001660668203840 ]
  - [   0.0000004656612873,  0.0000019461731426, -0.0000123364588944 ]
  - [   0.0000330107286572,  0.0000003615859896, -0.0000148503895616 ]
  - [  -0.0000329036265612, -0.0000001718290150, -0.0000099235621747 ]
  - [  -0.0000006332993507,  0.0000002672895789,  0.0000036745914258 ]
  - [   0.0000516846776009,  0.0001121533568949,  0.0001657950779190 ]
  - [   0.0001840731129050,  0.0001952252350748, -0.0001338306901744 ]
  - [   0.0000009164214134,  0.0000023946631700, -0.0000118917523650 ]
  - [   0.0000518448650837, -0.0001081465743482,  0.0001661834248807 ]
  - [   0.0001853955909610, -0.0001957735512406, -0.0001379974419251 ]
  - [   0.0000011064112186, -0.0000029562506825, -0.0000117506424431 ]
  - [  -0.0000331448391080, -0.0000005806796253, -0.0000090211542556 ]
  - [   0.0000337464734912, -0.0000008079223335, -0.0000137126335176 ]
  - [  -0.0000004693865776, -0.0000005974434316,  0.0000038129510358 ]
  - [   0.0031042098999023, -0.0000087227672338,  0.0028693806380033 ]
  - [  -0.0002500442788005,  0.0000014184042811, -0.0000037956924643 ]
  - [   0.0000216444932448,  0.0000010905787349, -0.0000009825173493 ]
  - [  -0.0001202942803502, -0.0000850679352880,  0.0000758959286031 ]
  - [   0.0003521572798491,  0.0002158489078283,  0.0001601882977411 ]
  - [   0.0000005207111826,  0.0000334223732352, -0.0000000981367378 ]
  - [  -0.0001171519979835,  0.0000854771351442,  0.0000761782575864 ]
  - [   0.0003517260774970, -0.0002152226079488,  0.0001638057001401 ]
  - [   0.0000023581087589, -0.0000320849212585, -0.0000002122308160 ]
  - [  -0.0002436013892293,  0.0000012982636690, -0.0000142382923514 ]
  - [   0.0031735049560666, -0.0000085504725575,  0.0029411592986435 ]
  - [   0.0000207686389331,  0.0000007692724466, -0.0000007804483175 ]
  - [   0.0003573046997190, -0.0002219388261437,  0.0001642904244363 ]
  - [  -0.0001165792346001,  0.0000848816707730,  0.0000744126737118 ]
  - [   0.0000010194307833, -0.0000343164429069, -0.0000001937150955 ]
  - [   0.0003583002835512,  0.0002215969434474,  0.0001608738675714 ]
  - [  -0.0001190118491650, -0.0000859368155943,  0.0000746422447264 ]
  - [  -0.0000007972121239,  0.0000327065208694,  0.0000002225860953 ]
  - [  -0.0000008009374142, -0.0000002039596438,  0.0000219724606723 ]
  - [  -0.0000013858079910, -0.0000001695007086,  0.0000211144797504 ]
  - [   0.0000020399020286,  0.0000003669410944,  0.0000021448358893 ]
  - [   0.0000001145526767, -0.0000028964132071,  0.0000013175886124 ]
  - [   0.0000000139698386,  0.0000024549663067,  0.0000013741664588 ]
  - [   0.0000004529465514, -0.0000001592561603,  0.0000006554182619 ]
  - [  -0.0000004693865776,  0.0000026946800062,  0.0000008880160749 ]
  - [  -0.0000001601874828, -0.0000028213253245,  0.0000011303927749 ]
  - [  -0.0000013075768948, -0.0000003545865184,  0.0000003604218364 ]
  - [   0.0002122674195562,  0.0000166135178006,  0.0001118890941143 ]
  - [   0.0004847348900512, -0.0027946359477937,  0.0025031995028257 ]
  - [  -0.0002213752013631,  0.0000705110142007,  0.0000548638345208 ]
  - [  -0.0000257191186392,  0.0000008542583032, -0.0000032596290112 ]
  - [   0.0000114661088446,  0.0000003923198619, -0.0000304564873659 ]
  - [   0.0000124090583995, -0.0000013771906424, -0.0000012758223420 ]
  - [   0.0002122305450030, -0.0000149905681610,  0.0001098811626434 ]
  - [   0.0004866644740105,  0.0028077661991119,  0.0025129076093435 ]
  - [  -0.0002223923802376, -0.0000715106725693,  0.0000567814277019 ]
  - [  -0.0002208283112850, -0.0000711580505595,  0.0000568553805351 ]
  - [   0.0004757270216942,  0.0028644264675677,  0.0025488696992397 ]
  - [   0.0002134766109521, -0.0000142765929922,  0.0001117577776313 ]
  - [   0.0000138652440000,  0.0000006146728992, -0.0000001750886440 ]
  - [   0.0000118657044368,  0.0000016577541828, -0.0000293902121484 ]
  - [  -0.0000265307608061,  0.0000022239983082, -0.0000024619512260 ]
  - [  -0.0002192998654209,  0.0000701521057636,  0.0000538900494576 ]
  - [   0.0004736296832561, -0.0028503565117717,  0.0025381259620190 ]
  - [   0.0002135150134563,  0.0000166035461007,  0.0001133978366852 ]
  - [  -0.0000064902123995,  0.0000017210841179, -0.0000351704657078 ]
  - [   0.0000115627917694,  0.0000009238719940,  0.0003730049356818 ]
  - [  -0.0000058900477597, -0.0000013411045074, -0.0000348128378391 ]
  - [  -0.0000011541997083,  0.0000001378357410,  0.0000045672059059 ]
  - [   0.0000021597224986,  0.0000000894069672,  0.0000603138469160 ]
  - [  -0.0000009571522241,  0.0000001862645149,  0.0000041211023927 ]
  - [  -0.0000058715086197, -0.0000010766088963, -0.0000342950224876 ]
  - [   0.0000110417604446, -0.0000003431923687,  0.0003734789788723 ]
  - [  -0.0000059604644775,  0.0000015371479094, -0.0000348314642906 ]
- atom:    1
  displacement:
    [   0.0000282474466164,  0.0099999601040084,  0.0000000000000000 ]
  forces:
  - [   0.0000507043150719, -0.0199573654681444,  0.0000001056760084 ]
  - [   0.0000005928741302,  0.0001787468791008, -0.0000001147855073 ]
  - [  -0.0000022245803848,  0.0001787201617844, -0.0000000363215804 ]
  - [  -0.0000005593465175, -0.0003525726497173,  0.0000001237058314 ]
  - [   0.0000038702273741, -0.0000766962766647,  0.0000001234875526 ]
  - [  -0.0000091750407591, -0.0000735120847821,  0.0000001182779670 ]
  - [  -0.0000008608330972, -0.0003307817387395,  0.0000004433095455 ]
  - [  -0.0000058913719840, -0.0000750039471313,  0.0000006332993507 ]
  - [   0.0000022350868676, -0.0000777986715548,  0.0000000223517418 ]
  - [  -0.0000015021651052, -0.0000712834298611, -0.0000022457679734 ]
  - [   0.0000011233496480, -0.0000199452042580,  0.0000002729939297 ]
  - [   0.0000001716252882, -0.0000201137736440, -0.0000005615875125 ]
  - [  -0.0000029606744647, -0.0010154321789742, -0.0008291128906421 ]
  - [   0.0000074291310739, -0.0000047758221626, -0.0000123170902953 ]
  - [  -0.0000082722690422, -0.0000046845525503, -0.0000122254714370 ]
  - [  -0.0000035573320929, -0.0010278249392286,  0.0008449405431747 ]
  - [  -0.0000074963609222, -0.0000046850473154,  0.0000104308128357 ]
  - [   0.0000091884285212, -0.0000042801693780,  0.0000109085813165 ]
  - [  -0.0000018348218873, -0.0000725314021111,  0.0000016474659787 ]
  - [   0.0000009195064195, -0.0000209771096706, -0.0000008110218914 ]
  - [   0.0000000572472345, -0.0000211615115404,  0.0000002436281648 ]
  - [  -0.0000031340459827, -0.0010141879320145,  0.0008282635244541 ]
  - [   0.0000075742136687, -0.0000040717422962,  0.0000117203453556 ]
  - [  -0.0000083818158600, -0.0000042114406824,  0.0000115215807455 ]
  - [  -0.0000036598357838, -0.0010277756955475, -0.0008458718657494 ]
  - [  -0.0000077510485426, -0.0000046236818889, -0.0000120513141155 ]
  - [   0.0000088202359620, -0.0000044661283027, -0.0000115633010864 ]
  - [   0.0023624654859304,  0.0020198996644467, -0.0000002207234502 ]
  - [  -0.0023967865854502,  0.0020619942806661, -0.0000002672895789 ]
  - [   0.0000002905726433, -0.0000013374236687, -0.0000002691522241 ]
  - [  -0.0024362476542592,  0.0020804179366678, -0.0000001216103556 ]
  - [   0.0024025207385421,  0.0020386988762766, -0.0000000978179742 ]
  - [   0.0000004358589649, -0.0000015234691091, -0.0000001196603989 ]
  - [   0.0000008894130588,  0.0000297223450616,  0.0000000729778549 ]
  - [   0.0000001415610313,  0.0000294781057164, -0.0000002440356184 ]
  - [   0.0000011771917343,  0.0000023540342227,  0.0000001118605724 ]
  - [  -0.0003329161554575,  0.0001693536032690,  0.0000917082652450 ]
  - [   0.0003292988985777,  0.0001666388125159,  0.0000906400382519 ]
  - [   0.0000002123415470, -0.0000000696317457,  0.0000463174656034 ]
  - [   0.0003358740359545,  0.0001654044608586, -0.0000974070426309 ]
  - [  -0.0003394102677703,  0.0001685869065113, -0.0000983837962849 ]
  - [  -0.0000002197921276, -0.0000006668851711, -0.0000478946749354 ]
  - [   0.0000002123415470,  0.0000017643906176, -0.0000002285378287 ]
  - [   0.0000007860362530,  0.0000013643875718, -0.0000010870862752 ]
  - [  -0.0000006295740604,  0.0000005883630365, -0.0000001013686415 ]
  - [  -0.0003317743539810,  0.0001695603132248, -0.0000926304346649 ]
  - [   0.0003294907510281,  0.0001669183839113, -0.0000907047506189 ]
  - [   0.0000004917383194, -0.0000000027939677, -0.0000468436919618 ]
  - [   0.0003362391144037,  0.0001657917164266,  0.0000965958024608 ]
  - [  -0.0003390293568373,  0.0001687323674560,  0.0000979250180535 ]
  - [   0.0000002235174179, -0.0000003182794899,  0.0000471174571430 ]
  - [   0.0000005317851901,  0.0000009136274457, -0.0000001033331500 ]
  - [   0.0000006677582860,  0.0000005899928510,  0.0000006004265742 ]
  - [  -0.0000006519258022, -0.0000002882443368, -0.0000002025917638 ]
  - [   0.0000104382634163, -0.0002213921397924,  0.0000121864140965 ]
  - [  -0.0000060107558966, -0.0002209972590208,  0.0000061953860495 ]
  - [  -0.0000006235932233,  0.0000330498442054, -0.0000003061444431 ]
  - [   0.0000972570851445,  0.0000165058299899, -0.0002162408782169 ]
  - [  -0.0000910060480237,  0.0000202422961593, -0.0002126748440787 ]
  - [   0.0000000262953108, -0.0000164881348610, -0.0000038080606828 ]
  - [  -0.0000914102420211,  0.0000237164786085,  0.0002135557733709 ]
  - [   0.0000971397385001,  0.0000196863402380,  0.0002171960950363 ]
  - [   0.0000011324882507, -0.0000155711895786,  0.0000036220244510 ]
  - [   0.0000104242935777, -0.0002210726961493, -0.0000121772754937 ]