# Thermal properties / unit cell (natom)

unit:
  temperature:   K
  free_energy:   kJ/mol
  entropy:       J/K/mol
  heat_capacity: J/K/mol

natom: 3    
cutoff_frequency: 0.00000
num_modes: 129735
num_integrated_modes: 129734

zero_point_energy:       8.0483931

thermal_properties:
- temperature:         0.0000000
  free_energy:         8.0483931
  entropy:             0.0000000
  heat_capacity:       0.0000000
  energy:              8.0483931

- temperature:        10.0000000
  free_energy:         8.0470560
  entropy:             0.5380042
  heat_capacity:       1.8440478
  energy:              8.0524361

- temperature:        20.0000000
  free_energy:         8.0240045
  entropy:             4.8628321
  heat_capacity:      12.8775533
  energy:              8.1212611

- temperature:        30.0000000
  free_energy:         7.9396602
  entropy:            12.2359148
  heat_capacity:      23.5931144
  energy:              8.3067376

- temperature:        40.0000000
  free_energy:         7.7779132
  entropy:            20.0848702
  heat_capacity:      30.8431242
  energy:              8.5813080

- temperature:        50.0000000
  free_energy:         7.5393378
  entropy:            27.5415609
  heat_capacity:      35.9195798
  energy:              8.9164159

- temperature:        60.0000000
  free_energy:         7.2289256
  entropy:            34.4504620
  heat_capacity:      39.8553665
  energy:              9.2959534

- temperature:        70.0000000
  free_energy:         6.8520272
  entropy:            40.8505709
  heat_capacity:      43.1943734
  energy:              9.7115672

- temperature:        80.0000000
  free_energy:         6.4133610
  entropy:            46.8162648
  heat_capacity:      46.1750124
  energy:             10.1586622

- temperature:        90.0000000
  free_energy:         5.9169273
  entropy:            52.4138025
  heat_capacity:      48.8844671
  energy:             10.6341695

- temperature:       100.0000000
  free_energy:         5.3661413
  entropy:            57.6939812
  heat_capacity:      51.3498452
  energy:             11.1355395

- temperature:       110.0000000
  free_energy:         4.7639785
  entropy:            62.6946201
  heat_capacity:      53.5813253
  energy:             11.6603867

- temperature:       120.0000000
  free_energy:         4.1130843
  entropy:            67.4444460
  heat_capacity:      55.5885065
  energy:             12.2064179

- temperature:       130.0000000
  free_energy:         3.4158494
  entropy:            71.9661792
  heat_capacity:      57.3845720
  energy:             12.7714527

- temperature:       140.0000000
  free_energy:         2.6744582
  entropy:            76.2785849
  heat_capacity:      58.9859336
  energy:             13.3534601

- temperature:       150.0000000
  free_energy:         1.8909217
  entropy:            80.3977408
  heat_capacity:      60.4107278
  energy:             13.9505828

- temperature:       160.0000000
  free_energy:         1.0671002
  entropy:            84.3377964
  heat_capacity:      61.6774030
  energy:             14.5611477

- temperature:       170.0000000
  free_energy:         0.2047204
  entropy:            88.1114282
  heat_capacity:      62.8037252
  energy:             15.1836632

- temperature:       180.0000000
  free_energy:        -0.6946120
  entropy:            91.7301192
  heat_capacity:      63.8061915
  energy:             15.8168095

- temperature:       190.0000000
  free_energy:        -1.6294005
  entropy:            95.2043405
  heat_capacity:      64.6997511
  energy:             16.4594242

- temperature:       200.0000000
  free_energy:        -2.5982493
  entropy:            98.5436767
  heat_capacity:      65.4977298
  energy:             17.1104861

- temperature:       210.0000000
  free_energy:        -3.5998538
  entropy:           101.7569206
  heat_capacity:      66.2118754
  energy:             17.7690995

- temperature:       220.0000000
  free_energy:        -4.6329944
  entropy:           104.8521497
  heat_capacity:      66.8524708
  energy:             18.4344786

- temperature:       230.0000000
  free_energy:        -5.6965283
  entropy:           107.8367913
  heat_capacity:      67.4284750
  energy:             19.1059337

- temperature:       240.0000000
  free_energy:        -6.7893844
  entropy:           110.7176801
  heat_capacity:      67.9476738
  energy:             19.7828588

- temperature:       250.0000000
  free_energy:        -7.9105571
  entropy:           113.5011102
  heat_capacity:      68.4168246
  energy:             20.4647205

- temperature:       260.0000000
  free_energy:        -9.0591011
  entropy:           116.1928818
  heat_capacity:      68.8417915
  energy:             21.1510481

- temperature:       270.0000000
  free_energy:       -10.2341271
  entropy:           118.7983449
  heat_capacity:      69.2276656
  energy:             21.8414261

- temperature:       280.0000000
  free_energy:       -11.4347968
  entropy:           121.3224385
  heat_capacity:      69.5788721
  energy:             22.5354860

- temperature:       290.0000000
  free_energy:       -12.6603198
  entropy:           123.7697265
  heat_capacity:      69.8992628
  energy:             23.2329008

- temperature:       300.0000000
  free_energy:       -13.9099494
  entropy:           126.1444306
  heat_capacity:      70.1921965
  energy:             23.9333797

- temperature:       310.0000000
  free_energy:       -15.1829796
  entropy:           128.4504601
  heat_capacity:      70.4606076
  energy:             24.6366631

- temperature:       320.0000000
  free_energy:       -16.4787418
  entropy:           130.6914393
  heat_capacity:      70.7070654
  energy:             25.3425187

- temperature:       330.0000000
  free_energy:       -17.7966028
  entropy:           132.8707319
  heat_capacity:      70.9338243
  energy:             26.0507387

- temperature:       340.0000000
  free_energy:       -19.1359613
  entropy:           134.9914632
  heat_capacity:      71.1428670
  energy:             26.7611362

- temperature:       350.0000000
  free_energy:       -20.4962465
  entropy:           137.0565412
  heat_capacity:      71.3359407
  energy:             27.4735429

- temperature:       360.0000000
  free_energy:       -21.8769157
  entropy:           139.0686739
  heat_capacity:      71.5145895
  energy:             28.1878070

- temperature:       370.0000000
  free_energy:       -23.2774520
  entropy:           141.0303868
  heat_capacity:      71.6801802
  energy:             28.9037912

- temperature:       380.0000000
  free_energy:       -24.6973632
  entropy:           142.9440376
  heat_capacity:      71.8339258
  energy:             29.6213711

- temperature:       390.0000000
  free_energy:       -26.1361799
  entropy:           144.8118299
  heat_capacity:      71.9769053
  energy:             30.3404338

- temperature:       400.0000000
  free_energy:       -27.5934538
  entropy:           146.6358259
  heat_capacity:      72.1100803
  energy:             31.0608765

- temperature:       410.0000000
  free_energy:       -29.0687569
  entropy:           148.4179572
  heat_capacity:      72.2343098
  energy:             31.7826056

- temperature:       420.0000000
  free_energy:       -30.5616795
  entropy:           150.1600356
  heat_capacity:      72.3503627
  energy:             32.5055355

- temperature:       430.0000000
  free_energy:       -32.0718297
  entropy:           151.8637620
  heat_capacity:      72.4589285
  energy:             33.2295879

- temperature:       440.0000000
  free_energy:       -33.5988322
  entropy:           153.5307350
  heat_capacity:      72.5606269
  energy:             33.9546912

- temperature:       450.0000000
  free_energy:       -35.1423270
  entropy:           155.1624586
  heat_capacity:      72.6560161
  energy:             34.6807794

- temperature:       460.0000000
  free_energy:       -36.7019686
  entropy:           156.7603495
  heat_capacity:      72.7455995
  energy:             35.4077921

- temperature:       470.0000000
  free_energy:       -38.2774256
  entropy:           158.3257430
  heat_capacity:      72.8298320
  energy:             36.1356736

- temperature:       480.0000000
  free_energy:       -39.8683794
  entropy:           159.8598993
  heat_capacity:      72.9091255
  energy:             36.8643723

- temperature:       490.0000000
  free_energy:       -41.4745235
  entropy:           161.3640089
  heat_capacity:      72.9838538
  energy:             37.5938409

- temperature:       500.0000000
  free_energy:       -43.0955631
  entropy:           162.8391969
  heat_capacity:      73.0543562
  energy:             38.3240353

- temperature:       510.0000000
  free_energy:       -44.7312146
  entropy:           164.2865284
  heat_capacity:      73.1209415
  energy:             39.0549149

- temperature:       520.0000000
  free_energy:       -46.3812042
  entropy:           165.7070120
  heat_capacity:      73.1838914
  energy:             39.7864420

- temperature:       530.0000000
  free_energy:       -48.0452685
  entropy:           167.1016038
  heat_capacity:      73.2434628
  energy:             40.5185815

- temperature:       540.0000000
  free_energy:       -49.7231530
  entropy:           168.4712108
  heat_capacity:      73.2998905
  energy:             41.2513008

- temperature:       550.0000000
  free_energy:       -51.4146123
  entropy:           169.8166943
  heat_capacity:      73.3533897
  energy:             41.9845696

- temperature:       560.0000000
  free_energy:       -53.1194092
  entropy:           171.1388727
  heat_capacity:      73.4041575
  energy:             42.7183595

- temperature:       570.0000000
  free_energy:       -54.8373147
  entropy:           172.4385244
  heat_capacity:      73.4523750
  energy:             43.4526442

- temperature:       580.0000000
  free_energy:       -56.5681071
  entropy:           173.7163899
  heat_capacity:      73.4982086
  energy:             44.1873990

- temperature:       590.0000000
  free_energy:       -58.3115722
  entropy:           174.9731748
  heat_capacity:      73.5418114
  energy:             44.9226009

- temperature:       600.0000000
  free_energy:       -60.0675026
  entropy:           176.2095515
  heat_capacity:      73.5833248
  energy:             45.6582283

- temperature:       610.0000000
  free_energy:       -61.8356974
  entropy:           177.4261611
  heat_capacity:      73.6228790
  energy:             46.3942609

- temperature:       620.0000000
  free_energy:       -63.6159620
  entropy:           178.6236157
  heat_capacity:      73.6605943
  energy:             47.1306798

- temperature:       630.0000000
  free_energy:       -65.4081078
  entropy:           179.8024997
  heat_capacity:      73.6965822
  energy:             47.8674670

- temperature:       640.0000000
  free_energy:       -67.2119519
  entropy:           180.9633717
  heat_capacity:      73.7309456
  energy:             48.6046060

- temperature:       650.0000000
  free_energy:       -69.0273169
  entropy:           182.1067659
  heat_capacity:      73.7637804
  energy:             49.3420809

- temperature:       660.0000000
  free_energy:       -70.8540307
  entropy:           183.2331931
  heat_capacity:      73.7951750
  energy:             50.0798768

- temperature:       670.0000000
  free_energy:       -72.6919259
  entropy:           184.3431429
  heat_capacity:      73.8252120
  energy:             50.8179798

- temperature:       680.0000000
  free_energy:       -74.5408402
  entropy:           185.4370837
  heat_capacity:      73.8539681
  energy:             51.5563768

- temperature:       690.0000000
  free_energy:       -76.4006157
  entropy:           186.5154650
  heat_capacity:      73.8815144
  energy:             52.2950552

- temperature:       700.0000000
  free_energy:       -78.2710990
  entropy:           187.5787176
  heat_capacity:      73.9079177
  energy:             53.0340032

- temperature:       710.0000000
  free_energy:       -80.1521410
  entropy:           188.6272548
  heat_capacity:      73.9332397
  energy:             53.7732099

- temperature:       720.0000000
  free_energy:       -82.0435964
  entropy:           189.6614737
  heat_capacity:      73.9575385
  energy:             54.5126646

- temperature:       730.0000000
  free_energy:       -83.9453240
  entropy:           190.6817554
  heat_capacity:      73.9808681
  energy:             55.2523575

- temperature:       740.0000000
  free_energy:       -85.8571863
  entropy:           191.6884665
  heat_capacity:      74.0032791
  energy:             55.9922789

- temperature:       750.0000000
  free_energy:       -87.7790493
  entropy:           192.6819592
  heat_capacity:      74.0248188
  energy:             56.7324201

- temperature:       760.0000000
  free_energy:       -89.7107825
  entropy:           193.6625725
  heat_capacity:      74.0455316
  energy:             57.4727726

- temperature:       770.0000000
  free_energy:       -91.6522589
  entropy:           194.6306325
  heat_capacity:      74.0654590
  energy:             58.2133281

- temperature:       780.0000000
  free_energy:       -93.6033544
  entropy:           195.5864534
  heat_capacity:      74.0846401
  energy:             58.9540792

- temperature:       790.0000000
  free_energy:       -95.5639482
  entropy:           196.5303377
  heat_capacity:      74.1031115
  energy:             59.6950186

- temperature:       800.0000000
  free_energy:       -97.5339223
  entropy:           197.4625769
  heat_capacity:      74.1209075
  energy:             60.4361392

- temperature:       810.0000000
  free_energy:       -99.5131618
  entropy:           198.3834524
  heat_capacity:      74.1380607
  energy:             61.1774346

- temperature:       820.0000000
  free_energy:      -101.5015544
  entropy:           199.2932351
  heat_capacity:      74.1546013
  energy:             61.9188984

- temperature:       830.0000000
  free_energy:      -103.4989904
  entropy:           200.1921869
  heat_capacity:      74.1705582
  energy:             62.6605247

- temperature:       840.0000000
  free_energy:      -105.5053629
  entropy:           201.0805602
  heat_capacity:      74.1859584
  energy:             63.4023077

- temperature:       850.0000000
  free_energy:      -107.5205672
  entropy:           201.9585991
  heat_capacity:      74.2008273
  energy:             64.1442421

- temperature:       860.0000000
  free_energy:      -109.5445012
  entropy:           202.8265393
  heat_capacity:      74.2151890
  energy:             64.8863226

- temperature:       870.0000000
  free_energy:      -111.5770651
  entropy:           203.6846084
  heat_capacity:      74.2290662
  energy:             65.6285442

- temperature:       880.0000000
  free_energy:      -113.6181612
  entropy:           204.5330268
  heat_capacity:      74.2424803
  energy:             66.3709023

- temperature:       890.0000000
  free_energy:      -115.6676942
  entropy:           205.3720073
  heat_capacity:      74.2554518
  energy:             67.1133924

- temperature:       900.0000000
  free_energy:      -117.7255706
  entropy:           206.2017562
  heat_capacity:      74.2679997
  energy:             67.8560100

- temperature:       910.0000000
  free_energy:      -119.7916992
  entropy:           207.0224727
  heat_capacity:      74.2801423
  energy:             68.5987510

- temperature:       920.0000000
  free_energy:      -121.8659906
  entropy:           207.8343501
  heat_capacity:      74.2918967
  energy:             69.3416115

- temperature:       930.0000000
  free_energy:      -123.9483573
  entropy:           208.6375753
  heat_capacity:      74.3032793
  energy:             70.0845877

- temperature:       940.0000000
  free_energy:      -126.0387138
  entropy:           209.4323295
  heat_capacity:      74.3143055
  energy:             70.8276759

- temperature:       950.0000000
  free_energy:      -128.1369763
  entropy:           210.2187884
  heat_capacity:      74.3249901
  energy:             71.5708727

- temperature:       960.0000000
  free_energy:      -130.2430625
  entropy:           210.9971220
  heat_capacity:      74.3353468
  energy:             72.3141746

- temperature:       970.0000000
  free_energy:      -132.3568922
  entropy:           211.7674956
  heat_capacity:      74.3453890
  energy:             73.0575786

- temperature:       980.0000000
  free_energy:      -134.4783864
  entropy:           212.5300692
  heat_capacity:      74.3551292
  energy:             73.8010814

- temperature:       990.0000000
  free_energy:      -136.6074681
  entropy:           213.2849982
  heat_capacity:      74.3645794
  energy:             74.5446802

- temperature:      1000.0000000
  free_energy:      -138.7440614
  entropy:           214.0324335
  heat_capacity:      74.3737510
  energy:             75.2883721
