# Thermal properties / unit cell (natom)

unit:
  temperature:   K
  free_energy:   kJ/mol
  entropy:       J/K/mol
  heat_capacity: J/K/mol

natom: 13   
cutoff_frequency: 0.00000
num_modes: 169884
num_integrated_modes: 169882

zero_point_energy:      48.6084952

thermal_properties:
- temperature:         0.0000000
  free_energy:        48.6084952
  entropy:             0.0000000
  heat_capacity:       0.0000000
  energy:             48.6084952

- temperature:        10.0000000
  free_energy:        48.6038462
  entropy:             1.7739001
  heat_capacity:       5.1544054
  energy:             48.6215852

- temperature:        20.0000000
  free_energy:        48.5457594
  entropy:            11.1162133
  heat_capacity:      25.4056927
  energy:             48.7680836

- temperature:        30.0000000
  free_energy:        48.3648602
  entropy:            25.5313891
  heat_capacity:      46.7037262
  energy:             49.1308019

- temperature:        40.0000000
  free_energy:        48.0298778
  entropy:            41.6012111
  heat_capacity:      65.6276847
  energy:             49.6939262

- temperature:        50.0000000
  free_energy:        47.5312344
  entropy:            58.1764722
  heat_capacity:      83.5345190
  energy:             50.4400581

- temperature:        60.0000000
  free_energy:        46.8656070
  entropy:            74.9793763
  heat_capacity:     101.3382803
  energy:             51.3643696

- temperature:        70.0000000
  free_energy:        46.0311240
  entropy:            91.9389112
  heat_capacity:     119.1356373
  energy:             52.4668478

- temperature:        80.0000000
  free_energy:        45.0265094
  entropy:           108.9933310
  heat_capacity:     136.5990751
  energy:             53.7459758

- temperature:        90.0000000
  free_energy:        43.8512258
  entropy:           126.0568213
  heat_capacity:     153.3190803
  energy:             55.1963397

- temperature:       100.0000000
  free_energy:        42.5056704
  entropy:           143.0312326
  heat_capacity:     168.9746239
  energy:             56.8087936

- temperature:       110.0000000
  free_energy:        40.9912145
  entropy:           159.8221089
  heat_capacity:     183.3784821
  energy:             58.5716465

- temperature:       120.0000000
  free_energy:        39.3101112
  entropy:           176.3486843
  heat_capacity:     196.4621836
  energy:             60.4719533

- temperature:       130.0000000
  free_energy:        37.4653346
  entropy:           192.5477337
  heat_capacity:     208.2425433
  energy:             62.4965399

- temperature:       140.0000000
  free_energy:        35.4604026
  entropy:           208.3734759
  heat_capacity:     218.7893176
  energy:             64.6326892

- temperature:       150.0000000
  free_energy:        33.2992121
  entropy:           223.7955148
  heat_capacity:     228.2003537
  energy:             66.8685393

- temperature:       160.0000000
  free_energy:        30.9858983
  entropy:           238.7960978
  heat_capacity:     236.5846749
  energy:             69.1932739

- temperature:       170.0000000
  free_energy:        28.5247220
  entropy:           253.3673801
  heat_capacity:     244.0519396
  energy:             71.5971766

- temperature:       180.0000000
  free_energy:        25.9199835
  entropy:           267.5090052
  heat_capacity:     250.7064224
  energy:             74.0716044

- temperature:       190.0000000
  free_energy:        23.1759574
  entropy:           281.2260997
  heat_capacity:     256.6439706
  energy:             76.6089164

- temperature:       200.0000000
  free_energy:        20.2968468
  entropy:           294.5276786
  heat_capacity:     261.9508103
  energy:             79.2023825

- temperature:       210.0000000
  free_energy:        17.2867502
  entropy:           307.4254097
  heat_capacity:     266.7034389
  energy:             81.8460862

- temperature:       220.0000000
  free_energy:        14.1496403
  entropy:           319.9326764
  heat_capacity:     270.9691146
  energy:             84.5348291

- temperature:       230.0000000
  free_energy:        10.8893503
  entropy:           332.0638779
  heat_capacity:     274.8066362
  energy:             87.2640422

- temperature:       240.0000000
  free_energy:         7.5095666
  entropy:           343.8339146
  heat_capacity:     278.2672330
  energy:             90.0297061

- temperature:       250.0000000
  free_energy:         4.0138257
  entropy:           355.2578154
  heat_capacity:     281.3954606
  energy:             92.8282796

- temperature:       260.0000000
  free_energy:         0.4055144
  entropy:           366.3504718
  heat_capacity:     284.2300473
  energy:             95.6566371

- temperature:       270.0000000
  free_energy:        -3.3121282
  entropy:           377.1264541
  heat_capacity:     286.8046642
  energy:             98.5120145

- temperature:       280.0000000
  free_energy:        -7.1360062
  entropy:           387.5998861
  heat_capacity:     289.1486110
  energy:            101.3919619

- temperature:       290.0000000
  free_energy:       -11.0631628
  entropy:           397.7843655
  heat_capacity:     291.2874167
  energy:            104.2943032

- temperature:       300.0000000
  free_energy:       -15.0907738
  entropy:           407.6929161
  heat_capacity:     293.2433613
  energy:            107.2171010

- temperature:       310.0000000
  free_energy:       -19.2161428
  entropy:           417.3379643
  heat_capacity:     295.0359250
  energy:            110.1586261

- temperature:       320.0000000
  free_energy:       -23.4366943
  entropy:           426.7313321
  heat_capacity:     296.6821744
  energy:            113.1173320

- temperature:       330.0000000
  free_energy:       -27.7499680
  entropy:           435.8842426
  heat_capacity:     298.1970933
  energy:            116.0918320

- temperature:       340.0000000
  free_energy:       -32.1536131
  entropy:           444.8073334
  heat_capacity:     299.5938657
  energy:            119.0808802

- temperature:       350.0000000
  free_energy:       -36.6453822
  entropy:           453.5106762
  heat_capacity:     300.8841177
  energy:            122.0833544

- temperature:       360.0000000
  free_energy:       -41.2231260
  entropy:           462.0037996
  heat_capacity:     302.0781243
  energy:            125.0982419

- temperature:       370.0000000
  free_energy:       -45.8847876
  entropy:           470.2957139
  heat_capacity:     303.1849872
  energy:            128.1246266

- temperature:       380.0000000
  free_energy:       -50.6283980
  entropy:           478.3949373
  heat_capacity:     304.2127858
  energy:            131.1616782

- temperature:       390.0000000
  free_energy:       -55.4520709
  entropy:           486.3095223
  heat_capacity:     305.1687086
  energy:            134.2086428

- temperature:       400.0000000
  free_energy:       -60.3539984
  entropy:           494.0470815
  heat_capacity:     306.0591644
  energy:            137.2648342

- temperature:       410.0000000
  free_energy:       -65.3324465
  entropy:           501.6148134
  heat_capacity:     306.8898795
  energy:            140.3296270

- temperature:       420.0000000
  free_energy:       -70.3857513
  entropy:           509.0195265
  heat_capacity:     307.6659806
  energy:            143.4024498

- temperature:       430.0000000
  free_energy:       -75.5123151
  entropy:           516.2676630
  heat_capacity:     308.3920669
  energy:            146.4827799

- temperature:       440.0000000
  free_energy:       -80.7106030
  entropy:           523.3653211
  heat_capacity:     309.0722727
  energy:            149.5701383

- temperature:       450.0000000
  free_energy:       -85.9791393
  entropy:           530.3182759
  heat_capacity:     309.7103212
  energy:            152.6640849

- temperature:       460.0000000
  free_energy:       -91.3165045
  entropy:           537.1319997
  heat_capacity:     310.3095720
  energy:            155.7642154

- temperature:       470.0000000
  free_energy:       -96.7213325
  entropy:           543.8116801
  heat_capacity:     310.8730620
  energy:            158.8701572

- temperature:       480.0000000
  free_energy:      -102.1923077
  entropy:           550.3622381
  heat_capacity:     311.4035409
  energy:            161.9815666

- temperature:       490.0000000
  free_energy:      -107.7281624
  entropy:           556.7883443
  heat_capacity:     311.9035033
  energy:            165.0981263

- temperature:       500.0000000
  free_energy:      -113.3276745
  entropy:           563.0944342
  heat_capacity:     312.3752156
  energy:            168.2195425

- temperature:       510.0000000
  free_energy:      -118.9896651
  entropy:           569.2847225
  heat_capacity:     312.8207405
  energy:            171.3455433

- temperature:       520.0000000
  free_energy:      -124.7129964
  entropy:           575.3632168
  heat_capacity:     313.2419582
  energy:            174.4758764

- temperature:       530.0000000
  free_energy:      -130.4965695
  entropy:           581.3337297
  heat_capacity:     313.6405852
  energy:            177.6103072

- temperature:       540.0000000
  free_energy:      -136.3393231
  entropy:           587.1998910
  heat_capacity:     314.0181908
  energy:            180.7486180

- temperature:       550.0000000
  free_energy:      -142.2402311
  entropy:           592.9651579
  heat_capacity:     314.3762122
  energy:            183.8906058

- temperature:       560.0000000
  free_energy:      -148.1983010
  entropy:           598.6328256
  heat_capacity:     314.7159667
  energy:            187.0360814

- temperature:       570.0000000
  free_energy:      -154.2125727
  entropy:           604.2060368
  heat_capacity:     315.0386642
  energy:            190.1848683

- temperature:       580.0000000
  free_energy:      -160.2821169
  entropy:           609.6877903
  heat_capacity:     315.3454168
  energy:            193.3368015

- temperature:       590.0000000
  free_energy:      -166.4060332
  entropy:           615.0809493
  heat_capacity:     315.6372484
  energy:            196.4917269

- temperature:       600.0000000
  free_energy:      -172.5834497
  entropy:           620.3882493
  heat_capacity:     315.9151029
  energy:            199.6494999

- temperature:       610.0000000
  free_energy:      -178.8135208
  entropy:           625.6123049
  heat_capacity:     316.1798512
  energy:            202.8099852

- temperature:       620.0000000
  free_energy:      -185.0954266
  entropy:           630.7556170
  heat_capacity:     316.4322980
  energy:            205.9730559

- temperature:       630.0000000
  free_energy:      -191.4283719
  entropy:           635.8205788
  heat_capacity:     316.6731878
  energy:            209.1385927

- temperature:       640.0000000
  free_energy:      -197.8115847
  entropy:           640.8094815
  heat_capacity:     316.9032099
  energy:            212.3064835

- temperature:       650.0000000
  free_energy:      -204.2443154
  entropy:           645.7245202
  heat_capacity:     317.1230037
  energy:            215.4766228

- temperature:       660.0000000
  free_energy:      -210.7258359
  entropy:           650.5677990
  heat_capacity:     317.3331622
  energy:            218.6489114

- temperature:       670.0000000
  free_energy:      -217.2554389
  entropy:           655.3413353
  heat_capacity:     317.5342366
  energy:            221.8232558

- temperature:       680.0000000
  free_energy:      -223.8324366
  entropy:           660.0470650
  heat_capacity:     317.7267395
  energy:            224.9995676

- temperature:       690.0000000
  free_energy:      -230.4561604
  entropy:           664.6868463
  heat_capacity:     317.9111480
  energy:            228.1777636

- temperature:       700.0000000
  free_energy:      -237.1259597
  entropy:           669.2624639
  heat_capacity:     318.0879067
  energy:            231.3577650

- temperature:       710.0000000
  free_energy:      -243.8412015
  entropy:           673.7756325
  heat_capacity:     318.2574304
  energy:            234.5394976

- temperature:       720.0000000
  free_energy:      -250.6012696
  entropy:           678.2280007
  heat_capacity:     318.4201063
  energy:            237.7228908

- temperature:       730.0000000
  free_energy:      -257.4055641
  entropy:           682.6211537
  heat_capacity:     318.5762960
  energy:            240.9078781

- temperature:       740.0000000
  free_energy:      -264.2535004
  entropy:           686.9566171
  heat_capacity:     318.7263379
  energy:            244.0943963

- temperature:       750.0000000
  free_energy:      -271.1445091
  entropy:           691.2358593
  heat_capacity:     318.8705487
  energy:            247.2823854

- temperature:       760.0000000
  free_energy:      -278.0780349
  entropy:           695.4602944
  heat_capacity:     319.0092251
  energy:            250.4717888

- temperature:       770.0000000
  free_energy:      -285.0535368
  entropy:           699.6312847
  heat_capacity:     319.1426451
  energy:            253.6625524

- temperature:       780.0000000
  free_energy:      -292.0704869
  entropy:           703.7501435
  heat_capacity:     319.2710698
  energy:            256.8546250

- temperature:       790.0000000
  free_energy:      -299.1283701
  entropy:           707.8181368
  heat_capacity:     319.3947442
  energy:            260.0479580

- temperature:       800.0000000
  free_energy:      -306.2266841
  entropy:           711.8364862
  heat_capacity:     319.5138986
  energy:            263.2425049

- temperature:       810.0000000
  free_energy:      -313.3649383
  entropy:           715.8063703
  heat_capacity:     319.6287495
  energy:            266.4382216

- temperature:       820.0000000
  free_energy:      -320.5426538
  entropy:           719.7289268
  heat_capacity:     319.7395008
  energy:            269.6350662

- temperature:       830.0000000
  free_energy:      -327.7593628
  entropy:           723.6052546
  heat_capacity:     319.8463444
  energy:            272.8329986

- temperature:       840.0000000
  free_energy:      -335.0146083
  entropy:           727.4364154
  heat_capacity:     319.9494612
  energy:            276.0319807

- temperature:       850.0000000
  free_energy:      -342.3079439
  entropy:           731.2234352
  heat_capacity:     320.0490218
  energy:            279.2319760

- temperature:       860.0000000
  free_energy:      -349.6389332
  entropy:           734.9673058
  heat_capacity:     320.1451871
  energy:            282.4329498

- temperature:       870.0000000
  free_energy:      -357.0071494
  entropy:           738.6689866
  heat_capacity:     320.2381092
  energy:            285.6348689

- temperature:       880.0000000
  free_energy:      -364.4121754
  entropy:           742.3294057
  heat_capacity:     320.3279318
  energy:            288.8377016

- temperature:       890.0000000
  free_energy:      -371.8536030
  entropy:           745.9494614
  heat_capacity:     320.4147905
  energy:            292.0414177

- temperature:       900.0000000
  free_energy:      -379.3310330
  entropy:           749.5300233
  heat_capacity:     320.4988139
  energy:            295.2459880

- temperature:       910.0000000
  free_energy:      -386.8440746
  entropy:           753.0719335
  heat_capacity:     320.5801236
  energy:            298.4513849

- temperature:       920.0000000
  free_energy:      -394.3923455
  entropy:           756.5760080
  heat_capacity:     320.6588348
  energy:            301.6575818

- temperature:       930.0000000
  free_energy:      -401.9754713
  entropy:           760.0430372
  heat_capacity:     320.7350567
  energy:            304.8645533

- temperature:       940.0000000
  free_energy:      -409.5930853
  entropy:           763.4737876
  heat_capacity:     320.8088927
  energy:            308.0722750

- temperature:       950.0000000
  free_energy:      -417.2448286
  entropy:           766.8690022
  heat_capacity:     320.8804410
  energy:            311.2807235

- temperature:       960.0000000
  free_energy:      -424.9303493
  entropy:           770.2294019
  heat_capacity:     320.9497950
  energy:            314.4898765

- temperature:       970.0000000
  free_energy:      -432.6493029
  entropy:           773.5556859
  heat_capacity:     321.0170430
  energy:            317.6997124

- temperature:       980.0000000
  free_energy:      -440.4013516
  entropy:           776.8485329
  heat_capacity:     321.0822693
  energy:            320.9102106

- temperature:       990.0000000
  free_energy:      -448.1861643
  entropy:           780.1086016
  heat_capacity:     321.1455538
  energy:            324.1213513

- temperature:      1000.0000000
  free_energy:      -456.0034165
  entropy:           783.3365320
  heat_capacity:     321.2069726
  energy:            327.3331155
