4
Lattice="3.3095427761908818 0.0006577808020732486 0.005006762745298782 -0.0006060965108730282 5.008487722385352 -0.0041801271509411585 -0.010165008870378828 0.0029321627298184304 5.028299466830528" Properties=species:S:1:pos:R:3:forces:R:3 structure_index=0 total_energy=-13.040994644165039 stress="-0.04120803624391556 0.0005846346612088382 -0.004268397577106953 0.000584638852160424 0.0172844547778368 -0.0010854266583919525 -0.00426837895065546 -0.0010853701969608665 -0.0891229659318924" pbc="T T T"
Li       1.92985337       0.97966725       1.30039073      -0.00001126      -0.00000643       0.03926444
Li       1.92317677       3.48533727       4.37136764       0.00022559      -0.00017561      -0.04079851
Sn       0.27473847       3.48382027       1.81738176      -0.00161429      -0.00017084       0.02537902
Sn       0.26905868       0.98029126       3.84780825       0.00139997       0.00035288      -0.02384496
16
Lattice="5.6115516074722045 0.0018958356599790911 -0.00025258302764369123 -0.004944083627334415 6.2943044518265046 0.284421484217437 -0.0005296053794688232 0.1863515686107257 10.661173198227983" Properties=species:S:1:pos:R:3:forces:R:3 structure_index=1 total_energy=-54.754905700683594 stress="0.013363396748900414 -0.00021502244635485113 -2.9568122954515275e-06 -0.00021498120622709394 -0.0015615983866155148 -0.005911911837756634 -2.9568122954515275e-06 -0.005911864340305328 0.0004635644145309925" pbc="T T T"
Li       3.51306193       4.87812137       2.99891428       0.01666842       0.00376790      -0.01275172
Li       1.57135028       2.49194720       4.46563274       0.01255031      -0.00365411       0.00090449
Li       1.63974696       5.79740685       9.89417935      -0.00725804       0.00531082      -0.00354996
Li       0.67188760       2.58547600       9.79683047      -0.01334362      -0.00226900       0.00015198
Li       0.59138126       5.70034793       4.56213426       0.00983715       0.00587386      -0.00397360
Li       4.33988473       4.98812529       8.32668285      -0.01938296      -0.00322517      -0.01122503
Sn       3.43350221       1.81755441       8.35229344      -0.01888025      -0.00315810       0.00378246
Sn       4.33265233       3.43148258       5.69151119       0.00740730       0.00496479      -0.00038160
Sn       1.47647915       4.15578915       7.18693027      -0.00166094      -0.00235128       0.00447648
Sn       1.62824689       0.87683508       1.64376223       0.01989993       0.01068171       0.01524764
Sn       3.33852711       0.13156090       5.53652138      -0.00079121      -0.00948706      -0.00678851
Sn       0.76444940       4.05719795       1.85278211      -0.00017390      -0.00084101       0.00622780
Sn       4.41664002       1.71706248       3.02413513       0.02170008      -0.00252582       0.00184478
Sn       0.61190237       0.97390351       6.97256704      -0.01738065       0.00931530       0.01524185
Sn       3.52822290       3.34456495       0.36154063      -0.01320704       0.00093083      -0.00306062
Sn       4.51269801       0.04783730       0.20665237       0.00401542      -0.01333367      -0.00614645
8
Lattice="4.794618564777943 -0.0022205304773205256 0.003439823139069678 0.002526959962987748 5.602936666065831 0.04242972036867109 -0.004153560991539079 -0.22274760776163202 5.598860358806864" Properties=species:S:1:pos:R:3:forces:R:3 structure_index=2 total_energy=-22.075206756591797 stress="0.016217170283198357 -0.0002028496382990852 -0.00020095349464099854 -0.00020290777320042253 0.019215408712625504 0.0096109164878726 -0.0002009242307394743 0.009611178189516068 0.020610790699720383" pbc="T T T"
Li       3.63979771       3.56047957       5.38449395       0.00029384       0.01397419       0.01159598
Li       3.64213726       0.88094809       0.37392630       0.00012496       0.00383046      -0.00019528
Li       3.64212042       4.28699073       2.50952603       0.00015846       0.00017266       0.00769901
Li       1.24306890       2.66662473       4.43807693      -0.00049544      -0.01417791      -0.01158458
Li       1.24452916       2.16186375       1.71429784       0.00002364      -0.00065067      -0.00710582
Li       1.24203156      -0.03462717       3.80903300      -0.00001877      -0.00346933      -0.00051077
Sn       1.24625806       4.97463514       1.02978955      -0.00000135      -0.01618417      -0.01490055
Sn       3.64054162       1.47401868       3.19521799      -0.00008537       0.01650480       0.01500199
18
Lattice="4.961671748092 -0.009191457846331843 2.30555363849527 1.6612112771688061 6.979883502070379 4.705374166787472 0.04994928090779718 -0.0012211826518044521 9.307944646945183" Properties=species:S:1:pos:R:3:forces:R:3 structure_index=3 total_energy=-45.78429412841797 stress="0.013720311224460602 -0.00640771584585309 0.009743904694914818 -0.006407765671610832 -0.01912381686270237 0.002232421189546585 0.009744334034621716 0.00223270314745605 0.016229014843702316" pbc="T T T"
Li       3.25341290       4.42088145       7.13512309       0.01327713      -0.00070010      -0.01353209
Li       4.94321374       6.75594446      11.82521457       0.02233625      -0.00483831      -0.01287211
Li       4.93714167       2.14686312       6.97608184       0.00061115      -0.00085985      -0.00252960
Li       1.59083470       2.05747850       2.36626250       0.00130559       0.00173589       0.00270813
Li       6.54324242       6.70824264      13.90364682      -0.01040477       0.00673914       0.00960733
Li       1.69876643       4.47021806       9.45739848       0.00500293      -0.00675507      -0.01264176
Li       1.78278638       4.47115550       4.55669140      -0.00622173       0.00603582       0.02464463
Li       4.86757027       4.40292196       9.25414720      -0.00903187      -0.00362353       0.02831664
Li       3.37483280       6.77792342      14.09598526       0.00937901       0.00389678      -0.02585791
Li       4.93015633       6.76046423       6.91359246      -0.01014117      -0.00035007       0.01362931
Li       3.26323240       2.10106678       4.67088410       0.00001542      -0.00144921       0.00054252
Li       6.40934832       6.71217560       9.48701323       0.00462674      -0.00633445      -0.02399838
Li       5.05693811       2.22335695      11.66448191       0.01240782       0.00113872       0.00713405
Li       1.52227100       1.97339069       6.98620737      -0.01262264       0.00178411      -0.00766285
Li       3.30804769       4.42807364      11.52757826      -0.02726141       0.00243428       0.01659391
Sn       3.29002736       2.10065816       9.32567202      -0.00028111      -0.00160955       0.00001629
Sn       4.84814624       4.39430307       4.71703418      -0.00431861      -0.04031631       0.00108244
Sn       3.33854834       6.78646224       9.33378103       0.01132132       0.04307178      -0.00518054
20
Lattice="6.482186814966976 -0.004964025823549744 0.003181823662082716 -1.6229388449254676 7.92105017664832 -2.1180367675161214 0.007056040023749259 -0.05720638197848836 8.696319999519234" Properties=species:S:1:pos:R:3:forces:R:3 structure_index=4 total_energy=-66.40000915527344 stress="-0.004302810877561569 -0.0007364648627117276 0.0007090005092322826 -0.000736461952328682 -0.012342996895313263 -0.005516821518540382 0.0007090028375387192 -0.0055167037062346935 0.0062329769134521484" pbc="T T T"
Li       3.35973929       1.33649998       0.63272835      -0.00050201      -0.02259995      -0.00423201
Li       3.35000736       1.40876010       4.94743878       0.00138453      -0.00659337       0.00534388
Li       0.12444642       4.46253834       5.00137941      -0.00469172       0.01315659      -0.00935023
Li       0.11641530       4.47563070       0.61939607      -0.00325364       0.01142462       0.00831611
Li       0.09652283       1.40622118       0.61788920       0.00068728      -0.03997196       0.00083928
Li       3.34305029       4.44217809       0.62255680       0.00290922       0.02278034       0.00778165
Li       0.10152436       1.48658970       4.95105831       0.00180681       0.00919247       0.00217197
Li       3.34373063       4.44416103       4.99632617       0.00287268       0.02191525      -0.00357630
Li       4.96262147       6.14942058       2.81623191      -0.00073702       0.00476340      -0.00508325
Sn       0.06801785       7.71537675       0.72832076       0.01468236       0.01529435      -0.00175447
Sn       4.95296225       6.06074148      -1.51355393       0.01137087      -0.01033260       0.00261885
Sn       1.73752321       6.10826627      -1.51103751      -0.01178469      -0.02458738      -0.00644697
Sn       4.97153639       3.06186136       2.80125891       0.00198303      -0.03617054      -0.00449744
Sn       0.08444098       7.70049183       4.94308121       0.01234801       0.01290860       0.00242920
Sn       3.37515620       7.70074896       4.93360695      -0.00887223       0.00420761       0.00816777
Sn       1.73809182       6.02770422       2.81042266       0.00259748       0.00313410      -0.00278632
Sn       1.73874490       2.90046884       7.15537995      -0.00447162      -0.00095033       0.00097193
Sn       1.74054743       2.92396345       2.78829782      -0.00553725       0.02126218      -0.00178964
Sn       3.36981066       7.81645299       0.72402820      -0.01640363       0.00450247      -0.00564307
Sn       4.96726707       2.87699462       7.15278781       0.00361156      -0.00333583       0.00651904
4
Lattice="3.9862995335979625 -0.0013045938555963606 -1.6816431036537938 -0.7068315417953087 3.926377718620388 -1.6720016418898471 -0.01922239752326153 -0.03019383572151021 5.505256355748525" Properties=species:S:1:pos:R:3:forces:R:3 structure_index=5 total_energy=-13.026741981506348 stress="0.025357989594340324 0.020604489371180534 0.030725661665201187 0.020604506134986877 0.023675035685300827 0.045032039284706116 0.030725758522748947 0.04503209516406059 0.06379039585590363" pbc="T T T"
Li       0.07647278       1.14281250       0.94925992       0.00063846       0.00082812       0.00180242
Li       2.88183325       2.11015345       2.02489609      -0.00118583      -0.00119748      -0.00212496
Sn       1.71300728       3.10130940      -0.73119454       0.00724939       0.00792598       0.00753637
Sn       1.24451494       0.15103425       3.70458143      -0.00670202      -0.00755661      -0.00721384
12
Lattice="4.497302457119311 0.001356770447026402 -0.0024827270372629272 -0.002170096843348746 5.991853085575384 0.11728549049950979 0.0029677343257107683 -0.046246508386849655 9.550850472866253" Properties=species:S:1:pos:R:3:forces:R:3 structure_index=6 total_energy=-38.90566635131836 stress="0.020607849583029747 -0.00021607504459097981 -0.0009281104430556297 -0.00021613598801195621 -0.004547152668237686 0.0004631986084859818 -0.0009281107340939343 0.0004632217460311949 -0.029406968504190445" pbc="T T T"
Li       4.02008233       4.45850285       8.54767720      -0.00013207       0.00826989       0.02043035
Li       4.01767659       1.57334514       2.04934176       0.00056632       0.03560919       0.00006464
Li       1.76967916       0.05297972       0.40662656       0.00022696      -0.00585642       0.00614964
Li       4.01979255       1.43512546       5.47159270      -0.00009248       0.00734285      -0.00376697
Li       1.77027381       2.97036054       6.99882957       0.00044513      -0.00158304      -0.02145711
Li       1.76876019       5.89939463       3.95683346      -0.00018987      -0.03103915      -0.00478677
Sn       4.01792026       4.42016588       5.42866255       0.00033281       0.00426522      -0.02649473
Sn       1.77029555       2.85203857       3.80201401      -0.00068498      -0.01478062      -0.03099319
Sn       4.01673629       4.62321934       2.20163521       0.00055998       0.01496500       0.02357211
Sn       1.76939899       3.06350691       0.56506801      -0.00025407      -0.01231725       0.03530491
Sn       4.02174460       1.47928612       8.49461236      -0.00108466      -0.00377304       0.01451609
Sn       1.76967226       5.95654557       7.05439655       0.00030692      -0.00110263      -0.01253900
10
Lattice="4.55381617120665 -0.07282695923830936 1.3756515753078635 0.07635816067196106 4.691759169723682 0.025828170004023033 -0.1333324806121073 -0.05684293524138003 8.648875123267288" Properties=species:S:1:pos:R:3:forces:R:3 structure_index=7 total_energy=-29.095809936523438 stress="0.013923070393502712 0.01639617793262005 -0.024358199909329414 0.01639612205326557 -0.0074850087985396385 -0.021498581394553185 -0.024358365684747696 -0.021498896181583405 0.028362086042761803" pbc="T T T"
Li       4.38126178       3.87624365       8.13791801      -0.00103102      -0.02350749      -0.00186647
Li       2.06171952       1.53107296       7.43995772       0.00262892       0.00628448      -0.00197995
Li       2.97074275       1.55886396       4.44075398      -0.00201966      -0.00558005       0.00376748
Li       0.73380129       3.90648771       3.77055544      -0.00238307       0.02121478       0.00259294
Li       3.48826054       3.93219832       2.89235602      -0.00516246      -0.02807719       0.00446701
Li       1.62837671       3.85014746       9.01745522       0.00364061       0.02669878      -0.00538246
Li       0.23804984       1.58149179       5.25267750       0.00102832       0.00064648      -0.00035649
Sn       2.55647101       3.89080388       5.95422456       0.00228112       0.00029619      -0.00003502
Sn       3.85129818       1.53412473       9.74422786       0.00036692      -0.02003923      -0.01067863
Sn       1.18193215       1.55579904       2.13776440       0.00065030       0.02206323       0.00947166
4
Lattice="4.000382638159217 -0.005846486272667429 -1.6513484223391515 -0.6728400069138388 3.950714992002367 -1.6330716731927333 -0.06763582829293803 -0.09900093541297479 5.489800596363243" Properties=species:S:1:pos:R:3:forces:R:3 structure_index=8 total_energy=-13.02692699432373 stress="-0.03901447355747223 0.008839809335768223 0.014247854240238667 0.008839749731123447 -0.03182672709226608 0.02396695502102375 0.014247841201722622 0.023966999724507332 -0.02621360495686531" pbc="T T T"
Li       0.15562925       1.07361019       1.00402038       0.00030017      -0.00365814      -0.00318334
Li       2.95282345       1.99923402       2.09536255       0.00023855       0.00397724       0.00206083
Sn       1.28844468       0.03220546       3.74062159       0.00245790      -0.00198762       0.00026989
Sn       1.82043320       3.04079336      -0.64291090      -0.00299662       0.00166853       0.00085262
5
Lattice="4.229241294727193 -0.003240428315402184 1.985393373559977 2.3861869713693653 4.001071599921149 0.4207572738170542 0.0565715234865666 -0.6049058683586733 5.37595939708481" Properties=species:S:1:pos:R:3:forces:R:3 structure_index=9 total_energy=-13.38443374633789 stress="0.012971245683729649 0.02442535012960434 -0.011290517635643482 0.0244256891310215 -0.03664872795343399 -0.0521526001393795 -0.011290313675999641 -0.05215299129486084 0.03233277425169945" pbc="T T T"
Li       4.41324428       1.19416607       4.53986651      -0.00652965       0.05798860       0.01362743
Li       5.06347723       3.75335749       3.15823902       0.00661467      -0.05792677      -0.01354679
Li       3.25954949       2.23880624       1.50138479      -0.00352241       0.01848247       0.00781003
Li       1.98802524       2.71202821       4.21141775       0.00347915      -0.01855353      -0.00790030
Sn       1.45899158       0.17241737       5.33397710      -0.00004174       0.00000919       0.00000962
15
Lattice="6.763663973689454 -0.0013529657609264473 0.003972580617593243 0.0012486178958020784 6.457977137376072 -0.0004230639348029193 -0.002511992086825223 -0.000182813869068655 6.768570136583867" Properties=species:S:1:pos:R:3:forces:R:3 structure_index=10 total_energy=-41.44466781616211 stress="0.006507068872451782 8.692240953678265e-05 0.0024704555980861187 8.678589074406773e-05 -0.025176117196679115 7.173201993282419e-06 0.0024704262614250183 7.2848670242819935e-06 0.019616808742284775" pbc="T T T"
Li       5.07780674       6.01377263       4.66061951       0.01151494       0.00580666       0.01273157
Li       5.07781194       3.04555561       4.66274290       0.01103741      -0.00586387       0.01096684
Li       5.07642771       6.01292767       0.95137131       0.01248445       0.00617888      -0.01349951
Li       1.36759929       6.01422892       4.65899173      -0.01289599       0.00575794       0.01249712
Li       1.36868620       6.01345268       0.94692000      -0.01060718       0.00581640      -0.01232228
Li       5.07494971       3.04433229       0.95194332       0.01245509      -0.00486638      -0.01329464
Li       3.22062518       1.30046469       2.80565285      -0.00038252       0.00034494       0.00021230
Li       3.22031250       1.29986544       6.18823304       0.00040276       0.00055458       0.00060163
Li       1.36920411       3.04681685       0.94619841      -0.01193382      -0.00601671      -0.01099965
Li       1.36620123       3.04612461       4.65932853      -0.01128178      -0.00590247       0.01307443
Li       6.60460446       1.30104288       2.80619619      -0.00065025      -0.00095840      -0.00071400
Sn       3.22138729       4.52984298       2.80606738       0.00103047      -0.00056428      -0.00072128
Sn       6.60508472       4.52863644       2.80582039       0.00002336       0.00011070       0.00167622
Sn       3.22184961       4.52971827       6.18687506      -0.00092982       0.00026907       0.00064357
Sn       6.60247776       1.29986174       6.19233942      -0.00026714      -0.00066705      -0.00085235
4
Lattice="4.6524702982162465 -0.0003173290349408454 0.0006794238398959896 0.0015659804105055632 4.65055416090725 0.0010994584905534707 -0.00013791572855332716 -0.0002241742360323055 4.650170628582366" Properties=species:S:1:pos:R:3:forces:R:3 structure_index=11 total_energy=-14.441826820373535 stress="-0.014389806427061558 0.002429290907457471 0.0010555265471339226 0.0024293444585055113 -0.019558683037757874 0.0017141413409262896 0.001055456232279539 0.0017140759155154228 -0.020604591816663742" pbc="T T T"
Li       2.94865564       4.21804955       3.67239504      -0.00047351      -0.00022718      -0.00035587
Sn       0.61982342       4.21747857       1.34686654       0.00197427       0.00051242      -0.00030252
Sn       0.62283008       1.89137410       3.67096042      -0.00188549       0.00109856       0.00000336
Sn       2.94684773       1.89380809       1.34570026       0.00038472      -0.00138380       0.00065504
12
Lattice="4.562497702785748 0.00801477598978769 -0.004204475816347726 -0.00962243422613881 5.834255484378874 -0.00853259474864601 0.007823605488314535 0.008061114969203581 8.556056260481212" Properties=species:S:1:pos:R:3:forces:R:3 structure_index=12 total_energy=-35.55972671508789 stress="-0.023890100419521332 -0.0007388328667730093 5.655389031744562e-05 -0.0007387257064692676 -0.021874895319342613 0.00031316594686359167 5.644766861223616e-05 0.0003130506374873221 -0.01250070333480835" pbc="T T T"
Li       2.63274015       0.07843192       8.09310628      -0.00001125      -0.01693325       0.04481018
Li       2.61995612       5.26183405       2.42641380      -0.00083642      -0.01788885       0.04312759
Li       2.62710065       2.33775571       5.06988766      -0.00093322      -0.01239359      -0.04176802
Li       0.34160766       3.54271421       3.81606862       0.00054881       0.01536449       0.04256857
Li       2.62797532       2.99483174       7.96730635      -0.00032395      -0.01610236      -0.04645837
Li       0.34244605       4.19503372       6.71002103       0.00138254       0.01309814       0.04291933
Li       0.34195150       1.27172286       0.79500637       0.00131985       0.01684542      -0.04124870
Li       0.34705568       0.62356372       3.69367987      -0.00032005       0.01769457      -0.04508461
Sn       0.33891009       4.19496945       1.02851846      -0.00066226       0.00470820       0.02839223
Sn       0.34880127       1.28089469       6.47786908      -0.00090186       0.00423538      -0.02892541
Sn       2.62328638       2.33794141       2.19655382       0.00019727      -0.00584197      -0.02862072
Sn       2.62115590       5.25191072       5.30055506       0.00054054      -0.00278619       0.03028797
8
Lattice="4.854187180634513 -0.0022697249127558504 0.0021609057580165947 0.0031163379797481674 5.196926354008879 -2.9924432663882277 -0.0029800804486448938 -0.009887246962047678 5.997582527620101" Properties=species:S:1:pos:R:3:forces:R:3 structure_index=13 total_energy=-22.157779693603516 stress="-0.04963726922869682 -0.001345076714642346 -0.001454754383303225 -0.0013451348058879375 -0.012750213965773582 -0.0019655830692499876 -0.0014548347098752856 -0.0019654484931379557 -0.00889634620398283" pbc="T T T"
Li       2.34848997       4.13185356      -0.88077465       0.00038144      -0.01802497      -0.02985720
Li       2.34782450       4.12622127       2.27823241      -0.00014880      -0.01725048       0.03030198
Li       4.77509731       3.21745088       0.69795308       0.00023675      -0.03566773       0.00001314
Li       2.34594253       1.66646044       3.69553046       0.00007509       0.03497987      -0.00075398
Li       4.77304218       0.75252664       5.27322967      -0.00083975       0.01693949       0.03054100
Li       4.77309959       0.75630141       2.11456378       0.00064102       0.01886680      -0.03041359
Sn       2.34794340       1.57886579       0.69634907      -0.00039859       0.00026063       0.00019493
Sn       4.77336963       3.30464733       3.69642580       0.00005282      -0.00010362      -0.00002626
20
Lattice="4.5744523157630494 -0.01418324402719157 0.006250633694605587 0.014599423939693676 4.573374753504562 0.0054607333181814054 -0.030151831460920583 -0.02600723255519423 23.307715800913442" Properties=species:S:1:pos:R:3:forces:R:3 structure_index=14 total_energy=-70.29703521728516 stress="0.010131347924470901 0.0006751740584149957 -0.00029123295098543167 0.0006751941982656717 0.006291902624070644 -3.533201015670784e-05 -0.0002912529744207859 -3.5281213058624417e-05 0.014885401353240013" pbc="T T T"
Li       3.91077581       0.55229072      15.85677316      -0.00061330       0.00001512       0.02130993
Li       1.62790143       0.55854646       5.02728775      -0.00022433       0.00119165      -0.00862737
Li       3.92116582       2.84552179      13.43658224      -0.00089914      -0.00139671      -0.03525781
Li       3.91109831       0.55247956       7.11536620       0.00045734      -0.00018755       0.00803572
Li       3.91517348       2.83907889       9.15612438       0.00013705      -0.00065818      -0.01538097
Li       1.62240271       0.56078547       9.09055908      -0.00027399      -0.00061814       0.00364408
Sn       1.61666072       0.54983785      18.10514497       0.00066124       0.00089704      -0.01867469
Sn       1.62018343       2.83172891      20.73885728      -0.00011450      -0.00008351      -0.00345038
Sn       1.63955375       2.84584629       2.65958718       0.00006052       0.00028404       0.00265248
Sn       1.63102129       2.84809765      15.71260374      -0.00092790      -0.00198233      -0.02179563
Sn       1.62822870       2.84584109      11.25508811      -0.00005946       0.00107343       0.01035289
Sn       3.91934169       0.55189751       2.75032930      -0.00019116       0.00014745       0.04872025
Sn       3.92191294       2.83895057       5.22148879      -0.00030067       0.00038680      -0.00388455
Sn       3.90724315       0.55127303      11.17288252       0.00205623       0.00120367      -0.01079423
Sn       1.62564041       0.56421813      13.56980287      -0.00103750      -0.00135423      -0.01397372
Sn       3.91146671       2.82877659      18.10373194       0.00053373       0.00132962      -0.02922464
Sn       3.93264108       2.84342764       0.11813684       0.00007081       0.00030530       0.01248249
Sn       3.89981907       0.53775621      20.78609727       0.00013575      -0.00003503      -0.00344726
Sn       1.63122920       2.84732690       7.19377700       0.00081658      -0.00070273       0.03678082
Sn       1.60845335       0.53789578      23.33589853      -0.00028729       0.00018428       0.02053260
16
Lattice="5.5850693460313 -0.0067305015714440785 -0.00037906328136927593 0.011082663062484665 5.84076392329978 0.006171306941105425 -0.0044676646534564015 -0.010307796488465366 9.295596558672553" Properties=species:S:1:pos:R:3:forces:R:3 structure_index=15 total_energy=-43.759307861328125 stress="0.002486121840775013 -0.000136862276121974 -0.00034434409462846816 -0.0001367739459965378 0.014365090988576412 3.190138886566274e-05 -0.0003440621367190033 3.20032486342825e-05 0.019699441269040108" pbc="T T T"
Li       4.82883381       4.48024036       0.85422703      -0.04221332      -0.02341866      -0.00148000
Li       0.39141686       3.04762459       7.87095740      -0.00626151      -0.03827366      -0.00469016
Li       3.18959596       1.87796017       3.12377102      -0.00935460       0.03784516       0.00578665
Li       1.31057843       1.55755342       5.49455197       0.04160981      -0.02569643       0.00076916
Li       2.95351505       4.79277962       7.77579764       0.00777471       0.03755056       0.00514390
Li       3.18213254       1.87094787       7.86683440      -0.00712958       0.03978368      -0.00486296
Li       2.02637247       0.45133737       0.84826791      -0.03980947       0.02566084       0.00056955
Li       2.94944476       4.79808270       3.22660718       0.01032149       0.03872497      -0.00768724
Li       0.15158155       0.12782508       7.77181575       0.00687960      -0.03883030       0.00396835
Li       0.40043440       3.05251349       3.12376868      -0.01029642      -0.03890385       0.00737021
Li       0.14868474       0.13146965       3.21977644       0.01015553      -0.03799469      -0.00550995
Li       4.10695179       3.36298977       5.49528527       0.04325608       0.02314801       0.00190108
Sn       1.27937362       4.40715185       5.50030201       0.03096114       0.02188451       0.00242988
Sn       2.07338041       3.44222048       0.85149434      -0.03433967      -0.02238249      -0.00488960
Sn       4.86004116       1.49021683       0.84924611      -0.03587277       0.02162349      -0.00677076
Sn       4.06382546       0.51152875       5.49309205       0.03431901      -0.02072114       0.00795186
8
Lattice="4.784716280476312 -0.0002425731255708061 -0.002330775434466232 0.0017857161077953888 5.452170976415849 -2.1903691411488584 0.00029246778505021736 0.16053165023379246 5.873206212452983" Properties=species:S:1:pos:R:3:forces:R:3 structure_index=16 total_energy=-24.24765968322754 stress="-0.026004459708929062 0.0004368979425635189 -0.0006789746694266796 0.00043695810018107295 -0.0501854345202446 1.9851924662361853e-05 -0.0006790960323996842 1.9898161554010585e-05 -0.05003894492983818" pbc="T T T"
Li       1.72599145       4.75565660      -1.31975276      -0.00081481      -0.01954117       0.02755184
Li       1.72380699       4.92010420       1.66346958      -0.00053970      -0.02549318       0.00474973
Li       4.11733509       3.24270543       3.76639536      -0.00026406       0.03954343      -0.00958355
Li       4.11606404       0.68845855       2.08844537       0.00012843      -0.00632909      -0.03816423
Li       1.72238459       1.95188642      -0.28411536      -0.00015441       0.00561070       0.02467440
Sn       4.11532583       0.57342335       5.04871914      -0.00116555       0.02315651      -0.03463326
Sn       1.72403545       2.13093121       2.67763066       0.00056148      -0.02786762       0.04248232
Sn       4.11420911       3.38536947       0.76588349       0.00224859       0.01092038      -0.01707724
4
Lattice="3.0995843209433063 0.0005821094481658764 -0.8558361304441867 -0.5181494022572166 4.835825940015725 -1.866620668075456 -0.07403343802772193 0.05480388328236486 5.749263307439105" Properties=species:S:1:pos:R:3:forces:R:3 structure_index=17 total_energy=-12.936752319335938 stress="-0.006016719155013561 0.02348492108285427 0.0013430895050987601 0.0234849713742733 -0.019952381029725075 0.0872889831662178 0.0013430480612441897 0.0872889906167984 -0.002598533174023032" pbc="T T T"
Li       1.25719382       1.58694018      -0.24214621       0.00659386      -0.00612522       0.02276489
Li       1.68341626       4.27588714       1.29746946      -0.00667182       0.00725745      -0.02247666
Sn       0.40775384       1.87733897       2.71787096      -0.00709423       0.01149094      -0.02696712
Sn       2.53267481       3.98774695      -1.66134454       0.00717219      -0.01262316       0.02667890
10
Lattice="4.46264380832658 0.00010740276950328725 -0.0002636336685274864 0.0001303893797236768 7.108248497664458 -0.4041607228359244 0.00024152050271106977 0.037104346064043406 7.25222945029425" Properties=species:S:1:pos:R:3:forces:R:3 structure_index=18 total_energy=-33.99066162109375 stress="-0.010879861190915108 7.999423360161018e-06 -4.995023482479155e-05 8.02811609901255e-06 -0.03247785195708275 -0.0010809354716911912 -5.006532956031151e-05 -0.0010809509549289942 0.0025222846306860447" pbc="T T T"
Li       0.24191196       2.85018379       3.83338230       0.00041680      -0.00665188       0.04467113
Li       2.47330471       3.44398640       1.59370006       0.00010887       0.00637868      -0.04233118
Li       2.47353879       6.38853978       0.00920290       0.00013573      -0.00824001       0.04200245
Li       0.24429915       7.01435547       5.01854012      -0.00095071       0.00683879      -0.04218371
Sn       0.24264965       4.29669159       6.62689550       0.00006815       0.01116230       0.01046809
Sn       2.47389154       4.93211054       4.42661144       0.00006458       0.00010513       0.00028412