phonopy:
  version: "2.37.1"
  frequency_unit_conversion_factor: 15.633302
  symmetry_tolerance: 1.00000e-05

space_group:
  type: "P1"
  number: 1
  Hall_symbol: "P 1"

primitive_matrix:
- [  1.000000000000000, -0.000000000000000,  0.000000000000000 ]
- [  0.000000000000000,  1.000000000000000, -0.000000000000000 ]
- [  0.000000000000000,  0.000000000000000,  1.000000000000000 ]

supercell_matrix:
- [   3,   0,   0 ]
- [   0,   2,   0 ]
- [   0,   0,   2 ]

primitive_cell:
  lattice:
  - [     4.744340321470779,     0.000000000000000,     0.000000000000000 ] # a
  - [     2.371966854400964,     4.953371047290590,     0.000000000000000 ] # b
  - [     2.371542829652372,     0.002049485062732,     7.124801408388803 ] # c
  points:
  - symbol: Li # 1
    coordinates: [  0.552840102471792,  0.756496182810295,  0.332626812682296 ]
    mass: 6.940000
  - symbol: Li # 2
    coordinates: [  0.227551189660091,  0.130635905218455,  0.609358372978677 ]
    mass: 6.940000
  - symbol: Li # 3
    coordinates: [  0.504536555032490,  0.130248798653141,  0.055736608513719 ]
    mass: 6.940000
  - symbol: Li # 4
    coordinates: [  0.192378738992950,  0.826633246629465,  0.983282468624241 ]
    mass: 6.940000
  - symbol: Li # 5
    coordinates: [  0.179332996819444,  0.504002213710617,  0.331991029231433 ]
    mass: 6.940000
  - symbol: Li # 6
    coordinates: [  0.888314455740973,  0.434665711545983,  0.983651814618619 ]
    mass: 6.940000
  - symbol: Li # 7
    coordinates: [  0.539201558618227,  0.434438158431371,  0.682433694420592 ]
    mass: 6.940000
  - symbol: Li # 8
    coordinates: [  0.843588204667177,  0.825600751168428,  0.682267330804046 ]
    mass: 6.940000
  - symbol: Sn # 9
    coordinates: [  0.865896438571251,  0.130156284593295,  0.332892539832705 ]
    mass: 118.710000
  reciprocal_lattice: # without 2pi
  - [     0.210777459507794,    -0.100932706803944,    -0.070129802086106 ] # a*
  - [     0.000000000000000,     0.201882715922722,    -0.000058072581535 ] # b*
  - [     0.000000000000000,     0.000000000000000,     0.140354789232805 ] # c*

unit_cell:
  lattice:
  - [     4.744340321470779,     0.000000000000000,     0.000000000000000 ] # a
  - [     2.371966854400964,     4.953371047290589,     0.000000000000000 ] # b
  - [     2.371542829652372,     0.002049485062732,     7.124801408388803 ] # c
  points:
  - symbol: Li # 1
    coordinates: [  0.552840102471792,  0.756496182810295,  0.332626812682296 ]
    mass: 6.940000
    reduced_to: 1
  - symbol: Li # 2
    coordinates: [  0.227551189660091,  0.130635905218455,  0.609358372978677 ]
    mass: 6.940000
    reduced_to: 2
  - symbol: Li # 3
    coordinates: [  0.504536555032491,  0.130248798653141,  0.055736608513719 ]
    mass: 6.940000
    reduced_to: 3
  - symbol: Li # 4
    coordinates: [  0.192378738992950,  0.826633246629465,  0.983282468624241 ]
    mass: 6.940000
    reduced_to: 4
  - symbol: Li # 5
    coordinates: [  0.179332996819444,  0.504002213710617,  0.331991029231433 ]
    mass: 6.940000
    reduced_to: 5
  - symbol: Li # 6
    coordinates: [  0.888314455740973,  0.434665711545983,  0.983651814618619 ]
    mass: 6.940000
    reduced_to: 6
  - symbol: Li # 7
    coordinates: [  0.539201558618227,  0.434438158431371,  0.682433694420592 ]
    mass: 6.940000
    reduced_to: 7
  - symbol: Li # 8
    coordinates: [  0.843588204667177,  0.825600751168428,  0.682267330804046 ]
    mass: 6.940000
    reduced_to: 8
  - symbol: Sn # 9
    coordinates: [  0.865896438571251,  0.130156284593295,  0.332892539832705 ]
    mass: 118.710000
    reduced_to: 9

supercell:
  lattice:
  - [    14.233020964412336,     0.000000000000000,     0.000000000000000 ] # a
  - [     4.743933708801928,     9.906742094581178,     0.000000000000000 ] # b
  - [     4.743085659304743,     0.004098970125463,    14.249602816777607 ] # c
  points:
  - symbol: Li # 1
    coordinates: [  0.184280034157264,  0.378248091405147,  0.166313406341148 ]
    mass: 6.940000
    reduced_to: 1
  - symbol: Li # 2
    coordinates: [  0.517613367490597,  0.378248091405147,  0.166313406341148 ]
    mass: 6.940000
    reduced_to: 1
  - symbol: Li # 3
    coordinates: [  0.850946700823931,  0.378248091405147,  0.166313406341148 ]
    mass: 6.940000
    reduced_to: 1
  - symbol: Li # 4
    coordinates: [  0.184280034157264,  0.878248091405147,  0.166313406341148 ]
    mass: 6.940000
    reduced_to: 1
  - symbol: Li # 5
    coordinates: [  0.517613367490597,  0.878248091405147,  0.166313406341148 ]
    mass: 6.940000
    reduced_to: 1
  - symbol: Li # 6
    coordinates: [  0.850946700823931,  0.878248091405147,  0.166313406341148 ]
    mass: 6.940000
    reduced_to: 1
  - symbol: Li # 7
    coordinates: [  0.184280034157264,  0.378248091405147,  0.666313406341148 ]
    mass: 6.940000
    reduced_to: 1
  - symbol: Li # 8
    coordinates: [  0.517613367490597,  0.378248091405147,  0.666313406341148 ]
    mass: 6.940000
    reduced_to: 1
  - symbol: Li # 9
    coordinates: [  0.850946700823931,  0.378248091405147,  0.666313406341148 ]
    mass: 6.940000
    reduced_to: 1
  - symbol: Li # 10
    coordinates: [  0.184280034157264,  0.878248091405147,  0.666313406341148 ]
    mass: 6.940000
    reduced_to: 1
  - symbol: Li # 11
    coordinates: [  0.517613367490597,  0.878248091405147,  0.666313406341148 ]
    mass: 6.940000
    reduced_to: 1
  - symbol: Li # 12
    coordinates: [  0.850946700823931,  0.878248091405147,  0.666313406341148 ]
    mass: 6.940000
    reduced_to: 1
  - symbol: Li # 13
    coordinates: [  0.075850396553364,  0.065317952609228,  0.304679186489338 ]
    mass: 6.940000
    reduced_to: 13
  - symbol: Li # 14
    coordinates: [  0.409183729886697,  0.065317952609228,  0.304679186489338 ]
    mass: 6.940000
    reduced_to: 13
  - symbol: Li # 15
    coordinates: [  0.742517063220030,  0.065317952609228,  0.304679186489338 ]
    mass: 6.940000
    reduced_to: 13
  - symbol: Li # 16
    coordinates: [  0.075850396553364,  0.565317952609228,  0.304679186489338 ]
    mass: 6.940000
    reduced_to: 13
  - symbol: Li # 17
    coordinates: [  0.409183729886697,  0.565317952609228,  0.304679186489338 ]
    mass: 6.940000
    reduced_to: 13
  - symbol: Li # 18
    coordinates: [  0.742517063220030,  0.565317952609228,  0.304679186489338 ]
    mass: 6.940000
    reduced_to: 13
  - symbol: Li # 19
    coordinates: [  0.075850396553364,  0.065317952609228,  0.804679186489338 ]
    mass: 6.940000
    reduced_to: 13
  - symbol: Li # 20
    coordinates: [  0.409183729886697,  0.065317952609228,  0.804679186489338 ]
    mass: 6.940000
    reduced_to: 13
  - symbol: Li # 21
    coordinates: [  0.742517063220030,  0.065317952609228,  0.804679186489338 ]
    mass: 6.940000
    reduced_to: 13
  - symbol: Li # 22
    coordinates: [  0.075850396553364,  0.565317952609228,  0.804679186489338 ]
    mass: 6.940000
    reduced_to: 13
  - symbol: Li # 23
    coordinates: [  0.409183729886697,  0.565317952609228,  0.804679186489338 ]
    mass: 6.940000
    reduced_to: 13
  - symbol: Li # 24
    coordinates: [  0.742517063220030,  0.565317952609228,  0.804679186489338 ]
    mass: 6.940000
    reduced_to: 13
  - symbol: Li # 25
    coordinates: [  0.168178851677497,  0.065124399326571,  0.027868304256860 ]
    mass: 6.940000
    reduced_to: 25
  - symbol: Li # 26
    coordinates: [  0.501512185010830,  0.065124399326571,  0.027868304256860 ]
    mass: 6.940000
    reduced_to: 25
  - symbol: Li # 27
    coordinates: [  0.834845518344163,  0.065124399326571,  0.027868304256860 ]
    mass: 6.940000
    reduced_to: 25
  - symbol: Li # 28
    coordinates: [  0.168178851677497,  0.565124399326571,  0.027868304256860 ]
    mass: 6.940000
    reduced_to: 25
  - symbol: Li # 29
    coordinates: [  0.501512185010830,  0.565124399326571,  0.027868304256860 ]
    mass: 6.940000
    reduced_to: 25
  - symbol: Li # 30
    coordinates: [  0.834845518344163,  0.565124399326571,  0.027868304256860 ]
    mass: 6.940000
    reduced_to: 25
  - symbol: Li # 31
    coordinates: [  0.168178851677497,  0.065124399326571,  0.527868304256859 ]
    mass: 6.940000
    reduced_to: 25
  - symbol: Li # 32
    coordinates: [  0.501512185010830,  0.065124399326571,  0.527868304256859 ]
    mass: 6.940000
    reduced_to: 25
  - symbol: Li # 33
    coordinates: [  0.834845518344163,  0.065124399326571,  0.527868304256859 ]
    mass: 6.940000
    reduced_to: 25
  - symbol: Li # 34
    coordinates: [  0.168178851677497,  0.565124399326571,  0.527868304256859 ]
    mass: 6.940000
    reduced_to: 25
  - symbol: Li # 35
    coordinates: [  0.501512185010830,  0.565124399326571,  0.527868304256859 ]
    mass: 6.940000
    reduced_to: 25
  - symbol: Li # 36
    coordinates: [  0.834845518344163,  0.565124399326571,  0.527868304256859 ]
    mass: 6.940000
    reduced_to: 25
  - symbol: Li # 37
    coordinates: [  0.064126246330983,  0.413316623314733,  0.491641234312120 ]
    mass: 6.940000
    reduced_to: 37
  - symbol: Li # 38
    coordinates: [  0.397459579664317,  0.413316623314733,  0.491641234312120 ]
    mass: 6.940000
    reduced_to: 37
  - symbol: Li # 39
    coordinates: [  0.730792912997650,  0.413316623314733,  0.491641234312120 ]
    mass: 6.940000
    reduced_to: 37
  - symbol: Li # 40
    coordinates: [  0.064126246330983,  0.913316623314733,  0.491641234312120 ]
    mass: 6.940000
    reduced_to: 37
  - symbol: Li # 41
    coordinates: [  0.397459579664317,  0.913316623314733,  0.491641234312120 ]
    mass: 6.940000
    reduced_to: 37
  - symbol: Li # 42
    coordinates: [  0.730792912997650,  0.913316623314733,  0.491641234312120 ]
    mass: 6.940000
    reduced_to: 37
  - symbol: Li # 43
    coordinates: [  0.064126246330983,  0.413316623314733,  0.991641234312120 ]
    mass: 6.940000
    reduced_to: 37
  - symbol: Li # 44
    coordinates: [  0.397459579664317,  0.413316623314733,  0.991641234312120 ]
    mass: 6.940000
    reduced_to: 37
  - symbol: Li # 45
    coordinates: [  0.730792912997650,  0.413316623314733,  0.991641234312120 ]
    mass: 6.940000
    reduced_to: 37
  - symbol: Li # 46
    coordinates: [  0.064126246330983,  0.913316623314733,  0.991641234312120 ]
    mass: 6.940000
    reduced_to: 37
  - symbol: Li # 47
    coordinates: [  0.397459579664317,  0.913316623314733,  0.991641234312120 ]
    mass: 6.940000
    reduced_to: 37
  - symbol: Li # 48
    coordinates: [  0.730792912997650,  0.913316623314733,  0.991641234312120 ]
    mass: 6.940000
    reduced_to: 37
  - symbol: Li # 49
    coordinates: [  0.059777665606481,  0.252001106855309,  0.165995514615716 ]
    mass: 6.940000
    reduced_to: 49
  - symbol: Li # 50
    coordinates: [  0.393110998939815,  0.252001106855309,  0.165995514615716 ]
    mass: 6.940000
    reduced_to: 49
  - symbol: Li # 51
    coordinates: [  0.726444332273148,  0.252001106855309,  0.165995514615716 ]
    mass: 6.940000
    reduced_to: 49
  - symbol: Li # 52
    coordinates: [  0.059777665606481,  0.752001106855309,  0.165995514615716 ]
    mass: 6.940000
    reduced_to: 49
  - symbol: Li # 53
    coordinates: [  0.393110998939815,  0.752001106855309,  0.165995514615716 ]
    mass: 6.940000
    reduced_to: 49
  - symbol: Li # 54
    coordinates: [  0.726444332273148,  0.752001106855309,  0.165995514615716 ]
    mass: 6.940000
    reduced_to: 49
  - symbol: Li # 55
    coordinates: [  0.059777665606481,  0.252001106855309,  0.665995514615716 ]
    mass: 6.940000
    reduced_to: 49
  - symbol: Li # 56
    coordinates: [  0.393110998939815,  0.252001106855309,  0.665995514615716 ]
    mass: 6.940000
    reduced_to: 49
  - symbol: Li # 57
    coordinates: [  0.726444332273148,  0.252001106855309,  0.665995514615716 ]
    mass: 6.940000
    reduced_to: 49
  - symbol: Li # 58
    coordinates: [  0.059777665606481,  0.752001106855309,  0.665995514615716 ]
    mass: 6.940000
    reduced_to: 49
  - symbol: Li # 59
    coordinates: [  0.393110998939815,  0.752001106855309,  0.665995514615716 ]
    mass: 6.940000
    reduced_to: 49
  - symbol: Li # 60
    coordinates: [  0.726444332273148,  0.752001106855309,  0.665995514615716 ]
    mass: 6.940000
    reduced_to: 49
  - symbol: Li # 61
    coordinates: [  0.296104818580324,  0.217332855772991,  0.491825907309310 ]
    mass: 6.940000
    reduced_to: 61
  - symbol: Li # 62
    coordinates: [  0.629438151913658,  0.217332855772991,  0.491825907309310 ]
    mass: 6.940000
    reduced_to: 61
  - symbol: Li # 63
    coordinates: [  0.962771485246991,  0.217332855772991,  0.491825907309310 ]
    mass: 6.940000
    reduced_to: 61
  - symbol: Li # 64
    coordinates: [  0.296104818580324,  0.717332855772991,  0.491825907309310 ]
    mass: 6.940000
    reduced_to: 61
  - symbol: Li # 65
    coordinates: [  0.629438151913658,  0.717332855772991,  0.491825907309310 ]
    mass: 6.940000
    reduced_to: 61
  - symbol: Li # 66
    coordinates: [  0.962771485246991,  0.717332855772991,  0.491825907309310 ]
    mass: 6.940000
    reduced_to: 61
  - symbol: Li # 67
    coordinates: [  0.296104818580324,  0.217332855772991,  0.991825907309310 ]
    mass: 6.940000
    reduced_to: 61
  - symbol: Li # 68
    coordinates: [  0.629438151913658,  0.217332855772991,  0.991825907309310 ]
    mass: 6.940000
    reduced_to: 61
  - symbol: Li # 69
    coordinates: [  0.962771485246991,  0.217332855772991,  0.991825907309310 ]
    mass: 6.940000
    reduced_to: 61
  - symbol: Li # 70
    coordinates: [  0.296104818580324,  0.717332855772991,  0.991825907309310 ]
    mass: 6.940000
    reduced_to: 61
  - symbol: Li # 71
    coordinates: [  0.629438151913658,  0.717332855772991,  0.991825907309310 ]
    mass: 6.940000
    reduced_to: 61
  - symbol: Li # 72
    coordinates: [  0.962771485246991,  0.717332855772991,  0.991825907309310 ]
    mass: 6.940000
    reduced_to: 61
  - symbol: Li # 73
    coordinates: [  0.179733852872742,  0.217219079215686,  0.341216847210296 ]
    mass: 6.940000
    reduced_to: 73
  - symbol: Li # 74
    coordinates: [  0.513067186206076,  0.217219079215686,  0.341216847210296 ]
    mass: 6.940000
    reduced_to: 73
  - symbol: Li # 75
    coordinates: [  0.846400519539409,  0.217219079215686,  0.341216847210296 ]
    mass: 6.940000
    reduced_to: 73
  - symbol: Li # 76
    coordinates: [  0.179733852872742,  0.717219079215686,  0.341216847210296 ]
    mass: 6.940000
    reduced_to: 73
  - symbol: Li # 77
    coordinates: [  0.513067186206076,  0.717219079215686,  0.341216847210296 ]
    mass: 6.940000
    reduced_to: 73
  - symbol: Li # 78
    coordinates: [  0.846400519539409,  0.717219079215686,  0.341216847210296 ]
    mass: 6.940000
    reduced_to: 73
  - symbol: Li # 79
    coordinates: [  0.179733852872742,  0.217219079215686,  0.841216847210296 ]
    mass: 6.940000
    reduced_to: 73
  - symbol: Li # 80
    coordinates: [  0.513067186206076,  0.217219079215686,  0.841216847210296 ]
    mass: 6.940000
    reduced_to: 73
  - symbol: Li # 81
    coordinates: [  0.846400519539409,  0.217219079215686,  0.841216847210296 ]
    mass: 6.940000
    reduced_to: 73
  - symbol: Li # 82
    coordinates: [  0.179733852872742,  0.717219079215686,  0.841216847210296 ]
    mass: 6.940000
    reduced_to: 73
  - symbol: Li # 83
    coordinates: [  0.513067186206076,  0.717219079215686,  0.841216847210296 ]
    mass: 6.940000
    reduced_to: 73
  - symbol: Li # 84
    coordinates: [  0.846400519539409,  0.717219079215686,  0.841216847210296 ]
    mass: 6.940000
    reduced_to: 73
  - symbol: Li # 85
    coordinates: [  0.281196068222392,  0.412800375584214,  0.341133665402023 ]
    mass: 6.940000
    reduced_to: 85
  - symbol: Li # 86
    coordinates: [  0.614529401555726,  0.412800375584214,  0.341133665402023 ]
    mass: 6.940000
    reduced_to: 85
  - symbol: Li # 87
    coordinates: [  0.947862734889059,  0.412800375584214,  0.341133665402023 ]
    mass: 6.940000
    reduced_to: 85
  - symbol: Li # 88
    coordinates: [  0.281196068222392,  0.912800375584214,  0.341133665402023 ]
    mass: 6.940000
    reduced_to: 85
  - symbol: Li # 89
    coordinates: [  0.614529401555726,  0.912800375584214,  0.341133665402023 ]
    mass: 6.940000
    reduced_to: 85
  - symbol: Li # 90
    coordinates: [  0.947862734889059,  0.912800375584214,  0.341133665402023 ]
    mass: 6.940000
    reduced_to: 85
  - symbol: Li # 91
    coordinates: [  0.281196068222392,  0.412800375584214,  0.841133665402023 ]
    mass: 6.940000
    reduced_to: 85
  - symbol: Li # 92
    coordinates: [  0.614529401555726,  0.412800375584214,  0.841133665402023 ]
    mass: 6.940000
    reduced_to: 85
  - symbol: Li # 93
    coordinates: [  0.947862734889059,  0.412800375584214,  0.841133665402023 ]
    mass: 6.940000
    reduced_to: 85
  - symbol: Li # 94
    coordinates: [  0.281196068222392,  0.912800375584214,  0.841133665402023 ]
    mass: 6.940000
    reduced_to: 85
  - symbol: Li # 95
    coordinates: [  0.614529401555726,  0.912800375584214,  0.841133665402023 ]
    mass: 6.940000
    reduced_to: 85
  - symbol: Li # 96
    coordinates: [  0.947862734889059,  0.912800375584214,  0.841133665402023 ]
    mass: 6.940000
    reduced_to: 85
  - symbol: Sn # 97
    coordinates: [  0.288632146190417,  0.065078142296648,  0.166446269916352 ]
    mass: 118.710000
    reduced_to: 97
  - symbol: Sn # 98
    coordinates: [  0.621965479523750,  0.065078142296648,  0.166446269916352 ]
    mass: 118.710000
    reduced_to: 97
  - symbol: Sn # 99
    coordinates: [  0.955298812857084,  0.065078142296648,  0.166446269916352 ]
    mass: 118.710000
    reduced_to: 97
  - symbol: Sn # 100
    coordinates: [  0.288632146190417,  0.565078142296648,  0.166446269916352 ]
    mass: 118.710000
    reduced_to: 97
  - symbol: Sn # 101
    coordinates: [  0.621965479523750,  0.565078142296648,  0.166446269916352 ]
    mass: 118.710000
    reduced_to: 97
  - symbol: Sn # 102
    coordinates: [  0.955298812857084,  0.565078142296648,  0.166446269916352 ]
    mass: 118.710000
    reduced_to: 97
  - symbol: Sn # 103
    coordinates: [  0.288632146190417,  0.065078142296648,  0.666446269916352 ]
    mass: 118.710000
    reduced_to: 97
  - symbol: Sn # 104
    coordinates: [  0.621965479523750,  0.065078142296648,  0.666446269916352 ]
    mass: 118.710000
    reduced_to: 97
  - symbol: Sn # 105
    coordinates: [  0.955298812857084,  0.065078142296648,  0.666446269916352 ]
    mass: 118.710000
    reduced_to: 97
  - symbol: Sn # 106
    coordinates: [  0.288632146190417,  0.565078142296648,  0.666446269916352 ]
    mass: 118.710000
    reduced_to: 97
  - symbol: Sn # 107
    coordinates: [  0.621965479523750,  0.565078142296648,  0.666446269916352 ]
    mass: 118.710000
    reduced_to: 97
  - symbol: Sn # 108
    coordinates: [  0.955298812857084,  0.565078142296648,  0.666446269916352 ]
    mass: 118.710000
    reduced_to: 97

displacements:
- atom:    1
  displacement:
    [   0.0100000000000000,  0.0000000000000000,  0.0000000000000000 ]
  forces:
  - [  -0.0187307279556990, -0.0123642534017563,  0.0031843376345932 ]
  - [  -0.0003954167477787, -0.0122661069035530,  0.0031834973488003 ]
  - [  -0.0003934644628316, -0.0123933963477612,  0.0031822186429054 ]
  - [  -0.0000217288179556, -0.0126674473285675,  0.0031839986331761 ]
  - [  -0.0002448303566780, -0.0124618187546730,  0.0031829052604735 ]
  - [  -0.0002462927368470, -0.0118693560361862,  0.0031827001366764 ]
  - [  -0.0004163782577962, -0.0123311541974545,  0.0031852701213211 ]
  - [  -0.0004179781535640, -0.0123309828341007,  0.0031810710206628 ]
  - [  -0.0004165448481217, -0.0123303569853306,  0.0031810293439776 ]
  - [  -0.0004176878428552, -0.0123289674520493,  0.0031836077105254 ]
  - [  -0.0004181809490547, -0.0123300105333328,  0.0031826558988541 ]
  - [  -0.0004174803325441, -0.0123298130929470,  0.0031827883794904 ]
  - [  -0.0001353325642413, -0.0014630898367614, -0.0168221667408943 ]
  - [  -0.0001427456736565, -0.0006706559797749, -0.0170002020895481 ]
  - [   0.0000679567456245, -0.0010424318024889, -0.0168942771852016 ]
  - [  -0.0009098313748837, -0.0010759539436549, -0.0169062092900276 ]
  - [   0.0000358130782843, -0.0008626310154796, -0.0170771479606628 ]
  - [   0.0000371825881302, -0.0012549862731248, -0.0167349353432655 ]
  - [   0.0000375849194825, -0.0010584974661469, -0.0168925132602453 ]
  - [   0.0000119269825518, -0.0010593368206173, -0.0169055014848709 ]
  - [   0.0000377753749490, -0.0010632391786203, -0.0169164203107357 ]
  - [   0.0000346533342963, -0.0010641828412190, -0.0169102884829044 ]
  - [   0.0000365791493095, -0.0010540945222601, -0.0169000215828419 ]
  - [   0.0000325673754560, -0.0010593698825687, -0.0169050097465515 ]
  - [  -0.0011374196037650, -0.0015810619806871,  0.0186845045536757 ]
  - [  -0.0011451416648924, -0.0007940985960886,  0.0188581757247448 ]
  - [  -0.0009344439022243, -0.0011633784743026,  0.0187548343092203 ]
  - [  -0.0019111847504973, -0.0011970722116530,  0.0187649130821228 ]
  - [  -0.0009641097858548, -0.0009854821255431,  0.0189356505870819 ]
  - [  -0.0009604082442820, -0.0013749166391790,  0.0185971204191446 ]
  - [  -0.0009885341860354, -0.0011809584684670,  0.0187655966728926 ]
  - [  -0.0009637321345508, -0.0011837554629892,  0.0187765415757895 ]
  - [  -0.0009646606631577, -0.0011792698642239,  0.0187534112483263 ]
  - [  -0.0009659244678915, -0.0011766948737204,  0.0187598355114460 ]
  - [  -0.0009705503471196, -0.0011817526537925,  0.0187655258923769 ]
  - [  -0.0009658383205533, -0.0011862473329529,  0.0187707822769880 ]
  - [   0.0010552112944424,  0.0076695457100868, -0.0397599451243877 ]
  - [   0.0010138809448108,  0.0076705850660801, -0.0397679805755615 ]
  - [   0.0010139450896531,  0.0076675340533257, -0.0397541746497154 ]
  - [   0.0010195940267295,  0.0076851863414049, -0.0397474355995655 ]
  - [   0.0010191368637607,  0.0076674222946167, -0.0397616475820541 ]
  - [   0.0010171770118177,  0.0076520238071680, -0.0397758148610592 ]
  - [   0.0014303696807474,  0.0076410826295614, -0.0395785085856915 ]
  - [   0.0014371898723766,  0.0076981000602245, -0.0399381928145885 ]
  - [   0.0010138712823391,  0.0076686870306730, -0.0397611409425735 ]
  - [   0.0010227642487735,  0.0076974499970675, -0.0397338010370731 ]
  - [   0.0009688805439509,  0.0076575726270676, -0.0397457927465439 ]
  - [   0.0010221104603261,  0.0076490417122841, -0.0398038960993290 ]
  - [   0.0063854069449008,  0.0171403214335442,  0.0047581950202584 ]
  - [   0.0065358178690076,  0.0094005130231380,  0.0047475043684244 ]
  - [   0.0007037368486635,  0.0133282691240311,  0.0047534322366118 ]
  - [   0.0006451754597947,  0.0133380852639675,  0.0047537130303681 ]
  - [  -0.0001503946259618,  0.0128764472901821,  0.0047556660138071 ]
  - [  -0.0000771417981014,  0.0137800872325897,  0.0047504398971796 ]
  - [   0.0006177129689604,  0.0133280158042908,  0.0047526755370200 ]
  - [   0.0006184144876897,  0.0133265368640423,  0.0047530164010823 ]
  - [   0.0006181009230204,  0.0133274197578430,  0.0047538951039314 ]
  - [   0.0006187250837684,  0.0133282318711281,  0.0047641154378653 ]
  - [   0.0006200224161148,  0.0133282802999020,  0.0047478582710028 ]
  - [   0.0006187753751874,  0.0133264213800430,  0.0047476422041655 ]
  - [  -0.0000355477677658, -0.0083280019462109, -0.0406978428363800 ]
  - [  -0.0000193079467863, -0.0082955397665501, -0.0407167561352253 ]
  - [  -0.0000360452686436, -0.0082630217075348, -0.0407344363629818 ]
  - [  -0.0000240567587753, -0.0082978773862123, -0.0407246984541416 ]
  - [  -0.0000233638766076, -0.0082918573170900, -0.0407108776271343 ]
  - [  -0.0000324059728882, -0.0082969963550568, -0.0407154001295567 ]
  - [  -0.0001768085639924, -0.0082794371992350, -0.0406931713223457 ]
  - [  -0.0000209753052332, -0.0082639884203672, -0.0407600365579128 ]
  - [  -0.0000198420020752, -0.0083274636417627, -0.0406706929206848 ]
  - [   0.0000300997126033, -0.0083736851811409, -0.0404643416404724 ]
  - [  -0.0000403322701459, -0.0082967337220907, -0.0407148525118828 ]
  - [   0.0000259116495727, -0.0082171596586704, -0.0409631356596947 ]
  - [  -0.0008418210200034, -0.0093735177069902,  0.0363699607551098 ]
  - [  -0.0006926291389391, -0.0093575250357389,  0.0364366099238396 ]
  - [  -0.0006925561465323, -0.0094213392585516,  0.0363461449742317 ]
  - [  -0.0006440634024329, -0.0094697438180447,  0.0361378341913223 ]
  - [  -0.0007123836548999, -0.0093908011913300,  0.0363908596336842 ]
  - [  -0.0006476790294982, -0.0093088336288929,  0.0366414487361908 ]
  - [  -0.0007077805930749, -0.0093567147850990,  0.0364095307886600 ]
  - [  -0.0007076427573338, -0.0094219651073217,  0.0363743118941784 ]
  - [  -0.0006912525859661, -0.0093892421573400,  0.0363929457962513 ]
  - [  -0.0007045537931845, -0.0093912519514561,  0.0363911911845207 ]
  - [  -0.0006977366865613, -0.0093921516090631,  0.0364002473652363 ]
  - [  -0.0006964732310735, -0.0093861520290375,  0.0363861396908760 ]
  - [   0.0005606708582491,  0.0097014605998993,  0.0361608192324638 ]
  - [   0.0001384080533171,  0.0096722170710564,  0.0359845533967018 ]
  - [   0.0005551404319704,  0.0096442513167858,  0.0358023568987846 ]
  - [   0.0000915101845749,  0.0096616186201572,  0.0359696596860886 ]
  - [   0.0001467823167332,  0.0096525754779577,  0.0360270366072655 ]
  - [   0.0001452771830373,  0.0097021982073784,  0.0359568744897842 ]
  - [   0.0001795774587663,  0.0096726957708597,  0.0359839014708996 ]
  - [   0.0001375371648464,  0.0096741821616888,  0.0359909087419510 ]
  - [   0.0001382963673677,  0.0096709821373224,  0.0359774939715862 ]
  - [   0.0001432825229131,  0.0096896644681692,  0.0359696745872498 ]
  - [   0.0001445472007617,  0.0096718668937683,  0.0359850153326988 ]
  - [   0.0001406239462085,  0.0096560958772898,  0.0359989218413830 ]
  - [   0.0004741884768009,  0.0016506691463292, -0.0016966892872006 ]
  - [   0.0000443048775196,  0.0018094200640917, -0.0016995612531900 ]
  - [   0.0000398606061935,  0.0013171974569559, -0.0016930763376877 ]
  - [   0.0046911891549826,  0.0046087061055005, -0.0016979624051601 ]
  - [   0.0001436900347471,  0.0015988340601325, -0.0016958691412583 ]
  - [   0.0045745042152703, -0.0013272375799716, -0.0016940049827099 ]
  - [   0.0003011859953403,  0.0015871815849096, -0.0016924515366554 ]
  - [   0.0003001727163792,  0.0015873805386946, -0.0016960464417934 ]
  - [   0.0002981623401865,  0.0015894809039310, -0.0016967701958492 ]
  - [   0.0003028623759747,  0.0015881181461737, -0.0016935995081440 ]
  - [   0.0002972967922688,  0.0015880645951256, -0.0016958537744358 ]
  - [   0.0002961754798889,  0.0015873388620093, -0.0016944800736383 ]
- atom:    1
  displacement:
    [  -0.0100000000000000,  0.0000000000000000,  0.0000000000000000 ]
  forces:
  - [   0.0178963318467140, -0.0123736709356308,  0.0031827720813453 ]
  - [  -0.0004429214168340, -0.0123923718929291,  0.0031819464638829 ]
  - [  -0.0004410645924509, -0.0122654996812344,  0.0031839953735471 ]
  - [  -0.0008110455237329, -0.0120007507503033,  0.0031823669560254 ]
  - [  -0.0005909545579925, -0.0121955424547195,  0.0031835874542594 ]
  - [  -0.0005927105667070, -0.0128013454377651,  0.0031838691793382 ]
  - [  -0.0004178989911452, -0.0123311243951321,  0.0031794288661331 ]
  - [  -0.0004172613844275, -0.0123297460377216,  0.0031839446164668 ]
  - [  -0.0004156890790910, -0.0123315639793873,  0.0031837099231780 ]
  - [  -0.0004170787287876, -0.0123299658298492,  0.0031829029321671 ]
  - [  -0.0004184842982795, -0.0123295523226261,  0.0031834384426475 ]
  - [  -0.0004180461110082, -0.0123293176293373,  0.0031829536892474 ]
  - [   0.0002031593467109, -0.0006528116064146, -0.0169899016618729 ]
  - [   0.0002012737095356, -0.0014451467432082, -0.0168115179985762 ]
  - [  -0.0000033751130104, -0.0010791001841426, -0.0169155783951283 ]
  - [   0.0009727580472827, -0.0010753720998764, -0.0169134177267551 ]
  - [   0.0000269529409707, -0.0012554279528558, -0.0167328678071499 ]
  - [   0.0000266442075372, -0.0008635740960017, -0.0170744061470032 ]
  - [   0.0000249696895480, -0.0010625603608787, -0.0169168412685394 ]
  - [   0.0000501675531268, -0.0010609432356432, -0.0169041305780411 ]
  - [   0.0000247275456786, -0.0010576180648059, -0.0168932415544987 ]
  - [   0.0000274713092949, -0.0010545557597652, -0.0168995950371027 ]
  - [   0.0000275045022136, -0.0010637397645041, -0.0169108323752880 ]
  - [   0.0000325634828187, -0.0010592510225251, -0.0169050376862288 ]
  - [  -0.0007984610274434, -0.0007758202846162,  0.0188480578362942 ]
  - [  -0.0008006459102035, -0.0015628237742931,  0.0186738483607769 ]
  - [  -0.0010061105713248, -0.0012000228744000,  0.0187761522829533 ]
  - [  -0.0000278386287391, -0.0011968524195254,  0.0187741145491600 ]
  - [  -0.0009774863719940, -0.0013758228160441,  0.0185950454324484 ]
  - [  -0.0009755436331034, -0.0009855662938207,  0.0189329087734222 ]
  - [  -0.0009500370360911, -0.0011820282088593,  0.0187651123851538 ]
  - [  -0.0009766705334187, -0.0011783491354436,  0.0187530703842640 ]
  - [  -0.0009775334037840, -0.0011834879405797,  0.0187773518264294 ]
  - [  -0.0009738737717271, -0.0011861871462315,  0.0187703985720873 ]
  - [  -0.0009707007557154, -0.0011816645273939,  0.0187658164650202 ]
  - [  -0.0009738765656948, -0.0011768236290663,  0.0187603905797005 ]
  - [   0.0009818470571190,  0.0076694097369909, -0.0397602505981922 ]
  - [   0.0010235463269055,  0.0076678469777107, -0.0397540479898453 ]
  - [   0.0010234075598419,  0.0076702870428562, -0.0397681593894958 ]
  - [   0.0010174834169447,  0.0076509397476912, -0.0397759713232517 ]
  - [   0.0010167346335948,  0.0076688770204782, -0.0397616773843765 ]
  - [   0.0010219013784081,  0.0076847244054079, -0.0397474057972431 ]
  - [   0.0005989423952997,  0.0076982323080301, -0.0399389304220676 ]
  - [   0.0006058327853680,  0.0076410230249166, -0.0395796298980713 ]
  - [   0.0010226008016616,  0.0076688993722200, -0.0397612527012825 ]
  - [   0.0010146475397050,  0.0076384339481592, -0.0397885777056217 ]