# Thermal properties / unit cell (natom)

unit:
  temperature:   K
  free_energy:   kJ/mol
  entropy:       J/K/mol
  heat_capacity: J/K/mol

natom: 9    
cutoff_frequency: 0.00000
num_modes: 181440
num_integrated_modes: 181440

zero_point_energy:      34.8500037

thermal_properties:
- temperature:         0.0000000
  free_energy:        34.8500037
  entropy:             0.0000000
  heat_capacity:       0.0000000
  energy:             34.8500037

- temperature:        10.0000000
  free_energy:        34.8489396
  entropy:             0.2828902
  heat_capacity:       0.7527679
  energy:             34.8517685

- temperature:        20.0000000
  free_energy:        34.8387737
  entropy:             2.1470986
  heat_capacity:       6.1740645
  energy:             34.8817157

- temperature:        30.0000000
  free_energy:        34.7979341
  entropy:             6.3937435
  heat_capacity:      15.9669668
  energy:             34.9897464

- temperature:        40.0000000
  free_energy:        34.7042918
  entropy:            12.6246848
  heat_capacity:      28.2572339
  energy:             35.2092792

- temperature:        50.0000000
  free_energy:        34.5403337
  entropy:            20.3911943
  heat_capacity:      42.0557826
  energy:             35.5598934

- temperature:        60.0000000
  free_energy:        34.2925250
  entropy:            29.3423850
  heat_capacity:      56.6566204
  energy:             36.0530681

- temperature:        70.0000000
  free_energy:        33.9505171
  entropy:            39.1852898
  heat_capacity:      71.3988050
  energy:             36.6934874

- temperature:        80.0000000
  free_energy:        33.5067140
  entropy:            49.6608369
  heat_capacity:      85.7076759
  energy:             37.4795809

- temperature:        90.0000000
  free_energy:        32.9559500
  entropy:            60.5427444
  heat_capacity:      99.1693830
  energy:             38.4047970

- temperature:       100.0000000
  free_energy:        32.2951392
  entropy:            71.6419245
  heat_capacity:     111.5448282
  energy:             39.4593316

- temperature:       110.0000000
  free_energy:        31.5228934
  entropy:            82.8077270
  heat_capacity:     122.7385048
  energy:             40.6317434

- temperature:       120.0000000
  free_energy:        30.6391493
  entropy:            93.9251574
  heat_capacity:     132.7540537
  energy:             41.9101682

- temperature:       130.0000000
  free_energy:        29.6448358
  entropy:           104.9097614
  heat_capacity:     141.6546635
  energy:             43.2831048

- temperature:       140.0000000
  free_energy:        28.5415979
  entropy:           115.7018431
  heat_capacity:     149.5339831
  energy:             44.7398560

- temperature:       150.0000000
  free_energy:        27.3315769
  entropy:           126.2610237
  heat_capacity:     156.4970858
  energy:             46.2707304

- temperature:       160.0000000
  free_energy:        26.0172407
  entropy:           136.5615877
  heat_capacity:     162.6490872
  energy:             47.8670947

- temperature:       170.0000000
  free_energy:        24.6012574
  entropy:           146.5887177
  heat_capacity:     168.0889620
  energy:             49.5213395

- temperature:       180.0000000
  free_energy:        23.0864013
  entropy:           156.3355546
  heat_capacity:     172.9066418
  energy:             51.2268011

- temperature:       190.0000000
  free_energy:        21.4754849
  entropy:           165.8009523
  heat_capacity:     177.1820609
  energy:             52.9776659

- temperature:       200.0000000
  free_energy:        19.7713111
  entropy:           174.9877915
  heat_capacity:     180.9852884
  energy:             54.7688694

- temperature:       210.0000000
  free_energy:        17.9766390
  entropy:           183.9017265
  heat_capacity:     184.3772157
  energy:             56.5960015

- temperature:       220.0000000
  free_energy:        16.0941614
  entropy:           192.5502619
  heat_capacity:     187.4104830
  energy:             58.4552190

- temperature:       230.0000000
  free_energy:        14.1264895
  entropy:           200.9420786
  heat_capacity:     190.1304680
  energy:             60.3431676

- temperature:       240.0000000
  free_energy:        12.0761443
  entropy:           209.0865441
  heat_capacity:     192.5762411
  energy:             62.2569149

- temperature:       250.0000000
  free_energy:         9.9455508
  entropy:           216.9933609
  heat_capacity:     194.7814409
  energy:             64.1938911

- temperature:       260.0000000
  free_energy:         7.7370366
  entropy:           224.6723163
  heat_capacity:     196.7750522
  energy:             66.1518389

- temperature:       270.0000000
  free_energy:         5.4528317
  entropy:           232.1331068
  heat_capacity:     198.5820844
  energy:             68.1287705

- temperature:       280.0000000
  free_energy:         3.0950701
  entropy:           239.3852177
  heat_capacity:     200.2241558
  energy:             70.1229310

- temperature:       290.0000000
  free_energy:         0.6657923
  entropy:           246.4378421
  heat_capacity:     201.7199920
  energy:             72.1327665

- temperature:       300.0000000
  free_energy:        -1.8330514
  entropy:           253.2998306
  heat_capacity:     203.0858505
  energy:             74.1568978

- temperature:       310.0000000
  free_energy:        -4.3995972
  entropy:           259.9796606
  heat_capacity:     204.3358798
  energy:             76.1940976

- temperature:       320.0000000
  free_energy:        -7.0320644
  entropy:           266.4854220
  heat_capacity:     205.4824239
  energy:             78.2432706

- temperature:       330.0000000
  free_energy:        -9.7287511
  entropy:           272.8248132
  heat_capacity:     206.5362799
  energy:             80.3034373

- temperature:       340.0000000
  free_energy:       -12.4880305
  entropy:           279.0051455
  heat_capacity:     207.5069155
  energy:             82.3737190

- temperature:       350.0000000
  free_energy:       -15.3083470
  entropy:           285.0333514
  heat_capacity:     208.4026541
  energy:             84.4533260

- temperature:       360.0000000
  free_energy:       -18.1882124
  entropy:           290.9159981
  heat_capacity:     209.2308314
  energy:             86.5415469

- temperature:       370.0000000
  free_energy:       -21.1262025
  entropy:           296.6593017
  heat_capacity:     209.9979286
  energy:             88.6377391

- temperature:       380.0000000
  free_energy:       -24.1209536
  entropy:           302.2691439
  heat_capacity:     210.7096856
  energy:             90.7413211

- temperature:       390.0000000
  free_energy:       -27.1711591
  entropy:           307.7510885
  heat_capacity:     211.3711984
  energy:             92.8517654

- temperature:       400.0000000
  free_energy:       -30.2755666
  entropy:           313.1103984
  heat_capacity:     211.9870013
  energy:             94.9685928

- temperature:       410.0000000
  free_energy:       -33.4329749
  entropy:           318.3520525
  heat_capacity:     212.5611382
  energy:             97.0913666

- temperature:       420.0000000
  free_energy:       -36.6422312
  entropy:           323.4807617
  heat_capacity:     213.0972238
  energy:             99.2196887

- temperature:       430.0000000
  free_energy:       -39.9022285
  entropy:           328.5009851
  heat_capacity:     213.5984954
  energy:            101.3531951

- temperature:       440.0000000
  free_energy:       -43.2119034
  entropy:           333.4169447
  heat_capacity:     214.0678591
  energy:            103.4915523

- temperature:       450.0000000
  free_energy:       -46.5702332
  entropy:           338.2326397
  heat_capacity:     214.5079284
  energy:            105.6344546

- temperature:       460.0000000
  free_energy:       -49.9762346
  entropy:           342.9518602
  heat_capacity:     214.9210588
  energy:            107.7816211

- temperature:       470.0000000
  free_energy:       -53.4289609
  entropy:           347.5782000
  heat_capacity:     215.3093766
  energy:            109.9327931

- temperature:       480.0000000
  free_energy:       -56.9275004
  entropy:           352.1150682
  heat_capacity:     215.6748054
  energy:            112.0877324

- temperature:       490.0000000
  free_energy:       -60.4709748
  entropy:           356.5657011
  heat_capacity:     216.0190882
  energy:            114.2462188

- temperature:       500.0000000
  free_energy:       -64.0585372
  entropy:           360.9331723
  heat_capacity:     216.3438073
  energy:            116.4080489

- temperature:       510.0000000
  free_energy:       -67.6893708
  entropy:           365.2204025
  heat_capacity:     216.6504013
  energy:            118.5730345

- temperature:       520.0000000
  free_energy:       -71.3626871
  entropy:           369.4301692
  heat_capacity:     216.9401805
  energy:            120.7410009

- temperature:       530.0000000
  free_energy:       -75.0777248
  entropy:           373.5651148
  heat_capacity:     217.2143401
  energy:            122.9117861

- temperature:       540.0000000
  free_energy:       -78.8337484
  entropy:           377.6277550
  heat_capacity:     217.4739720
  energy:            125.0852393

- temperature:       550.0000000
  free_energy:       -82.6300469
  entropy:           381.6204860
  heat_capacity:     217.7200754
  energy:            127.2612204

- temperature:       560.0000000
  free_energy:       -86.4659327
  entropy:           385.5455919
  heat_capacity:     217.9535657
  energy:            129.4395988

- temperature:       570.0000000
  free_energy:       -90.3407406
  entropy:           389.4052510
  heat_capacity:     218.1752830
  energy:            131.6202525

- temperature:       580.0000000
  free_energy:       -94.2538265
  entropy:           393.2015418
  heat_capacity:     218.3859991
  energy:            133.8030678

- temperature:       590.0000000
  free_energy:       -98.2045668
  entropy:           396.9364491
  heat_capacity:     218.5864241
  energy:            135.9879382

- temperature:       600.0000000
  free_energy:      -102.1923572
  entropy:           400.6118689
  heat_capacity:     218.7772123
  energy:            138.1747641

- temperature:       610.0000000
  free_energy:      -106.2166119
  entropy:           404.2296135
  heat_capacity:     218.9589671
  energy:            140.3634523

- temperature:       620.0000000
  free_energy:      -110.2767630
  entropy:           407.7914165
  heat_capacity:     219.1322459
  energy:            142.5539152

- temperature:       630.0000000
  free_energy:      -114.3722593
  entropy:           411.2989366
  heat_capacity:     219.2975638
  energy:            144.7460707

- temperature:       640.0000000
  free_energy:      -118.5025661
  entropy:           414.7537620
  heat_capacity:     219.4553979
  energy:            146.9398416

- temperature:       650.0000000
  free_energy:      -122.6671640
  entropy:           418.1574141
  heat_capacity:     219.6061902
  energy:            149.1351552

- temperature:       660.0000000
  free_energy:      -126.8655487
  entropy:           421.5113514
  heat_capacity:     219.7503509
  energy:            151.3319433

- temperature:       670.0000000
  free_energy:      -131.0972300
  entropy:           424.8169722
  heat_capacity:     219.8882607
  energy:            153.5301414

- temperature:       680.0000000
  free_energy:      -135.3617315
  entropy:           428.0756182
  heat_capacity:     220.0202738
  energy:            155.7296888

- temperature:       690.0000000
  free_energy:      -139.6585900
  entropy:           431.2885773
  heat_capacity:     220.1467196
  energy:            157.9305283

- temperature:       700.0000000
  free_energy:      -143.9873549
  entropy:           434.4570866
  heat_capacity:     220.2679051
  energy:            160.1326057

- temperature:       710.0000000
  free_energy:      -148.3475876
  entropy:           437.5823344
  heat_capacity:     220.3841165
  energy:            162.3358698

- temperature:       720.0000000
  free_energy:      -152.7388612
  entropy:           440.6654632
  heat_capacity:     220.4956208
  energy:            164.5402723

- temperature:       730.0000000
  free_energy:      -157.1607601
  entropy:           443.7075719
  heat_capacity:     220.6026676
  energy:            166.7457674

- temperature:       740.0000000
  free_energy:      -161.6128794
  entropy:           446.7097176
  heat_capacity:     220.7054902
  energy:            168.9523116

- temperature:       750.0000000
  free_energy:      -166.0948247
  entropy:           449.6729180
  heat_capacity:     220.8043068
  energy:            171.1598638

- temperature:       760.0000000
  free_energy:      -170.6062112
  entropy:           452.5981531
  heat_capacity:     220.8993219
  energy:            173.3683851

- temperature:       770.0000000
  free_energy:      -175.1466643
  entropy:           455.4863670
  heat_capacity:     220.9907271
  energy:            175.5778383

- temperature:       780.0000000
  free_energy:      -179.7158182
  entropy:           458.3384697
  heat_capacity:     221.0787021
  energy:            177.7881882

- temperature:       790.0000000
  free_energy:      -184.3133163
  entropy:           461.1553388
  heat_capacity:     221.1634157
  energy:            179.9994014

- temperature:       800.0000000
  free_energy:      -188.9388104
  entropy:           463.9378207
  heat_capacity:     221.2450264
  energy:            182.2114462

- temperature:       810.0000000
  free_energy:      -193.5919608
  entropy:           466.6867320
  heat_capacity:     221.3236834
  energy:            184.4242921

- temperature:       820.0000000
  free_energy:      -198.2724357
  entropy:           469.4028612
  heat_capacity:     221.3995269
  energy:            186.6379104

- temperature:       830.0000000
  free_energy:      -202.9799113
  entropy:           472.0869699
  heat_capacity:     221.4726889
  energy:            188.8522737

- temperature:       840.0000000
  free_energy:      -207.7140709
  entropy:           474.7397935
  heat_capacity:     221.5432939
  energy:            191.0673557

- temperature:       850.0000000
  free_energy:      -212.4746052
  entropy:           477.3620432
  heat_capacity:     221.6114592
  energy:            193.2831315

- temperature:       860.0000000
  free_energy:      -217.2612121
  entropy:           479.9544061
  heat_capacity:     221.6772955
  energy:            195.4995771

- temperature:       870.0000000
  free_energy:      -222.0735959
  entropy:           482.5175470
  heat_capacity:     221.7409074
  energy:            197.7166699

- temperature:       880.0000000
  free_energy:      -226.9114678
  entropy:           485.0521091
  heat_capacity:     221.8023935
  energy:            199.9343882

- temperature:       890.0000000
  free_energy:      -231.7745449
  entropy:           487.5587146
  heat_capacity:     221.8618473
  energy:            202.1527110

- temperature:       900.0000000
  free_energy:      -236.6625509
  entropy:           490.0379662
  heat_capacity:     221.9193570
  energy:            204.3716187

- temperature:       910.0000000
  free_energy:      -241.5752150
  entropy:           492.4904473
  heat_capacity:     221.9750061
  energy:            206.5910920

- temperature:       920.0000000
  free_energy:      -246.5122725
  entropy:           494.9167232
  heat_capacity:     222.0288739
  energy:            208.8111128

- temperature:       930.0000000
  free_energy:      -251.4734640
  entropy:           497.3173417
  heat_capacity:     222.0810353
  energy:            211.0316638

- temperature:       940.0000000
  free_energy:      -256.4585356
  entropy:           499.6928337
  heat_capacity:     222.1315614
  energy:            213.2527281

- temperature:       950.0000000
  free_energy:      -261.4672386
  entropy:           502.0437141
  heat_capacity:     222.1805196
  energy:            215.4742898

- temperature:       960.0000000
  free_energy:      -266.4993295
  entropy:           504.3704822
  heat_capacity:     222.2279740
  energy:            217.6963335

- temperature:       970.0000000
  free_energy:      -271.5545695
  entropy:           506.6736226
  heat_capacity:     222.2739853
  energy:            219.9188444

- temperature:       980.0000000
  free_energy:      -276.6327247
  entropy:           508.9536054
  heat_capacity:     222.3186114
  energy:            222.1418086

- temperature:       990.0000000
  free_energy:      -281.7335659
  entropy:           511.2108870
  heat_capacity:     222.3619070
  energy:            224.3652122

- temperature:      1000.0000000
  free_energy:      -286.8568683
  entropy:           513.4459107
  heat_capacity:     222.4039244
  energy:            226.5890424
