phonopy:
  version: "2.37.1"
  frequency_unit_conversion_factor: 15.633302
  symmetry_tolerance: 1.00000e-05

space_group:
  type: "P1"
  number: 1
  Hall_symbol: "P 1"

primitive_matrix:
- [  1.000000000000000,  0.000000000000000,  0.000000000000000 ]
- [  0.000000000000000,  1.000000000000000,  0.000000000000000 ]
- [  0.000000000000000,  0.000000000000000,  1.000000000000000 ]

supercell_matrix:
- [   2,   0,   0 ]
- [   0,   2,   0 ]
- [   0,   0,   2 ]

primitive_cell:
  lattice:
  - [     5.744316776962821,     0.000000000000000,     0.000000000000000 ] # a
  - [    -2.864874161827822,     5.423196355073271,     0.000000000000000 ] # b
  - [    -0.000051630402342,    -3.267404307605152,     7.514317361600749 ] # c
  points:
  - symbol: Li # 1
    coordinates: [  0.285610201701279,  0.526507993172189,  0.146142288900589 ]
    mass: 6.940000
  - symbol: Li # 2
    coordinates: [  0.888498927815279,  0.736999017735275,  0.355043015307673 ]
    mass: 6.940000
  - symbol: Li # 3
    coordinates: [  0.617546275385964,  0.527976691905223,  0.646760436485622 ]
    mass: 6.940000
  - symbol: Li # 4
    coordinates: [  0.220978149330811,  0.737817732608651,  0.856058964130576 ]
    mass: 6.940000
  - symbol: Sn # 5
    coordinates: [  0.019134065468990,  0.341977564177883,  0.456843120433925 ]
    mass: 118.710000
  - symbol: Sn # 6
    coordinates: [  0.097321761235086,  0.133399148556439,  0.750351372877244 ]
    mass: 118.710000
  - symbol: Sn # 7
    coordinates: [  0.409566291484620,  0.131636725922853,  0.251562007470585 ]
    mass: 118.710000
  - symbol: Sn # 8
    coordinates: [  0.811250850180799,  0.924131538885266,  0.045115939662604 ]
    mass: 118.710000
  - symbol: Sn # 9
    coordinates: [  0.695144777162405,  0.339849392540847,  0.955840300379056 ]
    mass: 118.710000
  - symbol: Sn # 10
    coordinates: [  0.487669167199064,  0.923137504273250,  0.544632878172545 ]
    mass: 118.710000
  reciprocal_lattice: # without 2pi
  - [     0.174085106867788,     0.091962726770534,     0.039988781843153 ] # a*
  - [     0.000000000000000,     0.184393102245786,     0.080178516234802 ] # b*
  - [     0.000000000000000,     0.000000000000000,     0.133079287429374 ] # c*

unit_cell:
  lattice:
  - [     5.744316776962821,     0.000000000000000,     0.000000000000000 ] # a
  - [    -2.864874161827822,     5.423196355073271,     0.000000000000000 ] # b
  - [    -0.000051630402342,    -3.267404307605152,     7.514317361600749 ] # c
  points:
  - symbol: Li # 1
    coordinates: [  0.285610201701279,  0.526507993172189,  0.146142288900589 ]
    mass: 6.940000
    reduced_to: 1
  - symbol: Li # 2
    coordinates: [  0.888498927815279,  0.736999017735275,  0.355043015307673 ]
    mass: 6.940000
    reduced_to: 2
  - symbol: Li # 3
    coordinates: [  0.617546275385964,  0.527976691905223,  0.646760436485622 ]
    mass: 6.940000
    reduced_to: 3
  - symbol: Li # 4
    coordinates: [  0.220978149330811,  0.737817732608651,  0.856058964130576 ]
    mass: 6.940000
    reduced_to: 4
  - symbol: Sn # 5
    coordinates: [  0.019134065468990,  0.341977564177883,  0.456843120433925 ]
    mass: 118.710000
    reduced_to: 5
  - symbol: Sn # 6
    coordinates: [  0.097321761235086,  0.133399148556439,  0.750351372877244 ]
    mass: 118.710000
    reduced_to: 6
  - symbol: Sn # 7
    coordinates: [  0.409566291484620,  0.131636725922853,  0.251562007470585 ]
    mass: 118.710000
    reduced_to: 7
  - symbol: Sn # 8
    coordinates: [  0.811250850180799,  0.924131538885266,  0.045115939662604 ]
    mass: 118.710000
    reduced_to: 8
  - symbol: Sn # 9
    coordinates: [  0.695144777162405,  0.339849392540847,  0.955840300379056 ]
    mass: 118.710000
    reduced_to: 9
  - symbol: Sn # 10
    coordinates: [  0.487669167199064,  0.923137504273250,  0.544632878172545 ]
    mass: 118.710000
    reduced_to: 10

supercell:
  lattice:
  - [    11.488633553925641,     0.000000000000000,     0.000000000000000 ] # a
  - [    -5.729748323655644,    10.846392710146542,     0.000000000000000 ] # b
  - [    -0.000103260804685,    -6.534808615210305,    15.028634723201497 ] # c
  points:
  - symbol: Li # 1
    coordinates: [  0.142805100850640,  0.263253996586094,  0.073071144450295 ]
    mass: 6.940000
    reduced_to: 1
  - symbol: Li # 2
    coordinates: [  0.642805100850640,  0.263253996586094,  0.073071144450295 ]
    mass: 6.940000
    reduced_to: 1
  - symbol: Li # 3
    coordinates: [  0.142805100850640,  0.763253996586094,  0.073071144450295 ]
    mass: 6.940000
    reduced_to: 1
  - symbol: Li # 4
    coordinates: [  0.642805100850640,  0.763253996586094,  0.073071144450295 ]
    mass: 6.940000
    reduced_to: 1
  - symbol: Li # 5
    coordinates: [  0.142805100850640,  0.263253996586094,  0.573071144450295 ]
    mass: 6.940000
    reduced_to: 1
  - symbol: Li # 6
    coordinates: [  0.642805100850640,  0.263253996586094,  0.573071144450295 ]
    mass: 6.940000
    reduced_to: 1
  - symbol: Li # 7
    coordinates: [  0.142805100850640,  0.763253996586094,  0.573071144450295 ]
    mass: 6.940000
    reduced_to: 1
  - symbol: Li # 8
    coordinates: [  0.642805100850640,  0.763253996586094,  0.573071144450295 ]
    mass: 6.940000
    reduced_to: 1
  - symbol: Li # 9
    coordinates: [  0.444249463907639,  0.368499508867637,  0.177521507653836 ]
    mass: 6.940000
    reduced_to: 9
  - symbol: Li # 10
    coordinates: [  0.944249463907639,  0.368499508867637,  0.177521507653836 ]
    mass: 6.940000
    reduced_to: 9
  - symbol: Li # 11
    coordinates: [  0.444249463907639,  0.868499508867637,  0.177521507653836 ]
    mass: 6.940000
    reduced_to: 9
  - symbol: Li # 12
    coordinates: [  0.944249463907639,  0.868499508867637,  0.177521507653836 ]
    mass: 6.940000
    reduced_to: 9
  - symbol: Li # 13
    coordinates: [  0.444249463907639,  0.368499508867637,  0.677521507653836 ]
    mass: 6.940000
    reduced_to: 9
  - symbol: Li # 14
    coordinates: [  0.944249463907639,  0.368499508867637,  0.677521507653836 ]
    mass: 6.940000
    reduced_to: 9
  - symbol: Li # 15
    coordinates: [  0.444249463907639,  0.868499508867637,  0.677521507653836 ]
    mass: 6.940000
    reduced_to: 9
  - symbol: Li # 16
    coordinates: [  0.944249463907639,  0.868499508867637,  0.677521507653836 ]
    mass: 6.940000
    reduced_to: 9
  - symbol: Li # 17
    coordinates: [  0.308773137692982,  0.263988345952611,  0.323380218242811 ]
    mass: 6.940000
    reduced_to: 17
  - symbol: Li # 18
    coordinates: [  0.808773137692982,  0.263988345952611,  0.323380218242811 ]
    mass: 6.940000
    reduced_to: 17
  - symbol: Li # 19
    coordinates: [  0.308773137692982,  0.763988345952611,  0.323380218242811 ]
    mass: 6.940000
    reduced_to: 17
  - symbol: Li # 20
    coordinates: [  0.808773137692982,  0.763988345952611,  0.323380218242811 ]
    mass: 6.940000
    reduced_to: 17
  - symbol: Li # 21
    coordinates: [  0.308773137692982,  0.263988345952611,  0.823380218242811 ]
    mass: 6.940000
    reduced_to: 17
  - symbol: Li # 22
    coordinates: [  0.808773137692982,  0.263988345952611,  0.823380218242811 ]
    mass: 6.940000
    reduced_to: 17
  - symbol: Li # 23
    coordinates: [  0.308773137692982,  0.763988345952611,  0.823380218242811 ]
    mass: 6.940000
    reduced_to: 17
  - symbol: Li # 24
    coordinates: [  0.808773137692982,  0.763988345952611,  0.823380218242811 ]
    mass: 6.940000
    reduced_to: 17
  - symbol: Li # 25
    coordinates: [  0.110489074665405,  0.368908866304325,  0.428029482065288 ]
    mass: 6.940000
    reduced_to: 25
  - symbol: Li # 26
    coordinates: [  0.610489074665405,  0.368908866304325,  0.428029482065288 ]
    mass: 6.940000
    reduced_to: 25
  - symbol: Li # 27
    coordinates: [  0.110489074665405,  0.868908866304325,  0.428029482065288 ]
    mass: 6.940000
    reduced_to: 25
  - symbol: Li # 28
    coordinates: [  0.610489074665405,  0.868908866304325,  0.428029482065288 ]
    mass: 6.940000
    reduced_to: 25
  - symbol: Li # 29
    coordinates: [  0.110489074665405,  0.368908866304325,  0.928029482065288 ]
    mass: 6.940000
    reduced_to: 25
  - symbol: Li # 30
    coordinates: [  0.610489074665405,  0.368908866304325,  0.928029482065288 ]
    mass: 6.940000
    reduced_to: 25
  - symbol: Li # 31
    coordinates: [  0.110489074665405,  0.868908866304325,  0.928029482065288 ]
    mass: 6.940000
    reduced_to: 25
  - symbol: Li # 32
    coordinates: [  0.610489074665405,  0.868908866304325,  0.928029482065288 ]
    mass: 6.940000
    reduced_to: 25
  - symbol: Sn # 33
    coordinates: [  0.009567032734495,  0.170988782088941,  0.228421560216963 ]
    mass: 118.710000
    reduced_to: 33
  - symbol: Sn # 34
    coordinates: [  0.509567032734495,  0.170988782088941,  0.228421560216963 ]
    mass: 118.710000
    reduced_to: 33
  - symbol: Sn # 35
    coordinates: [  0.009567032734495,  0.670988782088941,  0.228421560216963 ]
    mass: 118.710000
    reduced_to: 33
  - symbol: Sn # 36
    coordinates: [  0.509567032734495,  0.670988782088941,  0.228421560216963 ]
    mass: 118.710000
    reduced_to: 33
  - symbol: Sn # 37
    coordinates: [  0.009567032734495,  0.170988782088941,  0.728421560216963 ]
    mass: 118.710000
    reduced_to: 33
  - symbol: Sn # 38
    coordinates: [  0.509567032734495,  0.170988782088941,  0.728421560216963 ]
    mass: 118.710000
    reduced_to: 33
  - symbol: Sn # 39
    coordinates: [  0.009567032734495,  0.670988782088941,  0.728421560216963 ]
    mass: 118.710000
    reduced_to: 33
  - symbol: Sn # 40
    coordinates: [  0.509567032734495,  0.670988782088941,  0.728421560216963 ]
    mass: 118.710000
    reduced_to: 33
  - symbol: Sn # 41
    coordinates: [  0.048660880617543,  0.066699574278219,  0.375175686438622 ]
    mass: 118.710000
    reduced_to: 41
  - symbol: Sn # 42
    coordinates: [  0.548660880617543,  0.066699574278219,  0.375175686438622 ]
    mass: 118.710000
    reduced_to: 41
  - symbol: Sn # 43
    coordinates: [  0.048660880617543,  0.566699574278219,  0.375175686438622 ]
    mass: 118.710000
    reduced_to: 41
  - symbol: Sn # 44
    coordinates: [  0.548660880617543,  0.566699574278219,  0.375175686438622 ]
    mass: 118.710000
    reduced_to: 41
  - symbol: Sn # 45
    coordinates: [  0.048660880617543,  0.066699574278219,  0.875175686438622 ]
    mass: 118.710000
    reduced_to: 41
  - symbol: Sn # 46
    coordinates: [  0.548660880617543,  0.066699574278219,  0.875175686438622 ]
    mass: 118.710000
    reduced_to: 41
  - symbol: Sn # 47
    coordinates: [  0.048660880617543,  0.566699574278219,  0.875175686438622 ]
    mass: 118.710000
    reduced_to: 41
  - symbol: Sn # 48
    coordinates: [  0.548660880617543,  0.566699574278219,  0.875175686438622 ]
    mass: 118.710000
    reduced_to: 41
  - symbol: Sn # 49
    coordinates: [  0.204783145742310,  0.065818362961426,  0.125781003735292 ]
    mass: 118.710000
    reduced_to: 49
  - symbol: Sn # 50
    coordinates: [  0.704783145742310,  0.065818362961426,  0.125781003735292 ]
    mass: 118.710000
    reduced_to: 49
  - symbol: Sn # 51
    coordinates: [  0.204783145742310,  0.565818362961426,  0.125781003735292 ]
    mass: 118.710000
    reduced_to: 49
  - symbol: Sn # 52
    coordinates: [  0.704783145742310,  0.565818362961426,  0.125781003735292 ]
    mass: 118.710000
    reduced_to: 49
  - symbol: Sn # 53
    coordinates: [  0.204783145742310,  0.065818362961426,  0.625781003735292 ]
    mass: 118.710000
    reduced_to: 49
  - symbol: Sn # 54
    coordinates: [  0.704783145742310,  0.065818362961426,  0.625781003735292 ]
    mass: 118.710000
    reduced_to: 49
  - symbol: Sn # 55
    coordinates: [  0.204783145742310,  0.565818362961426,  0.625781003735292 ]
    mass: 118.710000
    reduced_to: 49
  - symbol: Sn # 56
    coordinates: [  0.704783145742310,  0.565818362961426,  0.625781003735292 ]
    mass: 118.710000
    reduced_to: 49
  - symbol: Sn # 57
    coordinates: [  0.405625425090400,  0.462065769442633,  0.022557969831302 ]
    mass: 118.710000
    reduced_to: 57
  - symbol: Sn # 58
    coordinates: [  0.905625425090400,  0.462065769442633,  0.022557969831302 ]
    mass: 118.710000
    reduced_to: 57
  - symbol: Sn # 59
    coordinates: [  0.405625425090400,  0.962065769442633,  0.022557969831302 ]
    mass: 118.710000
    reduced_to: 57
  - symbol: Sn # 60
    coordinates: [  0.905625425090400,  0.962065769442633,  0.022557969831302 ]
    mass: 118.710000
    reduced_to: 57
  - symbol: Sn # 61
    coordinates: [  0.405625425090400,  0.462065769442633,  0.522557969831302 ]
    mass: 118.710000
    reduced_to: 57
  - symbol: Sn # 62
    coordinates: [  0.905625425090400,  0.462065769442633,  0.522557969831302 ]
    mass: 118.710000
    reduced_to: 57
  - symbol: Sn # 63
    coordinates: [  0.405625425090400,  0.962065769442633,  0.522557969831302 ]
    mass: 118.710000
    reduced_to: 57
  - symbol: Sn # 64
    coordinates: [  0.905625425090400,  0.962065769442633,  0.522557969831302 ]
    mass: 118.710000
    reduced_to: 57
  - symbol: Sn # 65
    coordinates: [  0.347572388581202,  0.169924696270423,  0.477920150189528 ]
    mass: 118.710000
    reduced_to: 65
  - symbol: Sn # 66
    coordinates: [  0.847572388581202,  0.169924696270423,  0.477920150189528 ]
    mass: 118.710000
    reduced_to: 65
  - symbol: Sn # 67
    coordinates: [  0.347572388581202,  0.669924696270423,  0.477920150189528 ]
    mass: 118.710000
    reduced_to: 65
  - symbol: Sn # 68
    coordinates: [  0.847572388581202,  0.669924696270423,  0.477920150189528 ]
    mass: 118.710000
    reduced_to: 65
  - symbol: Sn # 69
    coordinates: [  0.347572388581202,  0.169924696270423,  0.977920150189528 ]
    mass: 118.710000
    reduced_to: 65
  - symbol: Sn # 70
    coordinates: [  0.847572388581202,  0.169924696270423,  0.977920150189528 ]
    mass: 118.710000
    reduced_to: 65
  - symbol: Sn # 71
    coordinates: [  0.347572388581202,  0.669924696270423,  0.977920150189528 ]
    mass: 118.710000
    reduced_to: 65
  - symbol: Sn # 72
    coordinates: [  0.847572388581202,  0.669924696270423,  0.977920150189528 ]
    mass: 118.710000
    reduced_to: 65
  - symbol: Sn # 73
    coordinates: [  0.243834583599532,  0.461568752136625,  0.272316439086272 ]
    mass: 118.710000
    reduced_to: 73
  - symbol: Sn # 74
    coordinates: [  0.743834583599532,  0.461568752136625,  0.272316439086272 ]
    mass: 118.710000
    reduced_to: 73
  - symbol: Sn # 75
    coordinates: [  0.243834583599532,  0.961568752136625,  0.272316439086272 ]
    mass: 118.710000
    reduced_to: 73
  - symbol: Sn # 76
    coordinates: [  0.743834583599532,  0.961568752136625,  0.272316439086272 ]
    mass: 118.710000
    reduced_to: 73
  - symbol: Sn # 77
    coordinates: [  0.243834583599532,  0.461568752136625,  0.772316439086272 ]
    mass: 118.710000
    reduced_to: 73
  - symbol: Sn # 78
    coordinates: [  0.743834583599532,  0.461568752136625,  0.772316439086272 ]
    mass: 118.710000
    reduced_to: 73
  - symbol: Sn # 79
    coordinates: [  0.243834583599532,  0.961568752136625,  0.772316439086272 ]
    mass: 118.710000
    reduced_to: 73
  - symbol: Sn # 80
    coordinates: [  0.743834583599532,  0.961568752136625,  0.772316439086272 ]
    mass: 118.710000
    reduced_to: 73

displacements:
- atom:    1
  displacement:
    [   0.0100000000000000,  0.0000000000000000,  0.0000000000000000 ]
  forces:
  - [  -0.0066985692828894,  0.0125696770846844, -0.0376663878560066 ]
  - [   0.0052447859197855,  0.0132822394371033, -0.0379588417708874 ]
  - [   0.0049812383949757,  0.0137512609362602, -0.0379062183201313 ]
  - [   0.0050789751112461,  0.0129442587494850, -0.0379135571420193 ]
  - [   0.0051662120968103,  0.0133056826889515, -0.0379301309585571 ]
  - [   0.0051592774689198,  0.0133064202964306, -0.0379264615476131 ]
  - [   0.0051585976034403,  0.0133070088922977, -0.0379056185483932 ]
  - [   0.0051593557000160,  0.0133023299276829, -0.0379152931272984 ]
  - [   0.0222331732511520, -0.0117014199495316,  0.0388981252908707 ]
  - [   0.0221206247806549, -0.0122538655996323,  0.0376068279147148 ]
  - [   0.0211044102907181, -0.0117840804159641,  0.0382499657571316 ]
  - [   0.0210268385708332, -0.0118399374186993,  0.0380920767784119 ]
  - [   0.0210530757904053, -0.0120344609022141,  0.0381633527576923 ]
  - [   0.0210515260696411, -0.0120220072567463,  0.0382172726094723 ]
  - [   0.0210067592561245, -0.0120332501828671,  0.0382254719734192 ]
  - [   0.0211219284683466, -0.0120439305901527,  0.0381584987044334 ]
  - [  -0.0164215639233589,  0.0129235908389091, -0.0417378284037113 ]
  - [  -0.0162918120622635,  0.0128695666790009, -0.0417682304978371 ]
  - [  -0.0163321997970343,  0.0127101503312588, -0.0416633114218712 ]
  - [  -0.0163151435554028,  0.0128169842064381, -0.0417523682117462 ]
  - [  -0.0164184533059597,  0.0127266012132168, -0.0419536903500557 ]
  - [  -0.0162845756858587,  0.0128121487796307, -0.0417451485991478 ]
  - [  -0.0163117274641991,  0.0128272920846939, -0.0417375899851322 ]
  - [  -0.0163332745432854,  0.0128597654402256, -0.0417231135070324 ]
  - [  -0.0062173437327147, -0.0091558955609798,  0.0329130254685879 ]
  - [  -0.0062086135149002, -0.0091840587556362,  0.0329931825399399 ]
  - [  -0.0062490925192833, -0.0091543309390545,  0.0330097675323486 ]
  - [  -0.0062211938202381, -0.0091730616986752,  0.0330078676342964 ]
  - [  -0.0061068013310432, -0.0096343681216240,  0.0335491225123405 ]
  - [  -0.0061261579394341, -0.0091551877558231,  0.0329869352281094 ]
  - [  -0.0064016953110695, -0.0093402191996574,  0.0330390296876431 ]
  - [  -0.0062688663601875, -0.0092641673982143,  0.0328977592289448 ]
  - [  -0.0072328224778175,  0.0063993223011494, -0.0343633517622948 ]
  - [  -0.0075897574424744,  0.0061333104968071, -0.0336767248809338 ]
  - [  -0.0076806209981441,  0.0061292350292206, -0.0336955189704895 ]
  - [  -0.0076669957488775,  0.0061553157866001, -0.0337562188506126 ]
  - [  -0.0076851285994053,  0.0061745196580887, -0.0336857065558434 ]
  - [  -0.0076548270881176,  0.0061439834535122, -0.0337218046188354 ]
  - [  -0.0076907761394978,  0.0061194822192192, -0.0337535105645657 ]
  - [  -0.0076810698956251,  0.0062030181288719, -0.0337395779788494 ]
  - [   0.0093039721250534, -0.0109519390389323,  0.0039037670940161 ]
  - [   0.0094048492610455, -0.0109782945364714,  0.0038931914605200 ]
  - [   0.0094036385416985, -0.0110079217702150,  0.0038082315586507 ]
  - [   0.0094083510339260, -0.0109190698713064,  0.0039673722349107 ]
  - [   0.0090759024024010, -0.0111682508140802,  0.0037766608875245 ]
  - [   0.0099525004625320, -0.0109379775822163,  0.0038441705983132 ]
  - [   0.0093692205846310, -0.0109357237815857,  0.0038650603964925 ]
  - [   0.0093732848763466, -0.0110141541808844,  0.0039072213694453 ]
  - [  -0.0091071426868439,  0.0060607017949224, -0.0097628366202116 ]
  - [  -0.0098173692822456,  0.0084180273115635, -0.0100733097642660 ]
  - [  -0.0096151679754257,  0.0076148631051183, -0.0103898048400879 ]
  - [  -0.0102334506809711,  0.0082897730171680, -0.0102749299257994 ]
  - [  -0.0100823044776917,  0.0082788858562708, -0.0102197472006083 ]
  - [  -0.0100887008011341,  0.0082335434854031, -0.0101550277322531 ]
  - [  -0.0100977495312691,  0.0082558682188392, -0.0101846363395452 ]
  - [  -0.0100852623581886,  0.0082470634952188, -0.0101687125861645 ]
  - [  -0.0187575817108154, -0.0109241046011448,  0.0303397215902805 ]
  - [  -0.0200619436800480, -0.0129369385540485,  0.0302202887833118 ]
  - [  -0.0204620976001024, -0.0127552188932896,  0.0301883071660995 ]
  - [  -0.0196309033781290, -0.0115444622933865,  0.0304460860788822 ]
  - [  -0.0202921219170094, -0.0127279795706272,  0.0301685184240341 ]
  - [  -0.0203031823039055, -0.0127595216035843,  0.0301888138055801 ]
  - [  -0.0203133653849363, -0.0127433966845274,  0.0301649831235409 ]
  - [  -0.0202744957059622, -0.0127342473715544,  0.0301502924412489 ]
  - [   0.0190152488648891,  0.0134242642670870, -0.0169051531702280 ]
  - [   0.0190205052495003,  0.0134384147822857, -0.0169655550271273 ]
  - [   0.0190822575241327,  0.0134446397423744, -0.0169194750487804 ]
  - [   0.0189980864524841,  0.0134291164577007, -0.0169507153332233 ]
  - [   0.0221491698175669,  0.0136006958782673, -0.0182985514402390 ]
  - [   0.0215738862752914,  0.0136094912886620, -0.0162038039416075 ]
  - [   0.0190126653760672,  0.0133246034383774, -0.0169289931654930 ]
  - [   0.0189443677663803,  0.0134562589228153, -0.0169516988098621 ]
  - [   0.0061306860297918, -0.0089865326881409,  0.0350143685936928 ]
  - [   0.0055393846705556, -0.0090330950915813,  0.0352975726127625 ]
  - [   0.0060893353074789, -0.0090528950095177,  0.0353668443858624 ]
  - [   0.0060090832412243, -0.0090373419225216,  0.0353225469589233 ]
  - [   0.0060439044609666, -0.0089423060417175,  0.0352125987410545 ]
  - [   0.0060194358229637, -0.0090112574398518,  0.0352756977081299 ]
  - [   0.0059083253145218, -0.0090023837983608,  0.0354413464665413 ]
  - [   0.0058170258998871, -0.0090201348066330,  0.0351771898567677 ]
- atom:    1
  displacement:
    [  -0.0100000000000000,  0.0000000000000000,  0.0000000000000000 ]
  forces:
  - [   0.0169629584997892,  0.0140391141176224, -0.0381066054105759 ]
  - [   0.0050821993499994,  0.0133231952786446, -0.0378889478743076 ]
  - [   0.0053450725972652,  0.0128621198236942, -0.0379367843270302 ]
  - [   0.0052491687238216,  0.0136618874967098, -0.0379319377243519 ]
  - [   0.0051608402282000,  0.0133022144436836, -0.0379138290882111 ]
  - [   0.0051692333072424,  0.0133025571703911, -0.0379189439117908 ]
  - [   0.0051679611206055,  0.0133015513420105, -0.0379377827048302 ]
  - [   0.0051673166453838,  0.0133065953850746, -0.0379284769296646 ]
  - [   0.0199126619845629, -0.0123495608568192,  0.0375347137451172 ]
  - [   0.0199537146836519, -0.0117977336049080,  0.0388266295194626 ]
  - [   0.0210062079131603, -0.0122773684561253,  0.0381579734385014 ]
  - [   0.0210861489176750, -0.0122162699699402,  0.0383160114288330 ]
  - [   0.0210586152970791, -0.0120264291763306,  0.0382469221949577 ]
  - [   0.0210578106343746, -0.0120398961007595,  0.0381917506456375 ]
  - [   0.0211041681468487, -0.0120281577110291,  0.0381858497858047 ]
  - [   0.0209897086024284, -0.0120167508721352,  0.0382518619298935 ]
  - [  -0.0162681881338358,  0.0126733519136906, -0.0417846590280533 ]
  - [  -0.0164022874087095,  0.0127259604632854, -0.0417522750794888 ]
  - [  -0.0163589995354414,  0.0128873996436596, -0.0418576747179031 ]
  - [  -0.0163768418133259,  0.0127801038324833, -0.0417682714760303 ]
  - [  -0.0162728037685156,  0.0128699503839016, -0.0415707305073738 ]
  - [  -0.0164083093404770,  0.0127823017537594, -0.0417757704854012 ]
  - [  -0.0163791067898273,  0.0127689279615879, -0.0417841300368309 ]
  - [  -0.0163588728755713,  0.0127371177077293, -0.0417991429567337 ]
  - [  -0.0062313340604305, -0.0091895349323750,  0.0330709517002106 ]
  - [  -0.0062392409890890, -0.0091589279472828,  0.0329909846186638 ]
  - [  -0.0061995685100555, -0.0091898329555988,  0.0329737290740013 ]
  - [  -0.0062271766364574, -0.0091704353690147,  0.0329756662249565 ]
  - [  -0.0063379909843206, -0.0087087675929070,  0.0324340760707855 ]
  - [  -0.0063225813210011, -0.0091897957026958,  0.0329966358840466 ]
  - [  -0.0060496740043163, -0.0090069696307182,  0.0329475626349449 ]
  - [  -0.0061834286898375, -0.0090798400342464,  0.0330876521766186 ]
  - [  -0.0081158149987459,  0.0058954134583473, -0.0331108830869198 ]
  - [  -0.0077653853222728,  0.0061614289879799, -0.0337897092103958 ]
  - [  -0.0076731927692890,  0.0061632283031940, -0.0337702631950378 ]
  - [  -0.0076844654977322,  0.0061391144990921, -0.0337104499340057 ]
  - [  -0.0076669063419104,  0.0061199553310871, -0.0337797552347183 ]
  - [  -0.0077002700418234,  0.0061513409018517, -0.0337462164461613 ]
  - [  -0.0076615978032351,  0.0061753466725349, -0.0337123274803162 ]
  - [  -0.0076735131442547,  0.0060923621058464, -0.0337271913886070 ]
  - [   0.0094776675105095, -0.0109805725514889,  0.0039011870976537 ]
  - [   0.0093812234699726, -0.0109560079872608,  0.0039095822721720 ]
  - [   0.0093779414892197, -0.0109223090112209,  0.0039944942109287 ]
  - [   0.0093755684792995, -0.0110147893428802,  0.0038355477154255 ]
  - [   0.0097068920731544, -0.0107599142938852,  0.0040362244471908 ]
  - [   0.0088360346853733, -0.0109933279454708,  0.0039611221291125 ]
  - [   0.0094137191772461, -0.0109937768429518,  0.0039354665204883 ]
  - [   0.0094084925949574, -0.0109235271811485,  0.0038976278156042 ]
  - [  -0.0110608264803886,  0.0104001909494400, -0.0105912033468485 ]
  - [  -0.0103367716073990,  0.0081079509109259, -0.0102996807545424 ]
  - [  -0.0105598457157612,  0.0088978279381990, -0.0099760182201862 ]
  - [  -0.0099470801651478,  0.0082194078713655, -0.0100956689566374 ]
  - [  -0.0100949965417385,  0.0082318559288979, -0.0101514458656311 ]
  - [  -0.0100905261933804,  0.0082751139998436, -0.0102155040949583 ]
  - [  -0.0100793838500977,  0.0082563962787390, -0.0101868920028210 ]
  - [  -0.0100915692746639,  0.0082651395350695, -0.0102023100480437 ]
  - [  -0.0218146350234747, -0.0145135596394539,  0.0300021730363369 ]
  - [  -0.0205178651958704, -0.0125629752874374,  0.0301274657249451 ]
  - [  -0.0201315451413393, -0.0127381961792707,  0.0301584266126156 ]
  - [  -0.0209485124796629, -0.0139519814401865,  0.0299001187086105 ]
  - [  -0.0203024279326200, -0.0127628147602081,  0.0301762670278549 ]
  - [  -0.0202913675457239, -0.0127331726253033,  0.0301559641957283 ]
  - [  -0.0202786978334188, -0.0127477012574673,  0.0301803909242153 ]
  - [  -0.0203188024461269, -0.0127577017992735,  0.0301941595971584 ]
  - [   0.0190222803503275,  0.0134327672421932, -0.0169988758862019 ]
  - [   0.0190172567963600,  0.0134217645972967, -0.0169377680867910 ]
  - [   0.0189559049904346,  0.0134122818708420, -0.0169881209731102 ]
  - [   0.0190390367060900,  0.0134276077151299, -0.0169530361890793 ]
  - [   0.0159810986369848,  0.0132498368620872, -0.0156565010547638 ]
  - [   0.0163501873612404,  0.0132306460291147, -0.0177621357142925 ]
  - [   0.0190253015607595,  0.0135318841785192, -0.0169719941914082 ]
  - [   0.0190960150212049,  0.0134022254496813, -0.0169517304748297 ]
  - [   0.0058748479932547, -0.0090576112270355,  0.0355309247970581 ]
  - [   0.0064659602940083, -0.0090041607618332,  0.0352635383605957 ]
  - [   0.0059164995327592, -0.0089862458407879,  0.0351950153708458 ]
  - [   0.0059947678819299, -0.0090006589889526,  0.0352427996695042 ]
  - [   0.0059601124376059, -0.0090964511036873,  0.0353537425398827 ]
  - [   0.0059856455773115, -0.0090260766446590,  0.0352898687124252 ]
  - [   0.0060927290469408, -0.0090363435447216,  0.0351231470704079 ]
  - [   0.0061935000121593, -0.0090193226933479,  0.0353873856365681 ]
- atom:    1
  displacement:
    [  -0.0046709417521389,  0.0088420757262153,  0.0000000000000000 ]
  forces:
  - [   0.0100280046463013,  0.0017987862229347, -0.0394102372229099 ]
  - [   0.0051058549433947,  0.0133729688823223, -0.0379192791879177 ]
  - [   0.0056450664997101,  0.0124517008662224, -0.0378836542367935 ]
  - [   0.0048877410590649,  0.0128278732299805, -0.0378883890807629 ]
  - [   0.0051638111472130,  0.0133150927722454, -0.0379152856767178 ]
  - [   0.0051683112978935,  0.0133104249835014, -0.0379147045314312 ]
  - [   0.0051678381860256,  0.0133031569421291, -0.0379317104816437 ]
  - [   0.0051632001996040,  0.0132969878613949, -0.0379218757152557 ]
  - [   0.0207414329051971, -0.0121247470378876,  0.0380386561155319 ]
  - [   0.0202673394232988, -0.0118780173361301,  0.0386986210942268 ]
  - [   0.0208149272948503, -0.0127438232302666,  0.0380315221846104 ]
  - [   0.0209111794829369, -0.0116599723696709,  0.0381018668413162 ]
  - [   0.0210489798337221, -0.0120268389582634,  0.0381915867328644 ]
  - [   0.0210598371922970, -0.0120334103703499,  0.0381972528994083 ]
  - [   0.0210826694965363, -0.0120319165289402,  0.0382148139178753 ]
  - [   0.0210353974252939, -0.0120863839983940,  0.0379841402173042 ]
  - [  -0.0162450019270182,  0.0125469081103802, -0.0418515652418137 ]
  - [  -0.0163930635899305,  0.0128106251358986, -0.0417407341301441 ]
  - [  -0.0164025407284498,  0.0130038298666477, -0.0420306026935577 ]
  - [  -0.0163879711180925,  0.0128153599798679, -0.0417318604886532 ]
  - [  -0.0164208840578794,  0.0126492530107498, -0.0417769178748131 ]
  - [  -0.0164363477379084,  0.0128366872668266, -0.0418106839060783 ]
  - [  -0.0163771696388721,  0.0128101035952568, -0.0417880527675152 ]
  - [  -0.0162737052887678,  0.0129360146820545, -0.0416604690253735 ]
  - [  -0.0062132440507412, -0.0091318078339100,  0.0329995974898338 ]
  - [  -0.0062423739582300, -0.0091531090438366,  0.0329933241009712 ]
  - [  -0.0061973985284567, -0.0091633312404156,  0.0329774543642998 ]
  - [  -0.0062270388007164, -0.0091677159070969,  0.0329964682459831 ]
  - [  -0.0066936388611794, -0.0080699957907200,  0.0315420329570770 ]
  - [  -0.0062575638294220, -0.0091483071446419,  0.0329913496971130 ]
  - [  -0.0062905326485634, -0.0092448219656944,  0.0329430326819420 ]
  - [  -0.0062906593084335, -0.0090517736971378,  0.0329511389136314 ]
  - [  -0.0069266390055418,  0.0068578869104385, -0.0353073738515377 ]
  - [  -0.0077578276395798,  0.0060961730778217, -0.0338074415922165 ]
  - [  -0.0075902380049229,  0.0061494782567024, -0.0337585806846619 ]
  - [  -0.0077374149113894,  0.0061159133911133, -0.0337445586919785 ]
  - [  -0.0076709110289812,  0.0061532594263554, -0.0339378677308559 ]
  - [  -0.0076958797872066,  0.0061499103903770, -0.0337471179664135 ]
  - [  -0.0076673775911331,  0.0061902627348900, -0.0336992368102074 ]
  - [  -0.0076891388744116,  0.0061588063836098, -0.0337524861097336 ]
  - [   0.0093954987823963, -0.0110399359837174,  0.0039485008455813 ]
  - [   0.0094028003513813, -0.0109448768198490,  0.0038857259787619 ]