phonopy:
  version: "2.37.1"
  frequency_unit_conversion_factor: 15.633302
  symmetry_tolerance: 1.00000e-05

space_group:
  type: "Pm-3m"
  number: 221
  Hall_symbol: "-P 4 2 3"

primitive_matrix:
- [  1.000000000000000,  0.000000000000000,  0.000000000000000 ]
- [  0.000000000000000,  1.000000000000000,  0.000000000000000 ]
- [  0.000000000000000,  0.000000000000000,  1.000000000000000 ]

supercell_matrix:
- [   3,   0,   0 ]
- [   0,   3,   0 ]
- [   0,   0,   3 ]

primitive_cell:
  lattice:
  - [     4.650860770700000,     0.000000000000000,     0.000000000000000 ] # a
  - [     0.000000000000000,     4.650860770700000,     0.000000000000000 ] # b
  - [     0.000000000000000,     0.000000000000000,     4.650860770700000 ] # c
  points:
  - symbol: Li # 1
    coordinates: [  0.000000000000000,  0.000000000000000,  0.000000000000000 ]
    mass: 6.940000
  - symbol: Sn # 2
    coordinates: [  0.000000000000000,  0.500000000000000,  0.500000000000000 ]
    mass: 118.710000
  - symbol: Sn # 3
    coordinates: [  0.500000000000000,  0.000000000000000,  0.500000000000000 ]
    mass: 118.710000
  - symbol: Sn # 4
    coordinates: [  0.500000000000000,  0.500000000000000,  0.000000000000000 ]
    mass: 118.710000
  reciprocal_lattice: # without 2pi
  - [     0.215013961780991,     0.000000000000000,     0.000000000000000 ] # a*
  - [     0.000000000000000,     0.215013961780991,     0.000000000000000 ] # b*
  - [     0.000000000000000,     0.000000000000000,     0.215013961780991 ] # c*

unit_cell:
  lattice:
  - [     4.650860770700000,     0.000000000000000,     0.000000000000000 ] # a
  - [     0.000000000000000,     4.650860770700000,     0.000000000000000 ] # b
  - [     0.000000000000000,     0.000000000000000,     4.650860770700000 ] # c
  points:
  - symbol: Li # 1
    coordinates: [  0.000000000000000,  0.000000000000000,  0.000000000000000 ]
    mass: 6.940000
    reduced_to: 1
  - symbol: Sn # 2
    coordinates: [  0.000000000000000,  0.500000000000000,  0.500000000000000 ]
    mass: 118.710000
    reduced_to: 2
  - symbol: Sn # 3
    coordinates: [  0.500000000000000,  0.000000000000000,  0.500000000000000 ]
    mass: 118.710000
    reduced_to: 3
  - symbol: Sn # 4
    coordinates: [  0.500000000000000,  0.500000000000000,  0.000000000000000 ]
    mass: 118.710000
    reduced_to: 4

supercell:
  lattice:
  - [    13.952582312099999,     0.000000000000000,     0.000000000000000 ] # a
  - [     0.000000000000000,    13.952582312099999,     0.000000000000000 ] # b
  - [     0.000000000000000,     0.000000000000000,    13.952582312099999 ] # c
  points:
  - symbol: Li # 1
    coordinates: [  0.000000000000000,  0.000000000000000,  0.000000000000000 ]
    mass: 6.940000
    reduced_to: 1
  - symbol: Li # 2
    coordinates: [  0.333333333333333,  0.000000000000000,  0.000000000000000 ]
    mass: 6.940000
    reduced_to: 1
  - symbol: Li # 3
    coordinates: [  0.666666666666667,  0.000000000000000,  0.000000000000000 ]
    mass: 6.940000
    reduced_to: 1
  - symbol: Li # 4
    coordinates: [  0.000000000000000,  0.333333333333333,  0.000000000000000 ]
    mass: 6.940000
    reduced_to: 1
  - symbol: Li # 5
    coordinates: [  0.333333333333333,  0.333333333333333,  0.000000000000000 ]
    mass: 6.940000
    reduced_to: 1
  - symbol: Li # 6
    coordinates: [  0.666666666666667,  0.333333333333333,  0.000000000000000 ]
    mass: 6.940000
    reduced_to: 1
  - symbol: Li # 7
    coordinates: [  0.000000000000000,  0.666666666666667,  0.000000000000000 ]
    mass: 6.940000
    reduced_to: 1
  - symbol: Li # 8
    coordinates: [  0.333333333333333,  0.666666666666667,  0.000000000000000 ]
    mass: 6.940000
    reduced_to: 1
  - symbol: Li # 9
    coordinates: [  0.666666666666667,  0.666666666666667,  0.000000000000000 ]
    mass: 6.940000
    reduced_to: 1
  - symbol: Li # 10
    coordinates: [  0.000000000000000,  0.000000000000000,  0.333333333333333 ]
    mass: 6.940000
    reduced_to: 1
  - symbol: Li # 11
    coordinates: [  0.333333333333333,  0.000000000000000,  0.333333333333333 ]
    mass: 6.940000
    reduced_to: 1
  - symbol: Li # 12
    coordinates: [  0.666666666666667,  0.000000000000000,  0.333333333333333 ]
    mass: 6.940000
    reduced_to: 1
  - symbol: Li # 13
    coordinates: [  0.000000000000000,  0.333333333333333,  0.333333333333333 ]
    mass: 6.940000
    reduced_to: 1
  - symbol: Li # 14
    coordinates: [  0.333333333333333,  0.333333333333333,  0.333333333333333 ]
    mass: 6.940000
    reduced_to: 1
  - symbol: Li # 15
    coordinates: [  0.666666666666667,  0.333333333333333,  0.333333333333333 ]
    mass: 6.940000
    reduced_to: 1
  - symbol: Li # 16
    coordinates: [  0.000000000000000,  0.666666666666667,  0.333333333333333 ]
    mass: 6.940000
    reduced_to: 1
  - symbol: Li # 17
    coordinates: [  0.333333333333333,  0.666666666666667,  0.333333333333333 ]
    mass: 6.940000
    reduced_to: 1
  - symbol: Li # 18
    coordinates: [  0.666666666666667,  0.666666666666667,  0.333333333333333 ]
    mass: 6.940000
    reduced_to: 1
  - symbol: Li # 19
    coordinates: [  0.000000000000000,  0.000000000000000,  0.666666666666667 ]
    mass: 6.940000
    reduced_to: 1
  - symbol: Li # 20
    coordinates: [  0.333333333333333,  0.000000000000000,  0.666666666666667 ]
    mass: 6.940000
    reduced_to: 1
  - symbol: Li # 21
    coordinates: [  0.666666666666667,  0.000000000000000,  0.666666666666667 ]
    mass: 6.940000
    reduced_to: 1
  - symbol: Li # 22
    coordinates: [  0.000000000000000,  0.333333333333333,  0.666666666666667 ]
    mass: 6.940000
    reduced_to: 1
  - symbol: Li # 23
    coordinates: [  0.333333333333333,  0.333333333333333,  0.666666666666667 ]
    mass: 6.940000
    reduced_to: 1
  - symbol: Li # 24
    coordinates: [  0.666666666666667,  0.333333333333333,  0.666666666666667 ]
    mass: 6.940000
    reduced_to: 1
  - symbol: Li # 25
    coordinates: [  0.000000000000000,  0.666666666666667,  0.666666666666667 ]
    mass: 6.940000
    reduced_to: 1
  - symbol: Li # 26
    coordinates: [  0.333333333333333,  0.666666666666667,  0.666666666666667 ]
    mass: 6.940000
    reduced_to: 1
  - symbol: Li # 27
    coordinates: [  0.666666666666667,  0.666666666666667,  0.666666666666667 ]
    mass: 6.940000
    reduced_to: 1
  - symbol: Sn # 28
    coordinates: [  0.000000000000000,  0.166666666666667,  0.166666666666667 ]
    mass: 118.710000
    reduced_to: 28
  - symbol: Sn # 29
    coordinates: [  0.333333333333333,  0.166666666666667,  0.166666666666667 ]
    mass: 118.710000
    reduced_to: 28
  - symbol: Sn # 30
    coordinates: [  0.666666666666667,  0.166666666666667,  0.166666666666667 ]
    mass: 118.710000
    reduced_to: 28
  - symbol: Sn # 31
    coordinates: [  0.000000000000000,  0.500000000000000,  0.166666666666667 ]
    mass: 118.710000
    reduced_to: 28
  - symbol: Sn # 32
    coordinates: [  0.333333333333333,  0.500000000000000,  0.166666666666667 ]
    mass: 118.710000
    reduced_to: 28
  - symbol: Sn # 33
    coordinates: [  0.666666666666667,  0.500000000000000,  0.166666666666667 ]
    mass: 118.710000
    reduced_to: 28
  - symbol: Sn # 34
    coordinates: [  0.000000000000000,  0.833333333333333,  0.166666666666667 ]
    mass: 118.710000
    reduced_to: 28
  - symbol: Sn # 35
    coordinates: [  0.333333333333333,  0.833333333333333,  0.166666666666667 ]
    mass: 118.710000
    reduced_to: 28
  - symbol: Sn # 36
    coordinates: [  0.666666666666667,  0.833333333333333,  0.166666666666667 ]
    mass: 118.710000
    reduced_to: 28
  - symbol: Sn # 37
    coordinates: [  0.000000000000000,  0.166666666666667,  0.500000000000000 ]
    mass: 118.710000
    reduced_to: 28
  - symbol: Sn # 38
    coordinates: [  0.333333333333333,  0.166666666666667,  0.500000000000000 ]
    mass: 118.710000
    reduced_to: 28
  - symbol: Sn # 39
    coordinates: [  0.666666666666667,  0.166666666666667,  0.500000000000000 ]
    mass: 118.710000
    reduced_to: 28
  - symbol: Sn # 40
    coordinates: [  0.000000000000000,  0.500000000000000,  0.500000000000000 ]
    mass: 118.710000
    reduced_to: 28
  - symbol: Sn # 41
    coordinates: [  0.333333333333333,  0.500000000000000,  0.500000000000000 ]
    mass: 118.710000
    reduced_to: 28
  - symbol: Sn # 42
    coordinates: [  0.666666666666667,  0.500000000000000,  0.500000000000000 ]
    mass: 118.710000
    reduced_to: 28
  - symbol: Sn # 43
    coordinates: [  0.000000000000000,  0.833333333333333,  0.500000000000000 ]
    mass: 118.710000
    reduced_to: 28
  - symbol: Sn # 44
    coordinates: [  0.333333333333333,  0.833333333333333,  0.500000000000000 ]
    mass: 118.710000
    reduced_to: 28
  - symbol: Sn # 45
    coordinates: [  0.666666666666667,  0.833333333333333,  0.500000000000000 ]
    mass: 118.710000
    reduced_to: 28
  - symbol: Sn # 46
    coordinates: [  0.000000000000000,  0.166666666666667,  0.833333333333333 ]
    mass: 118.710000
    reduced_to: 28
  - symbol: Sn # 47
    coordinates: [  0.333333333333333,  0.166666666666667,  0.833333333333333 ]
    mass: 118.710000
    reduced_to: 28
  - symbol: Sn # 48
    coordinates: [  0.666666666666667,  0.166666666666667,  0.833333333333333 ]
    mass: 118.710000
    reduced_to: 28
  - symbol: Sn # 49
    coordinates: [  0.000000000000000,  0.500000000000000,  0.833333333333333 ]
    mass: 118.710000
    reduced_to: 28
  - symbol: Sn # 50
    coordinates: [  0.333333333333333,  0.500000000000000,  0.833333333333333 ]
    mass: 118.710000
    reduced_to: 28
  - symbol: Sn # 51
    coordinates: [  0.666666666666667,  0.500000000000000,  0.833333333333333 ]
    mass: 118.710000
    reduced_to: 28
  - symbol: Sn # 52
    coordinates: [  0.000000000000000,  0.833333333333333,  0.833333333333333 ]
    mass: 118.710000
    reduced_to: 28
  - symbol: Sn # 53
    coordinates: [  0.333333333333333,  0.833333333333333,  0.833333333333333 ]
    mass: 118.710000
    reduced_to: 28
  - symbol: Sn # 54
    coordinates: [  0.666666666666667,  0.833333333333333,  0.833333333333333 ]
    mass: 118.710000
    reduced_to: 28
  - symbol: Sn # 55
    coordinates: [  0.166666666666667,  0.000000000000000,  0.166666666666667 ]
    mass: 118.710000
    reduced_to: 55
  - symbol: Sn # 56
    coordinates: [  0.500000000000000,  0.000000000000000,  0.166666666666667 ]
    mass: 118.710000
    reduced_to: 55
  - symbol: Sn # 57
    coordinates: [  0.833333333333333,  0.000000000000000,  0.166666666666667 ]
    mass: 118.710000
    reduced_to: 55
  - symbol: Sn # 58
    coordinates: [  0.166666666666667,  0.333333333333333,  0.166666666666667 ]
    mass: 118.710000
    reduced_to: 55
  - symbol: Sn # 59
    coordinates: [  0.500000000000000,  0.333333333333333,  0.166666666666667 ]
    mass: 118.710000
    reduced_to: 55
  - symbol: Sn # 60
    coordinates: [  0.833333333333333,  0.333333333333333,  0.166666666666667 ]
    mass: 118.710000
    reduced_to: 55
  - symbol: Sn # 61
    coordinates: [  0.166666666666667,  0.666666666666667,  0.166666666666667 ]
    mass: 118.710000
    reduced_to: 55
  - symbol: Sn # 62
    coordinates: [  0.500000000000000,  0.666666666666667,  0.166666666666667 ]
    mass: 118.710000
    reduced_to: 55
  - symbol: Sn # 63
    coordinates: [  0.833333333333333,  0.666666666666667,  0.166666666666667 ]
    mass: 118.710000
    reduced_to: 55
  - symbol: Sn # 64
    coordinates: [  0.166666666666667,  0.000000000000000,  0.500000000000000 ]
    mass: 118.710000
    reduced_to: 55
  - symbol: Sn # 65
    coordinates: [  0.500000000000000,  0.000000000000000,  0.500000000000000 ]
    mass: 118.710000
    reduced_to: 55
  - symbol: Sn # 66
    coordinates: [  0.833333333333333,  0.000000000000000,  0.500000000000000 ]
    mass: 118.710000
    reduced_to: 55
  - symbol: Sn # 67
    coordinates: [  0.166666666666667,  0.333333333333333,  0.500000000000000 ]
    mass: 118.710000
    reduced_to: 55
  - symbol: Sn # 68
    coordinates: [  0.500000000000000,  0.333333333333333,  0.500000000000000 ]
    mass: 118.710000
    reduced_to: 55
  - symbol: Sn # 69
    coordinates: [  0.833333333333333,  0.333333333333333,  0.500000000000000 ]
    mass: 118.710000
    reduced_to: 55
  - symbol: Sn # 70
    coordinates: [  0.166666666666667,  0.666666666666667,  0.500000000000000 ]
    mass: 118.710000
    reduced_to: 55
  - symbol: Sn # 71
    coordinates: [  0.500000000000000,  0.666666666666667,  0.500000000000000 ]
    mass: 118.710000
    reduced_to: 55
  - symbol: Sn # 72
    coordinates: [  0.833333333333333,  0.666666666666667,  0.500000000000000 ]
    mass: 118.710000
    reduced_to: 55
  - symbol: Sn # 73
    coordinates: [  0.166666666666667,  0.000000000000000,  0.833333333333333 ]
    mass: 118.710000
    reduced_to: 55
  - symbol: Sn # 74
    coordinates: [  0.500000000000000,  0.000000000000000,  0.833333333333333 ]
    mass: 118.710000
    reduced_to: 55
  - symbol: Sn # 75
    coordinates: [  0.833333333333333,  0.000000000000000,  0.833333333333333 ]
    mass: 118.710000
    reduced_to: 55
  - symbol: Sn # 76
    coordinates: [  0.166666666666667,  0.333333333333333,  0.833333333333333 ]
    mass: 118.710000
    reduced_to: 55
  - symbol: Sn # 77
    coordinates: [  0.500000000000000,  0.333333333333333,  0.833333333333333 ]
    mass: 118.710000
    reduced_to: 55
  - symbol: Sn # 78
    coordinates: [  0.833333333333333,  0.333333333333333,  0.833333333333333 ]
    mass: 118.710000
    reduced_to: 55
  - symbol: Sn # 79
    coordinates: [  0.166666666666667,  0.666666666666667,  0.833333333333333 ]
    mass: 118.710000
    reduced_to: 55
  - symbol: Sn # 80
    coordinates: [  0.500000000000000,  0.666666666666667,  0.833333333333333 ]
    mass: 118.710000
    reduced_to: 55
  - symbol: Sn # 81
    coordinates: [  0.833333333333333,  0.666666666666667,  0.833333333333333 ]
    mass: 118.710000
    reduced_to: 55
  - symbol: Sn # 82
    coordinates: [  0.166666666666667,  0.166666666666667,  0.000000000000000 ]
    mass: 118.710000
    reduced_to: 82
  - symbol: Sn # 83
    coordinates: [  0.500000000000000,  0.166666666666667,  0.000000000000000 ]
    mass: 118.710000
    reduced_to: 82
  - symbol: Sn # 84
    coordinates: [  0.833333333333333,  0.166666666666667,  0.000000000000000 ]
    mass: 118.710000
    reduced_to: 82
  - symbol: Sn # 85
    coordinates: [  0.166666666666667,  0.500000000000000,  0.000000000000000 ]
    mass: 118.710000
    reduced_to: 82
  - symbol: Sn # 86
    coordinates: [  0.500000000000000,  0.500000000000000,  0.000000000000000 ]
    mass: 118.710000
    reduced_to: 82
  - symbol: Sn # 87
    coordinates: [  0.833333333333333,  0.500000000000000,  0.000000000000000 ]
    mass: 118.710000
    reduced_to: 82
  - symbol: Sn # 88
    coordinates: [  0.166666666666667,  0.833333333333333,  0.000000000000000 ]
    mass: 118.710000
    reduced_to: 82
  - symbol: Sn # 89
    coordinates: [  0.500000000000000,  0.833333333333333,  0.000000000000000 ]
    mass: 118.710000
    reduced_to: 82
  - symbol: Sn # 90
    coordinates: [  0.833333333333333,  0.833333333333333,  0.000000000000000 ]
    mass: 118.710000
    reduced_to: 82
  - symbol: Sn # 91
    coordinates: [  0.166666666666667,  0.166666666666667,  0.333333333333333 ]
    mass: 118.710000
    reduced_to: 82
  - symbol: Sn # 92
    coordinates: [  0.500000000000000,  0.166666666666667,  0.333333333333333 ]
    mass: 118.710000
    reduced_to: 82
  - symbol: Sn # 93
    coordinates: [  0.833333333333333,  0.166666666666667,  0.333333333333333 ]
    mass: 118.710000
    reduced_to: 82
  - symbol: Sn # 94
    coordinates: [  0.166666666666667,  0.500000000000000,  0.333333333333333 ]
    mass: 118.710000
    reduced_to: 82
  - symbol: Sn # 95
    coordinates: [  0.500000000000000,  0.500000000000000,  0.333333333333333 ]
    mass: 118.710000
    reduced_to: 82
  - symbol: Sn # 96
    coordinates: [  0.833333333333333,  0.500000000000000,  0.333333333333333 ]
    mass: 118.710000
    reduced_to: 82
  - symbol: Sn # 97
    coordinates: [  0.166666666666667,  0.833333333333333,  0.333333333333333 ]
    mass: 118.710000
    reduced_to: 82
  - symbol: Sn # 98
    coordinates: [  0.500000000000000,  0.833333333333333,  0.333333333333333 ]
    mass: 118.710000
    reduced_to: 82
  - symbol: Sn # 99
    coordinates: [  0.833333333333333,  0.833333333333333,  0.333333333333333 ]
    mass: 118.710000
    reduced_to: 82
  - symbol: Sn # 100
    coordinates: [  0.166666666666667,  0.166666666666667,  0.666666666666667 ]
    mass: 118.710000
    reduced_to: 82
  - symbol: Sn # 101
    coordinates: [  0.500000000000000,  0.166666666666667,  0.666666666666667 ]
    mass: 118.710000
    reduced_to: 82
  - symbol: Sn # 102
    coordinates: [  0.833333333333333,  0.166666666666667,  0.666666666666667 ]
    mass: 118.710000
    reduced_to: 82
  - symbol: Sn # 103
    coordinates: [  0.166666666666667,  0.500000000000000,  0.666666666666667 ]
    mass: 118.710000
    reduced_to: 82
  - symbol: Sn # 104
    coordinates: [  0.500000000000000,  0.500000000000000,  0.666666666666667 ]
    mass: 118.710000
    reduced_to: 82
  - symbol: Sn # 105
    coordinates: [  0.833333333333333,  0.500000000000000,  0.666666666666667 ]
    mass: 118.710000
    reduced_to: 82
  - symbol: Sn # 106
    coordinates: [  0.166666666666667,  0.833333333333333,  0.666666666666667 ]
    mass: 118.710000
    reduced_to: 82
  - symbol: Sn # 107
    coordinates: [  0.500000000000000,  0.833333333333333,  0.666666666666667 ]
    mass: 118.710000
    reduced_to: 82
  - symbol: Sn # 108
    coordinates: [  0.833333333333333,  0.833333333333333,  0.666666666666667 ]
    mass: 118.710000
    reduced_to: 82

displacements:
- atom:    1
  displacement:
    [   0.0100000000000000,  0.0000000000000000,  0.0000000000000000 ]
  forces:
  - [  -0.0103265745565295, -0.0000003571622074, -0.0000004425819498 ]
  - [   0.0002865819260478, -0.0000009236609912, -0.0000009193609003 ]
  - [   0.0002786116674542, -0.0000006141708582, -0.0000004780013114 ]
  - [  -0.0002713178982958, -0.0000001648440957, -0.0000008446513675 ]
  - [  -0.0002706171944737, -0.0002491315826774, -0.0000012851014617 ]
  - [  -0.0002652211114764,  0.0002439264208078, -0.0000007529233699 ]
  - [  -0.0002708459796850, -0.0000001899898052, -0.0000005990732461 ]
  - [  -0.0002706982195377,  0.0002493597567081, -0.0000007523049135 ]
  - [  -0.0002658078446984, -0.0002442887052894, -0.0000001670778147 ]
  - [  -0.0002713375142775, -0.0000009369105101, -0.0000000970903784 ]
  - [  -0.0002706255763769, -0.0000013409444364, -0.0002490981714800 ]
  - [  -0.0002652127295732, -0.0000007375638233,  0.0002438991796225 ]
  - [  -0.0000106203151518,  0.0000007087364793,  0.0000007011694834 ]
  - [   0.0000074794515967,  0.0000172965228558,  0.0000172008949448 ]
  - [   0.0000084061175585, -0.0000174604356289, -0.0000175519962795 ]
  - [  -0.0000099481840152, -0.0000002598389983,  0.0000004360335879 ]
  - [   0.0000075651332736, -0.0000166529789567,  0.0000172737345565 ]
  - [   0.0000078044831753,  0.0000177966430783, -0.0000175932946149 ]
  - [  -0.0002709148975555, -0.0000005550682545, -0.0000001898151822 ]
  - [  -0.0002707662060857, -0.0000006680347724,  0.0002494750951882 ]
  - [  -0.0002657575532794, -0.0000002749075065, -0.0002443326811772 ]
  - [  -0.0000100812540040,  0.0000004749745131, -0.0000002055021469 ]
  - [   0.0000076070427895,  0.0000173253938556, -0.0000167254256667 ]
  - [   0.0000078836455941, -0.0000175051391125,  0.0000176763278432 ]
  - [  -0.0000094140123110, -0.0000006435438991, -0.0000007433409337 ]
  - [   0.0000075465068221, -0.0000172443687916, -0.0000171786232386 ]
  - [   0.0000074077397585,  0.0000172378495336,  0.0000171905921889 ]
  - [  -0.0002567145857029, -0.0000060839520302, -0.0000058943405747 ]
  - [   0.0000254809856415,  0.0000091784168035,  0.0000090915709734 ]
  - [   0.0000232160091400, -0.0000097657903098, -0.0000097785377875 ]
  - [  -0.0000009861541912, -0.0000001006701495, -0.0000000111758709 ]
  - [   0.0000005699694157, -0.0000000477593858, -0.0000034505501390 ]
  - [  -0.0000006053596735,  0.0000000353611540,  0.0000037617865019 ]
  - [  -0.0002571474760771,  0.0000059365411289, -0.0000052414834499 ]
  - [   0.0000254102051258, -0.0000081219477579,  0.0000090561807156 ]
  - [   0.0000237543135881,  0.0000105453946162, -0.0000098608434200 ]
  - [  -0.0000011319061741, -0.0000000659492798, -0.0000001564621925 ]
  - [   0.0000007357448339, -0.0000033770920709, -0.0000000856816769 ]
  - [  -0.0000004637986422,  0.0000036646379158, -0.0000000292784534 ]
  - [   0.0000202982919291, -0.0000000649015419, -0.0000001173466444 ]
  - [  -0.0000101253390312,  0.0000001579173841,  0.0000000630388968 ]
  - [  -0.0000109300017357,  0.0000000897853170,  0.0000000965665095 ]
  - [  -0.0000013932585716,  0.0000005621113814,  0.0000000540167093 ]
  - [   0.0000005606561899,  0.0000040725280996,  0.0000000353902578 ]
  - [   0.0000001061707735, -0.0000029244984034,  0.0000002495944500 ]
  - [  -0.0002570506185293, -0.0000052520190366,  0.0000057360157371 ]
  - [   0.0000253673642874,  0.0000089294917416, -0.0000082392361946 ]
  - [   0.0000236053019762, -0.0000098337768577,  0.0000105996732600 ]
  - [  -0.0000013485550880,  0.0000001568987500,  0.0000005383044481 ]
  - [   0.0000005792826414,  0.0000002481392585,  0.0000043276813813 ]
  - [  -0.0000000298023224,  0.0000002031738404, -0.0000029556103982 ]
  - [  -0.0002574399113655,  0.0000059947778936,  0.0000060237944126 ]
  - [   0.0000252462923527, -0.0000079116434790, -0.0000079125165939 ]
  - [   0.0000241231173277,  0.0000108364038169,  0.0000109244138002 ]
  - [   0.0017484247218817, -0.0000001738080755,  0.0018921373412013 ]
  - [  -0.0000001339358278,  0.0000000761938281, -0.0000001126900315 ]
  - [   0.0017178757116199, -0.0000004637986422, -0.0018447879701853 ]
  - [  -0.0000218893110286, -0.0000168848782778,  0.0000104177161120 ]
  - [   0.0000343358842656,  0.0000000335276127, -0.0000000428990461 ]
  - [  -0.0000208032433875,  0.0000167377293110, -0.0000122636556625 ]
  - [  -0.0000218791537918,  0.0000157002359629,  0.0000103892525658 ]
  - [   0.0000343944993801, -0.0000010486692190, -0.0000000036670826 ]
  - [  -0.0000209145946428, -0.0000172629952431, -0.0000121779739857 ]
  - [   0.0000057818833739,  0.0000000262807589, -0.0000000223517418 ]
  - [  -0.0000116263399832,  0.0000001342268661, -0.0000000223517418 ]
  - [   0.0000062035396695, -0.0000004740431905, -0.0000001043081284 ]
  - [   0.0000025802000891,  0.0000339895486832, -0.0000001277076080 ]
  - [  -0.0000045890046749,  0.0000000838190317,  0.0000000430736691 ]
  - [   0.0000028465001378, -0.0000331643968821,  0.0000000055879354 ]
  - [   0.0000024845357984, -0.0000348947942257,  0.0000001155422069 ]
  - [  -0.0000043837935664, -0.0000009275972843,  0.0000001246808097 ]
  - [   0.0000028111389838,  0.0000327378511429,  0.0000002961605787 ]
  - [   0.0017488712910563, -0.0000005941838026, -0.0018918709829450 ]
  - [   0.0000000570144039, -0.0000003557652235,  0.0000006593763828 ]
  - [   0.0017183620948344, -0.0000011995434761,  0.0018459241837263 ]
  - [  -0.0000219024659600, -0.0000167731195688, -0.0000093151465990 ]
  - [   0.0000343083520420,  0.0000000763684511,  0.0000011132797226 ]
  - [  -0.0000203693925869,  0.0000167749822140,  0.0000134892761707 ]
  - [  -0.0000219718203880,  0.0000161696225405, -0.0000095971627161 ]
  - [   0.0000343227584381, -0.0000005979090929,  0.0000007938942872 ]
  - [  -0.0000206330150831, -0.0000166781246662,  0.0000133272260427 ]
  - [   0.0017483755946159,  0.0018921075388789, -0.0000002204615157 ]
  - [  -0.0000001126900315, -0.0000000223517418,  0.0000000524451025 ]
  - [   0.0017178636044264, -0.0018446370959282, -0.0000004004687071 ]
  - [   0.0000058850273490, -0.0000000130385160, -0.0000000350992195 ]
  - [  -0.0000116107985377, -0.0000001247972250,  0.0000001532025635 ]
  - [   0.0000063106417656, -0.0000001341104507, -0.0000005345791578 ]
  - [   0.0017487788572907, -0.0018919641152024, -0.0000005420297384 ]
  - [   0.0000000456348062,  0.0000005848705769, -0.0000003706663847 ]
  - [   0.0017184810712934,  0.0018459875136614, -0.0000010132789612 ]
  - [  -0.0000219931825995,  0.0000104075297713, -0.0000169072300196 ]
  - [   0.0000342326238751,  0.0000000856816769,  0.0000001657754183 ]
  - [  -0.0000207992270589, -0.0000122878700495,  0.0000166278332472 ]
  - [   0.0000025937333703, -0.0000001052394509,  0.0000339001417160 ]
  - [  -0.0000046426430345, -0.0000001322478056,  0.0000001080334187 ]
  - [   0.0000028768554330, -0.0000000037252903, -0.0000330731272697 ]
  - [  -0.0000219820067286, -0.0000094305723906, -0.0000168103724718 ]
  - [   0.0000343108549714,  0.0000009657815099,  0.0000000186264515 ]
  - [  -0.0000204304233193,  0.0000133756548166,  0.0000167414546013 ]
  - [  -0.0000219661742449,  0.0000102128833532,  0.0000156834721565 ]
  - [   0.0000343499705195, -0.0000000614672899, -0.0000011380761862 ]
  - [  -0.0000208122655749, -0.0000122562050819, -0.0000172331929207 ]
  - [   0.0000024801120162,  0.0000000875443220, -0.0000349376350641 ]
  - [  -0.0000043576583266,  0.0000001462176442, -0.0000010598450899 ]
  - [   0.0000027623027563,  0.0000001601874828,  0.0000327434390783 ]
  - [  -0.0000219997018576, -0.0000095032155514,  0.0000162702053785 ]
  - [   0.0000344309955835,  0.0000007972121239, -0.0000005289912224 ]
  - [  -0.0000204732641578,  0.0000134613364935, -0.0000167693942785 ]
- atom:   28
  displacement:
    [   0.0070710678118655,  0.0070710678118655,  0.0000000000000000 ]
  forces:
  - [  -0.0001771403476596,  0.0012145247310400,  0.0013048804830760 ]
  - [   0.0000105602666736, -0.0000044416301535,  0.0000190463906620 ]
  - [   0.0000255731865764, -0.0000273667319561, -0.0000031037488952 ]
  - [  -0.0001875885645859,  0.0012356536462903, -0.0013381575699896 ]
  - [   0.0000226609408855, -0.0000276770442724,  0.0000039747828851 ]
  - [   0.0000114971771836, -0.0000037010759115, -0.0000205130127142 ]
  - [  -0.0000012232485460, -0.0000001620501280, -0.0000007260241546 ]
  - [   0.0000004218891263,  0.0000247973948717, -0.0000244401890086 ]
  - [   0.0000000325962901,  0.0000239182263613,  0.0000234307735809 ]
  - [  -0.0001773741969373,  0.0012143300846219, -0.0013056989992037 ]
  - [   0.0000105146318674, -0.0000047362773330, -0.0000200779468287 ]
  - [   0.0000259829685092, -0.0000275179481832,  0.0000026132620405 ]
  - [  -0.0001878405455500,  0.0012357672676444,  0.0013370981905609 ]
  - [   0.0000227661803365, -0.0000276649370790, -0.0000053011317505 ]
  - [   0.0000118901953101, -0.0000036899000406,  0.0000197629560716 ]
  - [  -0.0000014105098671,  0.0000003315508366,  0.0000000479340088 ]
  - [   0.0000005681067705,  0.0000252090394497,  0.0000238055436057 ]
  - [   0.0000004898756742,  0.0000243065878749, -0.0000236625419348 ]
  - [  -0.0000013820317690,  0.0000036088749766, -0.0000001220614649 ]
  - [   0.0000030258670449, -0.0000228566786973,  0.0000002235174179 ]
  - [  -0.0000023944303393,  0.0000250630109804, -0.0000001602165867 ]
  - [  -0.0000013808385120,  0.0000039646402001,  0.0000002758752089 ]
  - [  -0.0000021103769541,  0.0000252891331911,  0.0000006679110811 ]
  - [   0.0000031245872378, -0.0000220946967602,  0.0000002023080015 ]
  - [   0.0000139651383506, -0.0000084321945906, -0.0000000322470441 ]
  - [  -0.0000071013346314, -0.0000029448419809,  0.0000001425214577 ]
  - [  -0.0000073118135333, -0.0000035045668483, -0.0000002047891030 ]
  - [  -0.0136442482471466, -0.0107163228094578, -0.0000005252659321 ]
  - [  -0.0000412594527006, -0.0000403060985263,  0.0000001139123924 ]
  - [  -0.0000384598970413, -0.0000489935628138,  0.0000001329462975 ]
  - [   0.0000092488771770,  0.0000157251488417,  0.0000002346932888 ]
  - [   0.0005320142954588,  0.0005592657253146,  0.0000003746245056 ]
  - [  -0.0000265911221504,  0.0000029641087167,  0.0000002594315447 ]
  - [   0.0000027210153348,  0.0000195943284780,  0.0000001210719347 ]
  - [  -0.0000261068344116,  0.0000035606790334,  0.0000002998858690 ]
  - [   0.0005195047706366,  0.0005503301508725,  0.0000000931322575 ]
  - [   0.0000065682106651,  0.0000383869046345, -0.0000043641775846 ]
  - [   0.0002514738589525,  0.0000275617348962,  0.0002766356337816 ]
  - [   0.0002476871013641,  0.0000266136485152, -0.0002750448184088 ]
  - [  -0.0000128427636810, -0.0000831054348964, -0.0000706901773810 ]
  - [  -0.0000039413571358, -0.0000206695694942, -0.0000275410711765 ]
  - [   0.0000152401626110,  0.0000000100990292, -0.0000073043629527 ]
  - [  -0.0000125691294670, -0.0000809291668702,  0.0000692699104548 ]
  - [   0.0000158157199621,  0.0000004898465704,  0.0000067446380854 ]
  - [  -0.0000047292560339, -0.0000194523599930,  0.0000272970646620 ]
  - [   0.0000058169753174,  0.0000383704900742,  0.0000052843242884 ]
  - [   0.0002515856176615,  0.0000275085913017, -0.0002759041963145 ]
  - [   0.0002481285482645,  0.0000264378031716,  0.0002758101327345 ]
  - [  -0.0000132890418172, -0.0000828099437058,  0.0000708559527993 ]
  - [  -0.0000039357692003, -0.0000207771081477,  0.0000279379310086 ]
  - [   0.0000157579779625,  0.0000002659799065,  0.0000078357406892 ]
  - [  -0.0000131111592054, -0.0000806541938800, -0.0000685937702656 ]
  - [   0.0000159069895744,  0.0000009806535672, -0.0000056698918343 ]
  - [  -0.0000042859464884, -0.0000192275329027, -0.0000262912362814 ]
  - [   0.0001424478832632, -0.0005180800799280,  0.0000001164153218 ]
  - [  -0.0001631896593608, -0.0000016004778445,  0.0000000791624188 ]
  - [   0.0030583576299250,  0.0037178471684456,  0.0000001899898052 ]
  - [   0.0032568434253335,  0.0039330385625362,  0.0000002020387910 ]
  - [  -0.0001634650689084, -0.0000003185123205,  0.0000002702581696 ]
  - [   0.0001498043420725, -0.0005270782858133,  0.0000002160668373 ]
  - [  -0.0000001224107109, -0.0001640003174543,  0.0000002423184924 ]
  - [   0.0000020442530513,  0.0000007916241884,  0.0000002624001354 ]