# Thermal properties / unit cell (natom)

unit:
  temperature:   K
  free_energy:   kJ/mol
  entropy:       J/K/mol
  heat_capacity: J/K/mol

natom: 4    
cutoff_frequency: 0.00000
num_modes: 127776
num_integrated_modes: 127773

zero_point_energy:       6.6455794

thermal_properties:
- temperature:         0.0000000
  free_energy:         6.6455794
  entropy:             0.0000000
  heat_capacity:       0.0000000
  energy:              6.6455794

- temperature:        10.0000000
  free_energy:         6.6415677
  entropy:             1.6908363
  heat_capacity:       5.3049224
  energy:              6.6584760

- temperature:        20.0000000
  free_energy:         6.5827727
  entropy:            11.3503617
  heat_capacity:      25.7944540
  energy:              6.8097799

- temperature:        30.0000000
  free_energy:         6.4004511
  entropy:            25.3555836
  heat_capacity:      43.2863662
  energy:              7.1611186

- temperature:        40.0000000
  free_energy:         6.0756095
  entropy:            39.4819051
  heat_capacity:      54.6862903
  energy:              7.6548857

- temperature:        50.0000000
  free_energy:         5.6143201
  entropy:            52.5844506
  heat_capacity:      62.6419720
  energy:              8.2435427

- temperature:        60.0000000
  free_energy:         5.0276767
  entropy:            64.5651087
  heat_capacity:      68.7255683
  energy:              8.9015832

- temperature:        70.0000000
  free_energy:         4.3263776
  entropy:            75.5378974
  heat_capacity:      73.5919098
  energy:              9.6140304

- temperature:        80.0000000
  free_energy:         3.5198461
  entropy:            85.6318008
  heat_capacity:      77.5455935
  energy:             10.3703902

- temperature:        90.0000000
  free_energy:         2.6162980
  entropy:            94.9581722
  heat_capacity:      80.7752539
  energy:             11.1625335

- temperature:       100.0000000
  free_energy:         1.6229286
  entropy:           103.6103060
  heat_capacity:      83.4231761
  energy:             11.9839592

- temperature:       110.0000000
  free_energy:         0.5460756
  entropy:           111.6669615
  heat_capacity:      85.6036505
  energy:             12.8294413

- temperature:       120.0000000
  free_energy:        -0.6086506
  entropy:           119.1952839
  heat_capacity:      87.4089008
  energy:             13.6947835

- temperature:       130.0000000
  free_energy:        -1.8362620
  entropy:           126.2529094
  heat_capacity:      88.9127074
  energy:             14.5766162

- temperature:       140.0000000
  free_energy:        -3.1323062
  entropy:           132.8895402
  heat_capacity:      90.1736463
  energy:             15.4722294

- temperature:       150.0000000
  free_energy:        -4.4927935
  entropy:           139.1481905
  heat_capacity:      91.2380413
  energy:             16.3794351

- temperature:       160.0000000
  free_energy:        -5.9141351
  entropy:           145.0662069
  heat_capacity:      92.1425107
  energy:             17.2964580

- temperature:       170.0000000
  free_energy:        -7.3930911
  entropy:           150.6761213
  heat_capacity:      92.9160612
  energy:             18.2218495

- temperature:       180.0000000
  free_energy:        -8.9267257
  entropy:           156.0063662
  heat_capacity:      93.5817580
  energy:             19.1544202

- temperature:       190.0000000
  free_energy:       -10.5123696
  entropy:           161.0818771
  heat_capacity:      94.1580332
  energy:             20.0931870

- temperature:       200.0000000
  free_energy:       -12.1475876
  entropy:           165.9246003
  heat_capacity:      94.6596982
  energy:             21.0373325

- temperature:       210.0000000
  free_energy:       -13.8301505
  entropy:           170.5539190
  heat_capacity:      95.0987264
  energy:             21.9861724

- temperature:       220.0000000
  free_energy:       -15.5580121
  entropy:           174.9870135
  heat_capacity:      95.4848561
  energy:             22.9391309

- temperature:       230.0000000
  free_energy:       -17.3292878
  entropy:           179.2391643
  heat_capacity:      95.8260557
  energy:             23.8957200

- temperature:       240.0000000
  free_energy:       -19.1422378
  entropy:           183.3240086
  heat_capacity:      96.1288847
  energy:             24.8555242

- temperature:       250.0000000
  free_energy:       -20.9952512
  entropy:           187.2537565
  heat_capacity:      96.3987746
  energy:             25.8181880

- temperature:       260.0000000
  free_energy:       -22.8868327
  entropy:           191.0393759
  heat_capacity:      96.6402483
  energy:             26.7834051

- temperature:       270.0000000
  free_energy:       -24.8155913
  entropy:           194.6907488
  heat_capacity:      96.8570925
  energy:             27.7509109

- temperature:       280.0000000
  free_energy:       -26.7802300
  entropy:           198.2168054
  heat_capacity:      97.0524943
  energy:             28.7204755

- temperature:       290.0000000
  free_energy:       -28.7795367
  entropy:           201.6256382
  heat_capacity:      97.2291497
  energy:             29.6918983

- temperature:       300.0000000
  free_energy:       -30.8123766
  entropy:           204.9246010
  heat_capacity:      97.3893499
  energy:             30.6650037

- temperature:       310.0000000
  free_energy:       -32.8776849
  entropy:           208.1203934
  heat_capacity:      97.5350514
  energy:             31.6396370

- temperature:       320.0000000
  free_energy:       -34.9744610
  entropy:           211.2191345
  heat_capacity:      97.6679318
  energy:             32.6156620

- temperature:       330.0000000
  free_energy:       -37.1017628
  entropy:           214.2264261
  heat_capacity:      97.7894358
  energy:             33.5929578

- temperature:       340.0000000
  free_energy:       -39.2587019
  entropy:           217.1474084
  heat_capacity:      97.9008126
  energy:             34.5714170

- temperature:       350.0000000
  free_energy:       -41.4444391
  entropy:           219.9868085
  heat_capacity:      98.0031461
  energy:             35.5509439

- temperature:       360.0000000
  free_energy:       -43.6581807
  entropy:           222.7489822
  heat_capacity:      98.0973804
  energy:             36.5314529

- temperature:       370.0000000
  free_energy:       -45.8991748
  entropy:           225.4379514
  heat_capacity:      98.1843409
  energy:             37.5128673

- temperature:       380.0000000
  free_energy:       -48.1667081
  entropy:           228.0574369
  heat_capacity:      98.2647510
  energy:             38.4951179

- temperature:       390.0000000
  free_energy:       -50.4601034
  entropy:           230.6108872
  heat_capacity:      98.3392475
  energy:             39.4781426

- temperature:       400.0000000
  free_energy:       -52.7787165
  entropy:           233.1015037
  heat_capacity:      98.4083919
  energy:             40.4618850

- temperature:       410.0000000
  free_energy:       -55.1219340
  entropy:           235.5322640
  heat_capacity:      98.4726813
  energy:             41.4462942

- temperature:       420.0000000
  free_energy:       -57.4891715
  entropy:           237.9059415
  heat_capacity:      98.5325568
  energy:             42.4313239

- temperature:       430.0000000
  free_energy:       -59.8798712
  entropy:           240.2251236
  heat_capacity:      98.5884107
  energy:             43.4169320

- temperature:       440.0000000
  free_energy:       -62.2935004
  entropy:           242.4922279
  heat_capacity:      98.6405931
  energy:             44.4030799

- temperature:       450.0000000
  free_energy:       -64.7295497
  entropy:           244.7095163
  heat_capacity:      98.6894171
  energy:             45.3897326

- temperature:       460.0000000
  free_energy:       -67.1875317
  entropy:           246.8791081
  heat_capacity:      98.7351630
  energy:             46.3768580

- temperature:       470.0000000
  free_energy:       -69.6669795
  entropy:           249.0029915
  heat_capacity:      98.7780830
  energy:             47.3644265

- temperature:       480.0000000
  free_energy:       -72.1674454
  entropy:           251.0830342
  heat_capacity:      98.8184039
  energy:             48.3524110

- temperature:       490.0000000
  free_energy:       -74.6884999
  entropy:           253.1209929
  heat_capacity:      98.8563304
  energy:             49.3407866

- temperature:       500.0000000
  free_energy:       -77.2297305
  entropy:           255.1185216
  heat_capacity:      98.8920474
  energy:             50.3295302

- temperature:       510.0000000
  free_energy:       -79.7907408
  entropy:           257.0771795
  heat_capacity:      98.9257225
  energy:             51.3186207

- temperature:       520.0000000
  free_energy:       -82.3711495
  entropy:           258.9984382
  heat_capacity:      98.9575078
  energy:             52.3080384

- temperature:       530.0000000
  free_energy:       -84.9705896
  entropy:           260.8836879
  heat_capacity:      98.9875415
  energy:             53.2977651

- temperature:       540.0000000
  free_energy:       -87.5887076
  entropy:           262.7342433
  heat_capacity:      99.0159495
  energy:             54.2877838

- temperature:       550.0000000
  free_energy:       -90.2251629
  entropy:           264.5513490
  heat_capacity:      99.0428464
  energy:             55.2780790

- temperature:       560.0000000
  free_energy:       -92.8796270
  entropy:           266.3361840
  heat_capacity:      99.0683373
  energy:             56.2686361

- temperature:       570.0000000
  free_energy:       -95.5517828
  entropy:           268.0898669
  heat_capacity:      99.0925181
  energy:             57.2594414

- temperature:       580.0000000
  free_energy:       -98.2413241
  entropy:           269.8134593
  heat_capacity:      99.1154767
  energy:             58.2504823

- temperature:       590.0000000
  free_energy:      -100.9479550
  entropy:           271.5079697
  heat_capacity:      99.1372938
  energy:             59.2417471

- temperature:       600.0000000
  free_energy:      -103.6713897
  entropy:           273.1743573
  heat_capacity:      99.1580437
  energy:             60.2332247

- temperature:       610.0000000
  free_energy:      -106.4113515
  entropy:           274.8135346
  heat_capacity:      99.1777946
  energy:             61.2249047

- temperature:       620.0000000
  free_energy:      -109.1675726
  entropy:           276.4263710
  heat_capacity:      99.1966094
  energy:             62.2167774

- temperature:       630.0000000
  free_energy:      -111.9397939
  entropy:           278.0136949
  heat_capacity:      99.2145462
  energy:             63.2088339

- temperature:       640.0000000
  free_energy:      -114.7277641
  entropy:           279.5762964
  heat_capacity:      99.2316586
  energy:             64.2010656

- temperature:       650.0000000
  free_energy:      -117.5312399
  entropy:           281.1149299
  heat_capacity:      99.2479963
  energy:             65.1934645

- temperature:       660.0000000
  free_energy:      -120.3499852
  entropy:           282.6303156
  heat_capacity:      99.2636051
  energy:             66.1860231

- temperature:       670.0000000
  free_energy:      -123.1837710
  entropy:           284.1231423
  heat_capacity:      99.2785277
  energy:             67.1787343

- temperature:       680.0000000
  free_energy:      -126.0323751
  entropy:           285.5940685
  heat_capacity:      99.2928036
  energy:             68.1715915

- temperature:       690.0000000
  free_energy:      -128.8955815
  entropy:           287.0437244
  heat_capacity:      99.3064695
  energy:             69.1645884

- temperature:       700.0000000
  free_energy:      -131.7731807
  entropy:           288.4727138
  heat_capacity:      99.3195597
  energy:             70.1577190

- temperature:       710.0000000
  free_energy:      -134.6649688
  entropy:           289.8816149
  heat_capacity:      99.3321060
  energy:             71.1509777

- temperature:       720.0000000
  free_energy:      -137.5707478
  entropy:           291.2709823
  heat_capacity:      99.3441379
  energy:             72.1443594

- temperature:       730.0000000
  free_energy:      -140.4903251
  entropy:           292.6413479
  heat_capacity:      99.3556832
  energy:             73.1378589

- temperature:       740.0000000
  free_energy:      -143.4235132
  entropy:           293.9932225
  heat_capacity:      99.3667678
  energy:             74.1314715

- temperature:       750.0000000
  free_energy:      -146.3701296
  entropy:           295.3270965
  heat_capacity:      99.3774157
  energy:             75.1251928

- temperature:       760.0000000
  free_energy:      -149.3299967
  entropy:           296.6434409
  heat_capacity:      99.3876495
  energy:             76.1190184

- temperature:       770.0000000
  free_energy:      -152.3029415
  entropy:           297.9427090
  heat_capacity:      99.3974904
  energy:             77.1129445

- temperature:       780.0000000
  free_energy:      -155.2887954
  entropy:           299.2253364
  heat_capacity:      99.4069583
  energy:             78.1069670

- temperature:       790.0000000
  free_energy:      -158.2873941
  entropy:           300.4917425
  heat_capacity:      99.4160717
  energy:             79.1010824

- temperature:       800.0000000
  free_energy:      -161.2985775
  entropy:           301.7423310
  heat_capacity:      99.4248480
  energy:             80.0952873

- temperature:       810.0000000
  free_energy:      -164.3221893
  entropy:           302.9774909
  heat_capacity:      99.4333036
  energy:             81.0895783

- temperature:       820.0000000
  free_energy:      -167.3580771
  entropy:           304.1975970
  heat_capacity:      99.4414540
  energy:             82.0839524

- temperature:       830.0000000
  free_energy:      -170.4060923
  entropy:           305.4030105
  heat_capacity:      99.4493136
  energy:             83.0784065

- temperature:       840.0000000
  free_energy:      -173.4660895
  entropy:           306.5940801
  heat_capacity:      99.4568961
  energy:             84.0729377

- temperature:       850.0000000
  free_energy:      -176.5379272
  entropy:           307.7711420
  heat_capacity:      99.4642144
  energy:             85.0675435

- temperature:       860.0000000
  free_energy:      -179.6214668
  entropy:           308.9345209
  heat_capacity:      99.4712805
  energy:             86.0622212

- temperature:       870.0000000
  free_energy:      -182.7165730
  entropy:           310.0845303
  heat_capacity:      99.4781059
  energy:             87.0569683

- temperature:       880.0000000
  free_energy:      -185.8231138
  entropy:           311.2214731
  heat_capacity:      99.4847013
  energy:             88.0517825

- temperature:       890.0000000
  free_energy:      -188.9409599
  entropy:           312.3456422
  heat_capacity:      99.4910771
  energy:             89.0466616

- temperature:       900.0000000
  free_energy:      -192.0699850
  entropy:           313.4573204
  heat_capacity:      99.4972428
  energy:             90.0416034

- temperature:       910.0000000
  free_energy:      -195.2100656
  entropy:           314.5567818
  heat_capacity:      99.5032075
  energy:             91.0366058

- temperature:       920.0000000
  free_energy:      -198.3610808
  entropy:           315.6442910
  heat_capacity:      99.5089798
  energy:             92.0316669

- temperature:       930.0000000
  free_energy:      -201.5229124
  entropy:           316.7201045
  heat_capacity:      99.5145680
  energy:             93.0267848

- temperature:       940.0000000
  free_energy:      -204.6954448
  entropy:           317.7844706
  heat_capacity:      99.5199798
  energy:             94.0219576

- temperature:       950.0000000
  free_energy:      -207.8785645
  entropy:           318.8376298
  heat_capacity:      99.5252224
  energy:             95.0171838

- temperature:       960.0000000
  free_energy:      -211.0721608
  entropy:           319.8798149
  heat_capacity:      99.5303030
  energy:             96.0124616

- temperature:       970.0000000
  free_energy:      -214.2761250
  entropy:           320.9112519
  heat_capacity:      99.5352280
  energy:             97.0077893

- temperature:       980.0000000
  free_energy:      -217.4903507
  entropy:           321.9321595
  heat_capacity:      99.5400038
  energy:             98.0031656

- temperature:       990.0000000
  free_energy:      -220.7147338
  entropy:           322.9427502
  heat_capacity:      99.5446363
  energy:             98.9985889

- temperature:      1000.0000000
  free_energy:      -223.9491720
  entropy:           323.9432299
  heat_capacity:      99.5491312
  energy:             99.9940579
