# Thermal properties / unit cell (natom)

unit:
  temperature:   K
  free_energy:   kJ/mol
  entropy:       J/K/mol
  heat_capacity: J/K/mol

natom: 12   
cutoff_frequency: 0.00000
num_modes: 174240
num_integrated_modes: 173555

zero_point_energy:      47.3491803

thermal_properties:
- temperature:         0.0000000
  free_energy:        47.3491803
  entropy:             0.0000000
  heat_capacity:       0.0000000
  energy:             47.3491803

- temperature:        10.0000000
  free_energy:        47.3433252
  entropy:             1.8267970
  heat_capacity:       4.0535650
  energy:             47.3615931

- temperature:        20.0000000
  free_energy:        47.2961381
  entropy:             8.4562305
  heat_capacity:      18.0975938
  energy:             47.4652627

- temperature:        30.0000000
  free_energy:        47.1604336
  entropy:            19.1733635
  heat_capacity:      36.0013886
  energy:             47.7356345

- temperature:        40.0000000
  free_energy:        46.9060970
  entropy:            31.9062137
  heat_capacity:      53.1625791
  energy:             48.1823455

- temperature:        50.0000000
  free_energy:        46.5193904
  entropy:            45.5366184
  heat_capacity:      69.5308763
  energy:             48.7962213

- temperature:        60.0000000
  free_energy:        45.9938191
  entropy:            59.6382212
  heat_capacity:      85.6298299
  energy:             49.5721124

- temperature:        70.0000000
  free_energy:        45.3256256
  entropy:            74.0417281
  heat_capacity:     101.6357692
  energy:             50.5085466

- temperature:        80.0000000
  free_energy:        44.5123149
  entropy:            88.6461977
  heat_capacity:     117.3922796
  energy:             51.6040107

- temperature:        90.0000000
  free_energy:        43.5523430
  entropy:           103.3581667
  heat_capacity:     132.6054819
  energy:             52.8545780

- temperature:       100.0000000
  free_energy:        42.4451104
  entropy:           118.0826551
  heat_capacity:     146.9984330
  energy:             54.2533759

- temperature:       110.0000000
  free_energy:        41.1909510
  entropy:           132.7292152
  heat_capacity:     160.3800403
  energy:             55.7911646

- temperature:       120.0000000
  free_energy:        39.7910518
  entropy:           147.2185441
  heat_capacity:     172.6543839
  energy:             57.4572771

- temperature:       130.0000000
  free_energy:        38.2473216
  entropy:           161.4859460
  heat_capacity:     183.8031639
  energy:             59.2404945

- temperature:       140.0000000
  free_energy:        36.5622394
  entropy:           175.4818815
  heat_capacity:     193.8617096
  energy:             61.1297028

- temperature:       150.0000000
  free_energy:        34.7387089
  entropy:           189.1707302
  heat_capacity:     202.8976853
  energy:             63.1143184

- temperature:       160.0000000
  free_energy:        32.7799286
  entropy:           202.5287434
  heat_capacity:     210.9951558
  energy:             65.1845276

- temperature:       170.0000000
  free_energy:        30.6892847
  entropy:           215.5418098
  heat_capacity:     218.2438181
  energy:             67.3313923

- temperature:       180.0000000
  free_energy:        28.4702648
  entropy:           228.2033654
  heat_capacity:     224.7322925
  energy:             69.5468705

- temperature:       190.0000000
  free_energy:        26.1263923
  entropy:           240.5125882
  heat_capacity:     230.5442899
  energy:             71.8237840

- temperature:       200.0000000
  free_energy:        23.6611763
  entropy:           252.4729109
  heat_capacity:     235.7566870
  energy:             74.1557585

- temperature:       210.0000000
  free_energy:        21.0780756
  entropy:           264.0908352
  heat_capacity:     240.4388007
  energy:             76.5371510

- temperature:       220.0000000
  free_energy:        18.3804723
  entropy:           275.3750057
  heat_capacity:     244.6523790
  energy:             78.9629735

- temperature:       230.0000000
  free_energy:        15.5716545
  entropy:           286.3354996
  heat_capacity:     248.4519904
  energy:             81.4288194

- temperature:       240.0000000
  free_energy:        12.6548047
  entropy:           296.9832889
  heat_capacity:     251.8856113
  energy:             83.9307940

- temperature:       250.0000000
  free_energy:         9.6329929
  entropy:           307.3298381
  heat_capacity:     254.9952917
  energy:             86.4654524

- temperature:       260.0000000
  free_energy:         6.5091732
  entropy:           317.3868078
  heat_capacity:     257.8178246
  energy:             89.0297432

- temperature:       270.0000000
  free_energy:         3.2861832
  entropy:           327.1658381
  heat_capacity:     260.3853836
  energy:             91.6209595

- temperature:       280.0000000
  free_energy:        -0.0332553
  entropy:           336.6783947
  heat_capacity:     262.7261063
  energy:             94.2366952

- temperature:       290.0000000
  free_energy:        -3.4465338
  entropy:           345.9356609
  heat_capacity:     264.8646184
  energy:             96.8748079

- temperature:       300.0000000
  free_energy:        -6.9511537
  entropy:           354.9484648
  heat_capacity:     266.8224958
  energy:             99.5333857

- temperature:       310.0000000
  free_energy:       -10.5447230
  entropy:           363.7272324
  heat_capacity:     268.6186695
  energy:            102.2107190

- temperature:       320.0000000
  free_energy:       -14.2249516
  entropy:           372.2819606
  heat_capacity:     270.2697770
  energy:            104.9052758

- temperature:       330.0000000
  free_energy:       -17.9896473
  entropy:           380.6222041
  heat_capacity:     271.7904668
  energy:            107.6156800

- temperature:       340.0000000
  free_energy:       -21.8367112
  entropy:           388.7570729
  heat_capacity:     273.1936605
  energy:            110.3406936

- temperature:       350.0000000
  free_energy:       -25.7641331
  entropy:           396.6952370
  heat_capacity:     274.4907792
  energy:            113.0791998

- temperature:       360.0000000
  free_energy:       -29.7699877
  entropy:           404.4449367
  heat_capacity:     275.6919382
  energy:            115.8301895

- temperature:       370.0000000
  free_energy:       -33.8524298
  entropy:           412.0139961
  heat_capacity:     276.8061145
  energy:            118.5927488

- temperature:       380.0000000
  free_energy:       -38.0096903
  entropy:           419.4098391
  heat_capacity:     277.8412913
  energy:            121.3660485

- temperature:       390.0000000
  free_energy:       -42.2400727
  entropy:           426.6395070
  heat_capacity:     278.8045824
  energy:            124.1493350

- temperature:       400.0000000
  free_energy:       -46.5419488
  entropy:           433.7096766
  heat_capacity:     279.7023400
  energy:            126.9419218

- temperature:       410.0000000
  free_energy:       -50.9137557
  entropy:           440.6266783
  heat_capacity:     280.5402471
  energy:            129.7431824

- temperature:       420.0000000
  free_energy:       -55.3539919
  entropy:           447.3965147
  heat_capacity:     281.3233983
  energy:            132.5525443

- temperature:       430.0000000
  free_energy:       -59.8612145
  entropy:           454.0248782
  heat_capacity:     282.0563694
  energy:            135.3694832

- temperature:       440.0000000
  free_energy:       -64.4340359
  entropy:           460.5171684
  heat_capacity:     282.7432780
  energy:            138.1935182

- temperature:       450.0000000
  free_energy:       -69.0711214
  entropy:           466.8785088
  heat_capacity:     283.3878360
  energy:            141.0242076

- temperature:       460.0000000
  free_energy:       -73.7711858
  entropy:           473.1137625
  heat_capacity:     283.9933961
  energy:            143.8611449

- temperature:       470.0000000
  free_energy:       -78.5329917
  entropy:           479.2275476
  heat_capacity:     284.5629913
  energy:            146.7039557

- temperature:       480.0000000
  free_energy:       -83.3553465
  entropy:           485.2242512
  heat_capacity:     285.0993706
  energy:            149.5522941

- temperature:       490.0000000
  free_energy:       -88.2371004
  entropy:           491.1080431
  heat_capacity:     285.6050292
  energy:            152.4058407

- temperature:       500.0000000
  free_energy:       -93.1771443
  entropy:           496.8828882
  heat_capacity:     286.0822362
  energy:            155.2642998

- temperature:       510.0000000
  free_energy:       -98.1744076
  entropy:           502.5525590
  heat_capacity:     286.5330578
  energy:            158.1273975

- temperature:       520.0000000
  free_energy:      -103.2278568
  entropy:           508.1206465
  heat_capacity:     286.9593790
  energy:            160.9948793

- temperature:       530.0000000
  free_energy:      -108.3364933
  entropy:           513.5905708
  heat_capacity:     287.3629213
  energy:            163.8665092

- temperature:       540.0000000
  free_energy:      -113.4993519
  entropy:           518.9655908
  heat_capacity:     287.7452597
  energy:            166.7420671

- temperature:       550.0000000
  free_energy:      -118.7154992
  entropy:           524.2488140
  heat_capacity:     288.1078371
  energy:            169.6213485

- temperature:       560.0000000
  free_energy:      -123.9840321
  entropy:           529.4432045
  heat_capacity:     288.4519771
  energy:            172.5041624

- temperature:       570.0000000
  free_energy:      -129.3040766
  entropy:           534.5515917
  heat_capacity:     288.7788957
  energy:            175.3903306

- temperature:       580.0000000
  free_energy:      -134.6747863
  entropy:           539.5766775
  heat_capacity:     289.0897112
  energy:            178.2796866

- temperature:       590.0000000
  free_energy:      -140.0953411
  entropy:           544.5210436
  heat_capacity:     289.3854536
  energy:            181.1720746

- temperature:       600.0000000
  free_energy:      -145.5649463
  entropy:           549.3871583
  heat_capacity:     289.6670727
  energy:            184.0673487

- temperature:       610.0000000
  free_energy:      -151.0828313
  entropy:           554.1773824
  heat_capacity:     289.9354455
  energy:            186.9653719

- temperature:       620.0000000
  free_energy:      -156.6482486
  entropy:           558.8939753
  heat_capacity:     290.1913823
  energy:            189.8660161

- temperature:       630.0000000
  free_energy:      -162.2604726
  entropy:           563.5391004
  heat_capacity:     290.4356332
  energy:            192.7691606

- temperature:       640.0000000
  free_energy:      -167.9187993
  entropy:           568.1148303
  heat_capacity:     290.6688930
  energy:            195.6746921

- temperature:       650.0000000
  free_energy:      -173.6225445
  entropy:           572.6231516
  heat_capacity:     290.8918061
  energy:            198.5825040

- temperature:       660.0000000
  free_energy:      -179.3710439
  entropy:           577.0659693
  heat_capacity:     291.1049706
  energy:            201.4924958

- temperature:       670.0000000
  free_energy:      -185.1636517
  entropy:           581.4451111
  heat_capacity:     291.3089426
  energy:            204.4045728

- temperature:       680.0000000
  free_energy:      -190.9997398
  entropy:           585.7623316
  heat_capacity:     291.5042392
  energy:            207.3186457

- temperature:       690.0000000
  free_energy:      -196.8786975
  entropy:           590.0193156
  heat_capacity:     291.6913419
  energy:            210.2346303

- temperature:       700.0000000
  free_energy:      -202.7999307
  entropy:           594.2176821
  heat_capacity:     291.8706996
  energy:            213.1524467

- temperature:       710.0000000
  free_energy:      -208.7628610
  entropy:           598.3589870
  heat_capacity:     292.0427312
  energy:            216.0720198

- temperature:       720.0000000
  free_energy:      -214.7669252
  entropy:           602.4447271
  heat_capacity:     292.2078275
  energy:            218.9932782

- temperature:       730.0000000
  free_energy:      -220.8115751
  entropy:           606.4763419
  heat_capacity:     292.3663541
  energy:            221.9161545

- temperature:       740.0000000
  free_energy:      -226.8962763
  entropy:           610.4552174
  heat_capacity:     292.5186529
  energy:            224.8405846

- temperature:       750.0000000
  free_energy:      -233.0205081
  entropy:           614.3826879
  heat_capacity:     292.6650437
  energy:            227.7665079

- temperature:       760.0000000
  free_energy:      -239.1837630
  entropy:           618.2600391
  heat_capacity:     292.8058267
  energy:            230.6938668

- temperature:       770.0000000
  free_energy:      -245.3855460
  entropy:           622.0885099
  heat_capacity:     292.9412828
  energy:            233.6226066

- temperature:       780.0000000
  free_energy:      -251.6253742
  entropy:           625.8692946
  heat_capacity:     293.0716760
  energy:            236.5526755

- temperature:       790.0000000
  free_energy:      -257.9027767
  entropy:           629.6035454
  heat_capacity:     293.1972542
  energy:            239.4840241

- temperature:       800.0000000
  free_energy:      -264.2172937
  entropy:           633.2923739
  heat_capacity:     293.3182502
  energy:            242.4166054

- temperature:       810.0000000
  free_energy:      -270.5684764
  entropy:           636.9368530
  heat_capacity:     293.4348833
  energy:            245.3503746

- temperature:       820.0000000
  free_energy:      -276.9558864
  entropy:           640.5380190
  heat_capacity:     293.5473595
  energy:            248.2852892

- temperature:       830.0000000
  free_energy:      -283.3790957
  entropy:           644.0968726
  heat_capacity:     293.6558732
  energy:            251.2213085

- temperature:       840.0000000
  free_energy:      -289.8376861
  entropy:           647.6143811
  heat_capacity:     293.7606074
  energy:            254.1583940

- temperature:       850.0000000
  free_energy:      -296.3312487
  entropy:           651.0914792
  heat_capacity:     293.8617348
  energy:            257.0965087

- temperature:       860.0000000
  free_energy:      -302.8593840
  entropy:           654.5290712
  heat_capacity:     293.9594184
  energy:            260.0356172

- temperature:       870.0000000
  free_energy:      -309.4217013
  entropy:           657.9280315
  heat_capacity:     294.0538121
  energy:            262.9756861

- temperature:       880.0000000
  free_energy:      -316.0178186
  entropy:           661.2892064
  heat_capacity:     294.1450613
  energy:            265.9166830

- temperature:       890.0000000
  free_energy:      -322.6473622
  entropy:           664.6134152
  heat_capacity:     294.2333036
  energy:            268.8585773

- temperature:       900.0000000
  free_energy:      -329.3099664
  entropy:           667.9014510
  heat_capacity:     294.3186692
  energy:            271.8013395

- temperature:       910.0000000
  free_energy:      -336.0052732
  entropy:           671.1540821
  heat_capacity:     294.4012812
  energy:            274.7449415

- temperature:       920.0000000
  free_energy:      -342.7329325
  entropy:           674.3720530
  heat_capacity:     294.4812562
  energy:            277.6893563

- temperature:       930.0000000
  free_energy:      -349.4926012
  entropy:           677.5560853
  heat_capacity:     294.5587050
  energy:            280.6345582

- temperature:       940.0000000
  free_energy:      -356.2839434
  entropy:           680.7068784
  heat_capacity:     294.6337324
  energy:            283.5805224

- temperature:       950.0000000
  free_energy:      -363.1066302
  entropy:           683.8251108
  heat_capacity:     294.7064379
  energy:            286.5272251

- temperature:       960.0000000
  free_energy:      -369.9603393
  entropy:           686.9114406
  heat_capacity:     294.7769161
  energy:            289.4746437

- temperature:       970.0000000
  free_energy:      -376.8447548
  entropy:           689.9665063
  heat_capacity:     294.8452565
  energy:            292.4227563

- temperature:       980.0000000
  free_energy:      -383.7595672
  entropy:           692.9909278
  heat_capacity:     294.9115446
  energy:            295.3715420

- temperature:       990.0000000
  free_energy:      -390.7044732
  entropy:           695.9853069
  heat_capacity:     294.9758614
  energy:            298.3209806

- temperature:      1000.0000000
  free_energy:      -397.6791752
  entropy:           698.9502281
  heat_capacity:     295.0382840
  energy:            301.2710529
