phonopy:
  version: "2.37.1"
  frequency_unit_conversion_factor: 15.633302
  symmetry_tolerance: 1.00000e-05

space_group:
  type: "P4_132"
  number: 213
  Hall_symbol: "P 4bd 2ab 3"

primitive_matrix:
- [  1.000000000000000,  0.000000000000000, -0.000000000000000 ]
- [  0.000000000000000,  1.000000000000000,  0.000000000000000 ]
- [  0.000000000000000,  0.000000000000000,  1.000000000000000 ]

supercell_matrix:
- [   3,   0,   0 ]
- [   0,   3,   0 ]
- [   0,   0,   3 ]

primitive_cell:
  lattice:
  - [     4.423846110635917,     0.000000000000000,     0.000000000000000 ] # a
  - [     0.000000179213856,     4.423846021393480,     0.000000000000000 ] # b
  - [    -0.000000106042361,     0.000000046365497,     4.423846044800150 ] # c
  points:
  - symbol: Li # 1
    coordinates: [  0.874999998932582,  0.125000001030720,  0.624999999773915 ]
    mass: 6.940000
  - symbol: Li # 2
    coordinates: [  0.375000003845837,  0.375000001487192,  0.375000001408752 ]
    mass: 6.940000
  - symbol: Li # 3
    coordinates: [  0.125000000633830,  0.624999998278902,  0.874999997911550 ]
    mass: 6.940000
  - symbol: Li # 4
    coordinates: [  0.624999997131253,  0.874999999296726,  0.125000000952955 ]
    mass: 6.940000
  reciprocal_lattice: # without 2pi
  - [     0.226047646095956,    -0.000000009157387,     0.000000005418504 ] # a*
  - [     0.000000000000000,     0.226047650656025,    -0.000000002369163 ] # b*
  - [     0.000000000000000,     0.000000000000000,     0.226047649460002 ] # c*

unit_cell:
  lattice:
  - [     4.423846110635917,     0.000000000000000,     0.000000000000000 ] # a
  - [     0.000000179213856,     4.423846021393480,     0.000000000000000 ] # b
  - [    -0.000000106042361,     0.000000046365497,     4.423846044800151 ] # c
  points:
  - symbol: Li # 1
    coordinates: [  0.874999998932582,  0.125000001030720,  0.624999999773915 ]
    mass: 6.940000
    reduced_to: 1
  - symbol: Li # 2
    coordinates: [  0.375000003845837,  0.375000001487192,  0.375000001408752 ]
    mass: 6.940000
    reduced_to: 2
  - symbol: Li # 3
    coordinates: [  0.125000000633830,  0.624999998278902,  0.874999997911550 ]
    mass: 6.940000
    reduced_to: 3
  - symbol: Li # 4
    coordinates: [  0.624999997131253,  0.874999999296726,  0.125000000952955 ]
    mass: 6.940000
    reduced_to: 4

supercell:
  lattice:
  - [    13.271538331907752,     0.000000000000000,     0.000000000000000 ] # a
  - [     0.000000537641569,    13.271538064180440,     0.000000000000000 ] # b
  - [    -0.000000318127084,     0.000000139096492,    13.271538134400455 ] # c
  points:
  - symbol: Li # 1
    coordinates: [  0.291666666310861,  0.041666667010240,  0.208333333257972 ]
    mass: 6.940000
    reduced_to: 1
  - symbol: Li # 2
    coordinates: [  0.624999999644194,  0.041666667010240,  0.208333333257972 ]
    mass: 6.940000
    reduced_to: 1
  - symbol: Li # 3
    coordinates: [  0.958333332977527,  0.041666667010240,  0.208333333257972 ]
    mass: 6.940000
    reduced_to: 1
  - symbol: Li # 4
    coordinates: [  0.291666666310861,  0.375000000343573,  0.208333333257972 ]
    mass: 6.940000
    reduced_to: 1
  - symbol: Li # 5
    coordinates: [  0.624999999644194,  0.375000000343573,  0.208333333257972 ]
    mass: 6.940000
    reduced_to: 1
  - symbol: Li # 6
    coordinates: [  0.958333332977527,  0.375000000343573,  0.208333333257972 ]
    mass: 6.940000
    reduced_to: 1
  - symbol: Li # 7
    coordinates: [  0.291666666310861,  0.708333333676907,  0.208333333257972 ]
    mass: 6.940000
    reduced_to: 1
  - symbol: Li # 8
    coordinates: [  0.624999999644194,  0.708333333676907,  0.208333333257972 ]
    mass: 6.940000
    reduced_to: 1
  - symbol: Li # 9
    coordinates: [  0.958333332977527,  0.708333333676907,  0.208333333257972 ]
    mass: 6.940000
    reduced_to: 1
  - symbol: Li # 10
    coordinates: [  0.291666666310861,  0.041666667010240,  0.541666666591305 ]
    mass: 6.940000
    reduced_to: 1
  - symbol: Li # 11
    coordinates: [  0.624999999644194,  0.041666667010240,  0.541666666591305 ]
    mass: 6.940000
    reduced_to: 1
  - symbol: Li # 12
    coordinates: [  0.958333332977527,  0.041666667010240,  0.541666666591305 ]
    mass: 6.940000
    reduced_to: 1
  - symbol: Li # 13
    coordinates: [  0.291666666310861,  0.375000000343573,  0.541666666591305 ]
    mass: 6.940000
    reduced_to: 1
  - symbol: Li # 14
    coordinates: [  0.624999999644194,  0.375000000343573,  0.541666666591305 ]
    mass: 6.940000
    reduced_to: 1
  - symbol: Li # 15
    coordinates: [  0.958333332977527,  0.375000000343573,  0.541666666591305 ]
    mass: 6.940000
    reduced_to: 1
  - symbol: Li # 16
    coordinates: [  0.291666666310861,  0.708333333676907,  0.541666666591305 ]
    mass: 6.940000
    reduced_to: 1
  - symbol: Li # 17
    coordinates: [  0.624999999644194,  0.708333333676907,  0.541666666591305 ]
    mass: 6.940000
    reduced_to: 1
  - symbol: Li # 18
    coordinates: [  0.958333332977527,  0.708333333676907,  0.541666666591305 ]
    mass: 6.940000
    reduced_to: 1
  - symbol: Li # 19
    coordinates: [  0.291666666310861,  0.041666667010240,  0.874999999924638 ]
    mass: 6.940000
    reduced_to: 1
  - symbol: Li # 20
    coordinates: [  0.624999999644194,  0.041666667010240,  0.874999999924638 ]
    mass: 6.940000
    reduced_to: 1
  - symbol: Li # 21
    coordinates: [  0.958333332977527,  0.041666667010240,  0.874999999924638 ]
    mass: 6.940000
    reduced_to: 1
  - symbol: Li # 22
    coordinates: [  0.291666666310861,  0.375000000343573,  0.874999999924638 ]
    mass: 6.940000
    reduced_to: 1
  - symbol: Li # 23
    coordinates: [  0.624999999644194,  0.375000000343573,  0.874999999924638 ]
    mass: 6.940000
    reduced_to: 1
  - symbol: Li # 24
    coordinates: [  0.958333332977527,  0.375000000343573,  0.874999999924638 ]
    mass: 6.940000
    reduced_to: 1
  - symbol: Li # 25
    coordinates: [  0.291666666310861,  0.708333333676907,  0.874999999924638 ]
    mass: 6.940000
    reduced_to: 1
  - symbol: Li # 26
    coordinates: [  0.624999999644194,  0.708333333676907,  0.874999999924638 ]
    mass: 6.940000
    reduced_to: 1
  - symbol: Li # 27
    coordinates: [  0.958333332977527,  0.708333333676907,  0.874999999924638 ]
    mass: 6.940000
    reduced_to: 1
  - symbol: Li # 28
    coordinates: [  0.125000001281946,  0.125000000495731,  0.125000000469584 ]
    mass: 6.940000
    reduced_to: 28
  - symbol: Li # 29
    coordinates: [  0.458333334615279,  0.125000000495731,  0.125000000469584 ]
    mass: 6.940000
    reduced_to: 28
  - symbol: Li # 30
    coordinates: [  0.791666667948612,  0.125000000495731,  0.125000000469584 ]
    mass: 6.940000
    reduced_to: 28
  - symbol: Li # 31
    coordinates: [  0.125000001281946,  0.458333333829064,  0.125000000469584 ]
    mass: 6.940000
    reduced_to: 28
  - symbol: Li # 32
    coordinates: [  0.458333334615279,  0.458333333829064,  0.125000000469584 ]
    mass: 6.940000
    reduced_to: 28
  - symbol: Li # 33
    coordinates: [  0.791666667948612,  0.458333333829064,  0.125000000469584 ]
    mass: 6.940000
    reduced_to: 28
  - symbol: Li # 34
    coordinates: [  0.125000001281946,  0.791666667162397,  0.125000000469584 ]
    mass: 6.940000
    reduced_to: 28
  - symbol: Li # 35
    coordinates: [  0.458333334615279,  0.791666667162397,  0.125000000469584 ]
    mass: 6.940000
    reduced_to: 28
  - symbol: Li # 36
    coordinates: [  0.791666667948612,  0.791666667162397,  0.125000000469584 ]
    mass: 6.940000
    reduced_to: 28
  - symbol: Li # 37
    coordinates: [  0.125000001281946,  0.125000000495731,  0.458333333802917 ]
    mass: 6.940000
    reduced_to: 28
  - symbol: Li # 38
    coordinates: [  0.458333334615279,  0.125000000495731,  0.458333333802917 ]
    mass: 6.940000
    reduced_to: 28
  - symbol: Li # 39
    coordinates: [  0.791666667948612,  0.125000000495731,  0.458333333802917 ]
    mass: 6.940000
    reduced_to: 28
  - symbol: Li # 40
    coordinates: [  0.125000001281946,  0.458333333829064,  0.458333333802917 ]
    mass: 6.940000
    reduced_to: 28
  - symbol: Li # 41
    coordinates: [  0.458333334615279,  0.458333333829064,  0.458333333802917 ]
    mass: 6.940000
    reduced_to: 28
  - symbol: Li # 42
    coordinates: [  0.791666667948612,  0.458333333829064,  0.458333333802917 ]
    mass: 6.940000
    reduced_to: 28
  - symbol: Li # 43
    coordinates: [  0.125000001281946,  0.791666667162397,  0.458333333802917 ]
    mass: 6.940000
    reduced_to: 28
  - symbol: Li # 44
    coordinates: [  0.458333334615279,  0.791666667162397,  0.458333333802917 ]
    mass: 6.940000
    reduced_to: 28
  - symbol: Li # 45
    coordinates: [  0.791666667948612,  0.791666667162397,  0.458333333802917 ]
    mass: 6.940000
    reduced_to: 28
  - symbol: Li # 46
    coordinates: [  0.125000001281946,  0.125000000495731,  0.791666667136251 ]
    mass: 6.940000
    reduced_to: 28
  - symbol: Li # 47
    coordinates: [  0.458333334615279,  0.125000000495731,  0.791666667136251 ]
    mass: 6.940000
    reduced_to: 28
  - symbol: Li # 48
    coordinates: [  0.791666667948612,  0.125000000495731,  0.791666667136251 ]
    mass: 6.940000
    reduced_to: 28
  - symbol: Li # 49
    coordinates: [  0.125000001281946,  0.458333333829064,  0.791666667136251 ]
    mass: 6.940000
    reduced_to: 28
  - symbol: Li # 50
    coordinates: [  0.458333334615279,  0.458333333829064,  0.791666667136251 ]
    mass: 6.940000
    reduced_to: 28
  - symbol: Li # 51
    coordinates: [  0.791666667948612,  0.458333333829064,  0.791666667136251 ]
    mass: 6.940000
    reduced_to: 28
  - symbol: Li # 52
    coordinates: [  0.125000001281946,  0.791666667162397,  0.791666667136251 ]
    mass: 6.940000
    reduced_to: 28
  - symbol: Li # 53
    coordinates: [  0.458333334615279,  0.791666667162397,  0.791666667136251 ]
    mass: 6.940000
    reduced_to: 28
  - symbol: Li # 54
    coordinates: [  0.791666667948612,  0.791666667162397,  0.791666667136251 ]
    mass: 6.940000
    reduced_to: 28
  - symbol: Li # 55
    coordinates: [  0.041666666877943,  0.208333332759634,  0.291666665970517 ]
    mass: 6.940000
    reduced_to: 55
  - symbol: Li # 56
    coordinates: [  0.375000000211277,  0.208333332759634,  0.291666665970517 ]
    mass: 6.940000
    reduced_to: 55
  - symbol: Li # 57
    coordinates: [  0.708333333544610,  0.208333332759634,  0.291666665970517 ]
    mass: 6.940000
    reduced_to: 55
  - symbol: Li # 58
    coordinates: [  0.041666666877943,  0.541666666092967,  0.291666665970517 ]
    mass: 6.940000
    reduced_to: 55
  - symbol: Li # 59
    coordinates: [  0.375000000211277,  0.541666666092967,  0.291666665970517 ]
    mass: 6.940000
    reduced_to: 55
  - symbol: Li # 60
    coordinates: [  0.708333333544610,  0.541666666092967,  0.291666665970517 ]
    mass: 6.940000
    reduced_to: 55
  - symbol: Li # 61
    coordinates: [  0.041666666877943,  0.874999999426301,  0.291666665970517 ]
    mass: 6.940000
    reduced_to: 55
  - symbol: Li # 62
    coordinates: [  0.375000000211277,  0.874999999426301,  0.291666665970517 ]
    mass: 6.940000
    reduced_to: 55
  - symbol: Li # 63
    coordinates: [  0.708333333544610,  0.874999999426301,  0.291666665970517 ]
    mass: 6.940000
    reduced_to: 55
  - symbol: Li # 64
    coordinates: [  0.041666666877943,  0.208333332759634,  0.624999999303850 ]
    mass: 6.940000
    reduced_to: 55
  - symbol: Li # 65
    coordinates: [  0.375000000211277,  0.208333332759634,  0.624999999303850 ]
    mass: 6.940000
    reduced_to: 55
  - symbol: Li # 66
    coordinates: [  0.708333333544610,  0.208333332759634,  0.624999999303850 ]
    mass: 6.940000
    reduced_to: 55
  - symbol: Li # 67
    coordinates: [  0.041666666877943,  0.541666666092967,  0.624999999303850 ]
    mass: 6.940000
    reduced_to: 55
  - symbol: Li # 68
    coordinates: [  0.375000000211277,  0.541666666092967,  0.624999999303850 ]
    mass: 6.940000
    reduced_to: 55
  - symbol: Li # 69
    coordinates: [  0.708333333544610,  0.541666666092967,  0.624999999303850 ]
    mass: 6.940000
    reduced_to: 55
  - symbol: Li # 70
    coordinates: [  0.041666666877943,  0.874999999426301,  0.624999999303850 ]
    mass: 6.940000
    reduced_to: 55
  - symbol: Li # 71
    coordinates: [  0.375000000211277,  0.874999999426301,  0.624999999303850 ]
    mass: 6.940000
    reduced_to: 55
  - symbol: Li # 72
    coordinates: [  0.708333333544610,  0.874999999426301,  0.624999999303850 ]
    mass: 6.940000
    reduced_to: 55
  - symbol: Li # 73
    coordinates: [  0.041666666877943,  0.208333332759634,  0.958333332637183 ]
    mass: 6.940000
    reduced_to: 55
  - symbol: Li # 74
    coordinates: [  0.375000000211277,  0.208333332759634,  0.958333332637183 ]
    mass: 6.940000
    reduced_to: 55
  - symbol: Li # 75
    coordinates: [  0.708333333544610,  0.208333332759634,  0.958333332637183 ]
    mass: 6.940000
    reduced_to: 55
  - symbol: Li # 76
    coordinates: [  0.041666666877943,  0.541666666092967,  0.958333332637183 ]
    mass: 6.940000
    reduced_to: 55
  - symbol: Li # 77
    coordinates: [  0.375000000211277,  0.541666666092967,  0.958333332637183 ]
    mass: 6.940000
    reduced_to: 55
  - symbol: Li # 78
    coordinates: [  0.708333333544610,  0.541666666092967,  0.958333332637183 ]
    mass: 6.940000
    reduced_to: 55
  - symbol: Li # 79
    coordinates: [  0.041666666877943,  0.874999999426301,  0.958333332637183 ]
    mass: 6.940000
    reduced_to: 55
  - symbol: Li # 80
    coordinates: [  0.375000000211277,  0.874999999426301,  0.958333332637183 ]
    mass: 6.940000
    reduced_to: 55
  - symbol: Li # 81
    coordinates: [  0.708333333544610,  0.874999999426301,  0.958333332637183 ]
    mass: 6.940000
    reduced_to: 55
  - symbol: Li # 82
    coordinates: [  0.208333332377084,  0.291666666432242,  0.041666666984318 ]
    mass: 6.940000
    reduced_to: 82
  - symbol: Li # 83
    coordinates: [  0.541666665710417,  0.291666666432242,  0.041666666984318 ]
    mass: 6.940000
    reduced_to: 82
  - symbol: Li # 84
    coordinates: [  0.874999999043751,  0.291666666432242,  0.041666666984318 ]
    mass: 6.940000
    reduced_to: 82
  - symbol: Li # 85
    coordinates: [  0.208333332377084,  0.624999999765575,  0.041666666984318 ]
    mass: 6.940000
    reduced_to: 82
  - symbol: Li # 86
    coordinates: [  0.541666665710417,  0.624999999765575,  0.041666666984318 ]
    mass: 6.940000
    reduced_to: 82
  - symbol: Li # 87
    coordinates: [  0.874999999043751,  0.624999999765575,  0.041666666984318 ]
    mass: 6.940000
    reduced_to: 82
  - symbol: Li # 88
    coordinates: [  0.208333332377084,  0.958333333098909,  0.041666666984318 ]
    mass: 6.940000
    reduced_to: 82
  - symbol: Li # 89
    coordinates: [  0.541666665710417,  0.958333333098909,  0.041666666984318 ]
    mass: 6.940000
    reduced_to: 82
  - symbol: Li # 90
    coordinates: [  0.874999999043751,  0.958333333098909,  0.041666666984318 ]
    mass: 6.940000
    reduced_to: 82
  - symbol: Li # 91
    coordinates: [  0.208333332377084,  0.291666666432242,  0.375000000317652 ]
    mass: 6.940000
    reduced_to: 82
  - symbol: Li # 92
    coordinates: [  0.541666665710417,  0.291666666432242,  0.375000000317652 ]
    mass: 6.940000
    reduced_to: 82
  - symbol: Li # 93
    coordinates: [  0.874999999043751,  0.291666666432242,  0.375000000317652 ]
    mass: 6.940000
    reduced_to: 82
  - symbol: Li # 94
    coordinates: [  0.208333332377084,  0.624999999765575,  0.375000000317652 ]
    mass: 6.940000
    reduced_to: 82
  - symbol: Li # 95
    coordinates: [  0.541666665710417,  0.624999999765575,  0.375000000317652 ]
    mass: 6.940000
    reduced_to: 82
  - symbol: Li # 96
    coordinates: [  0.874999999043751,  0.624999999765575,  0.375000000317652 ]
    mass: 6.940000
    reduced_to: 82
  - symbol: Li # 97
    coordinates: [  0.208333332377084,  0.958333333098909,  0.375000000317652 ]
    mass: 6.940000
    reduced_to: 82
  - symbol: Li # 98
    coordinates: [  0.541666665710417,  0.958333333098909,  0.375000000317652 ]
    mass: 6.940000
    reduced_to: 82
  - symbol: Li # 99
    coordinates: [  0.874999999043751,  0.958333333098909,  0.375000000317652 ]
    mass: 6.940000
    reduced_to: 82
  - symbol: Li # 100
    coordinates: [  0.208333332377084,  0.291666666432242,  0.708333333650985 ]
    mass: 6.940000
    reduced_to: 82
  - symbol: Li # 101
    coordinates: [  0.541666665710417,  0.291666666432242,  0.708333333650985 ]
    mass: 6.940000
    reduced_to: 82
  - symbol: Li # 102
    coordinates: [  0.874999999043751,  0.291666666432242,  0.708333333650985 ]
    mass: 6.940000
    reduced_to: 82
  - symbol: Li # 103
    coordinates: [  0.208333332377084,  0.624999999765575,  0.708333333650985 ]
    mass: 6.940000
    reduced_to: 82
  - symbol: Li # 104
    coordinates: [  0.541666665710417,  0.624999999765575,  0.708333333650985 ]
    mass: 6.940000
    reduced_to: 82
  - symbol: Li # 105
    coordinates: [  0.874999999043751,  0.624999999765575,  0.708333333650985 ]
    mass: 6.940000
    reduced_to: 82
  - symbol: Li # 106
    coordinates: [  0.208333332377084,  0.958333333098909,  0.708333333650985 ]
    mass: 6.940000
    reduced_to: 82
  - symbol: Li # 107
    coordinates: [  0.541666665710417,  0.958333333098909,  0.708333333650985 ]
    mass: 6.940000
    reduced_to: 82
  - symbol: Li # 108
    coordinates: [  0.874999999043751,  0.958333333098909,  0.708333333650985 ]
    mass: 6.940000
    reduced_to: 82

displacements:
- atom:    1
  displacement:
    [   0.0100000000000000,  0.0000000000000000,  0.0000000000000000 ]
  forces:
  - [  -0.0156614594161510, -0.0044408403337002, -0.0043080979958177 ]
  - [  -0.0006564743816853, -0.0000812290236354, -0.0000155484303832 ]
  - [  -0.0006423201411963, -0.0000152513384819, -0.0000810073688626 ]
  - [   0.0000760289840400, -0.0000165705569088, -0.0000080894678831 ]
  - [  -0.0000371960923076,  0.0000019846484065, -0.0000174967572093 ]
  - [  -0.0000353339128196,  0.0000174129381776,  0.0000018067657948 ]
  - [   0.0000756015069783, -0.0000809594057500, -0.0000685974955559 ]
  - [  -0.0000372878275812, -0.0000570956617594,  0.0000011511147022 ]
  - [  -0.0000386354513466,  0.0000013271346688, -0.0000103749334812 ]
  - [   0.0000766105949879, -0.0000674878247082, -0.0000819806009531 ]
  - [  -0.0000361893326044, -0.0000093206763268,  0.0000019222497940 ]
  - [  -0.0000359863042831,  0.0000014100223780, -0.0000573359429836 ]
  - [  -0.0000066352076828,  0.0000014975667000,  0.0000023171305656 ]
  - [   0.0000169002451003,  0.0000190553255379,  0.0000125644728541 ]
  - [   0.0000257729552686, -0.0000398270785809, -0.0000357255339622 ]
  - [   0.0000181845389307, -0.0000099614262581, -0.0000099372118711 ]
  - [   0.0000032759271562, -0.0000218050554395,  0.0000184327363968 ]
  - [   0.0000050668604672,  0.0000190385617316, -0.0000217435881495 ]
  - [   0.0000763069838285, -0.0000064433552325, -0.0000142650678754 ]
  - [  -0.0000362675637007,  0.0000031837262213,  0.0000170795246959 ]
  - [  -0.0000365152955055, -0.0000167745165527,  0.0000023068860173 ]
  - [   0.0000190702266991, -0.0000163284130394, -0.0000178879126906 ]
  - [   0.0000051232054830,  0.0000126566737890,  0.0000001098960638 ]
  - [   0.0000053592957556,  0.0000006291083992,  0.0000122198835015 ]
  - [  -0.0000073839910328,  0.0000019050203264,  0.0000019269064069 ]
  - [   0.0000255373306572, -0.0000354256480932, -0.0000398978590965 ]
  - [   0.0000167242251337,  0.0000128848478198,  0.0000189030542970 ]
  - [   0.0068642916157842, -0.0038113500922918,  0.0038139410316944 ]
  - [   0.0069623156450689,  0.0038906130939722, -0.0038933958858252 ]
  - [  -0.0000638267956674,  0.0000059213489294,  0.0000058654695749 ]
  - [  -0.0000022924505174,  0.0000283559784293,  0.0000230539590120 ]
  - [  -0.0000015418045223, -0.0000599613413215,  0.0000083111226559 ]
  - [  -0.0000033956021070, -0.0000043697655201, -0.0000050715170801 ]
  - [  -0.0000748937018216, -0.0003545172512531, -0.0001172255724669 ]
  - [  -0.0000694720074534,  0.0002699270844460,  0.0000132806599140 ]
  - [   0.0001270351931453, -0.0000102408230305,  0.0000139456242323 ]
  - [  -0.0000766622833908,  0.0000148126855493,  0.0002769455313683 ]
  - [  -0.0000708871521056, -0.0001157103106380, -0.0003490410745144 ]
  - [   0.0001250691711903,  0.0000142129138112, -0.0000089704990387 ]
  - [  -0.0000104266218841, -0.0000301823019981, -0.0000035520642996 ]
  - [  -0.0000097774900496,  0.0000081490725279, -0.0000022770836949 ]
  - [  -0.0000095372088253, -0.0000051548704505, -0.0000005750916898 ]
  - [   0.0001261932775378,  0.0001025078818202, -0.0000200290232897 ]
  - [   0.0001282570883632, -0.0000215554609895,  0.0001045921817422 ]
  - [   0.0000494285486639, -0.0000073136761785, -0.0000073350965977 ]
  - [  -0.0000019147992134,  0.0000089360401034, -0.0000589066185057 ]
  - [  -0.0000013895332813,  0.0000224839895964,  0.0000281818211079 ]
  - [  -0.0000033304095268, -0.0000045523047447, -0.0000042021274567 ]
  - [   0.0000041238963604, -0.0000053420662880,  0.0000122711062431 ]
  - [   0.0000048093497753,  0.0000123940408230, -0.0000054514966905 ]
  - [  -0.0000067111104727, -0.0000007711350918, -0.0000015362165868 ]
  - [  -0.0000094939023256, -0.0000022565945983,  0.0000083786435425 ]
  - [  -0.0000090505927801, -0.0000039124861360, -0.0000309357419610 ]
  - [  -0.0000088498927653, -0.0000007627531886, -0.0000053681433201 ]
  - [  -0.0002961866557598,  0.0003550238907337,  0.0001210574992001 ]
  - [   0.0008638696745038,  0.0038580317050219,  0.0019386080093682 ]
  - [   0.0000309413298965, -0.0000290786847472, -0.0000623269006610 ]
  - [   0.0000094852421171,  0.0000089555978775, -0.0000173524022102 ]
  - [   0.0000014267861843, -0.0000053495168686,  0.0000215172767639 ]
  - [  -0.0000122971832752,  0.0000035222619772,  0.0000041956081986 ]
  - [  -0.0002960443962365, -0.0002776384353638,  0.0002147331833839 ]
  - [   0.0008663120679557, -0.0038584880530834,  0.0019804891198874 ]
  - [   0.0000314777716994,  0.0000590379349887,  0.0000462308526039 ]
  - [  -0.0000047711655498,  0.0000024884939194, -0.0000079879537225 ]
  - [  -0.0000015529803932, -0.0000079926103354, -0.0000615683384240 ]
  - [   0.0000070035457611,  0.0000050477683544,  0.0000203121453524 ]
  - [   0.0000005443275768,  0.0000004600733519,  0.0000022836029530 ]
  - [   0.0000056214630604,  0.0000051232054830,  0.0000043376348913 ]
  - [  -0.0000060573220253,  0.0000009369105101,  0.0000045532360673 ]
  - [  -0.0000045164792937,  0.0000040810555220, -0.0000051297247410 ]
  - [  -0.0000018700957298, -0.0000215843319893,  0.0000464506447315 ]
  - [   0.0000079646706581, -0.0000122934579849,  0.0000376552343369 ]
  - [  -0.0000182649109775, -0.0001035463064909,  0.0001717684790492 ]
  - [   0.0001127799041569, -0.0000133565627038,  0.0001189298927784 ]
  - [   0.0000005755573511,  0.0000296710059047, -0.0000086980871856 ]
  - [   0.0000190029240912,  0.0000068792141974,  0.0000135079026222 ]
  - [  -0.0000156033784151, -0.0000139051117003, -0.0000172136351466 ]
  - [  -0.0000050952658057,  0.0000049797818065,  0.0000021741725504 ]
  - [  -0.0000180469505722,  0.0000207722187042, -0.0000016763806343 ]
  - [   0.0001133941113949,  0.0001165219582617,  0.0002123452723026 ]
  - [   0.0000010272487998, -0.0000090361572802, -0.0000051166862249 ]
  - [   0.0001130626842496,  0.0001195930526592, -0.0000136694870889 ]
  - [  -0.0000165381807165,  0.0001767064095475, -0.0001048948615789 ]
  - [   0.0000007287817425, -0.0000095841805887,  0.0000301934778690 ]
  - [  -0.0000018962950890, -0.0000619487836957, -0.0000083241611719 ]
  - [  -0.0000048503279686, -0.0000081639736891,  0.0000022966414690 ]
  - [   0.0000070016831160,  0.0000204741954803,  0.0000058943405747 ]
  - [   0.0008936636149883,  0.0019298950210214,  0.0038457727059722 ]
  - [  -0.0002790653379634,  0.0001174919307232,  0.0003469921648502 ]
  - [   0.0000314451754093, -0.0000628959387541, -0.0000293068587780 ]
  - [   0.0001115900813602,  0.0002132188528776,  0.0001176623627543 ]
  - [  -0.0000173078205989, -0.0000018123537302,  0.0000200308859348 ]
  - [   0.0000000880320385, -0.0000060349702835, -0.0000081839971244 ]
  - [  -0.0000019102044462,  0.0000468138605356, -0.0000216676853597 ]
  - [  -0.0000051016631915, -0.0000042151659727,  0.0000043041072786 ]
  - [   0.0000066943466663,  0.0000372100621462, -0.0000125505030155 ]
  - [   0.0008911090553738,  0.0019748890772462, -0.0038448488339782 ]
  - [  -0.0002798773348331,  0.0002104416489601, -0.0002698311582208 ]
  - [   0.0000303760170937,  0.0000451225787401,  0.0000586314126849 ]
  - [  -0.0000153835862875, -0.0000174269080162, -0.0000137859024107 ]
  - [   0.0000188816338778,  0.0000135842710733,  0.0000067669898272 ]
  - [  -0.0000046941095206,  0.0000016167759895,  0.0000044619664550 ]
  - [   0.0000056140124798,  0.0000045066699386,  0.0000049751251936 ]
  - [   0.0000001749668712,  0.0000027716159821,  0.0000000167638063 ]
  - [  -0.0000076070427895,  0.0000036843121052,  0.0000012000091374 ]
  - [   0.0000011865049601,  0.0000210739672184, -0.0000063334591687 ]
  - [   0.0000087991356850, -0.0000173412263393,  0.0000090431421995 ]
  - [  -0.0000131782144308,  0.0000030882656574,  0.0000032852403820 ]

force_constants:
  format: "full"
  shape: [ 108, 108 ]
  elements:
  - # (1, 1)
    - [     1.566146009046972,     0.437453649317793,     0.437453631844557 ]
    - [     0.437453649317793,     1.566145979968423,    -0.437453646286233 ]
    - [     0.437453631844557,    -0.437453646286233,     1.566146017767645 ]
  - # (1, 2)
    - [     0.064939793166062,     0.008136129047704,     0.001547607085327 ]
    - [     0.001547602045488,    -0.007613634381620,    -0.000733361350593 ]
    - [     0.008136132167153,    -0.006810985948221,    -0.007613632893949 ]
  - # (1, 3)
    - [     0.064939794372303,     0.001547603141122,     0.008136132312015 ]
    - [     0.008136129186012,    -0.007613633589701,    -0.006810987030097 ]
    - [     0.001547606753964,    -0.000733362131421,    -0.007613632803601 ]
  - # (1, 4)
    - [    -0.007613633088462,     0.001547604844116,     0.000733362486076 ]
    - [     0.008136132367448,     0.064939794686848,    -0.001547605443529 ]
    - [     0.006810987046145,    -0.008136133150370,    -0.007613633331868 ]
  - # (1, 5)
    - [     0.003713472300485,    -0.000181802700537,     0.001718911404268 ]
    - [    -0.000181802287851,     0.003713472629506,    -0.001718910366760 ]
    - [     0.000996577336386,    -0.000996576942054,    -0.001862670010376 ]
  - # (1, 6)
    - [     0.003621958401902,    -0.001717903324593,    -0.000223594500004 ]
    - [     0.005728301250590,     0.003621958240299,     0.000142919896712 ]
    - [    -0.000142919241204,     0.000223595664399,     0.000701028392412 ]
  - # (1, 7)
    - [    -0.007613633259419,     0.008136129908066,     0.006810986312174 ]
    - [     0.001547607359249,     0.064939794146672,    -0.008136131887658 ]
    - [     0.000733361451712,    -0.001547605352556,    -0.007613633435289 ]
  - # (1, 8)
    - [     0.003621958463880,     0.005728300510194,    -0.000142918987818 ]
    - [    -0.001717902464167,     0.003621958033639,     0.000223595609411 ]
    - [    -0.000223594978768,     0.000142919818167,     0.000701028398349 ]
  - # (1, 9)
    - [     0.003713472605391,    -0.000181803368574,     0.000996577282241 ]
    - [    -0.000181802554403,     0.003713472460677,    -0.000996577395240 ]
    - [     0.001718910695086,    -0.001718911360963,    -0.001862669331454 ]
  - # (1, 10)
    - [    -0.007613633720212,     0.006810985864498,     0.008136130466112 ]
    - [     0.000733361255174,    -0.007613633331722,    -0.001547605575815 ]
    - [     0.001547604642597,    -0.008136130786286,     0.064939795191360 ]
  - # (1, 11)
    - [     0.003713471936359,     0.000996575959562,    -0.000181801635416 ]
    - [     0.001718910240661,    -0.001862669951062,    -0.001718910265467 ]
    - [    -0.000181801965308,    -0.000996576750077,     0.003713472990121 ]
  - # (1, 12)
    - [     0.003621958231501,    -0.000142920749907,     0.005728301592196 ]
    - [    -0.000223595796460,     0.000701028139825,     0.000142919067835 ]
    - [    -0.001717902238828,     0.000223595122311,     0.003621959266531 ]
  - # (1, 13)
    - [     0.000701028581313,    -0.000142920024766,    -0.000223594692004 ]
    - [    -0.000223595439400,     0.003621959249796,     0.001717902649754 ]
    - [    -0.000142919207598,    -0.005728301205920,     0.003621958715921 ]
  - # (1, 14)
    - [    -0.001681155501403,    -0.001879021551668,    -0.001251425580117 ]
    - [    -0.001251426145959,    -0.000470563742181,     0.000030230340317 ]
    - [    -0.001879021143923,    -0.002184152718308,    -0.000470564143570 ]
  - # (1, 15)
    - [    -0.002565446006368,     0.003992967058610,     0.003564280680046 ]
    - [     0.003564279941515,    -0.002565446206637,    -0.003992967486009 ]
    - [     0.003992967570973,    -0.003564279546483,    -0.002565445688317 ]
  - # (1, 16)
    - [    -0.001862670063291,     0.000996576418536,     0.000996576996436 ]
    - [     0.001718910993612,     0.003713472702608,     0.000181801909855 ]
    - [     0.001718910015113,     0.000181802180276,     0.003713472873259 ]
  - # (1, 17)
    - [    -0.000470563974780,     0.002184152793670,    -0.001879020759994 ]
    - [    -0.000030229307191,    -0.000470563893371,     0.001251426983478 ]
    - [    -0.001251426173679,     0.001879021752226,    -0.001681155347425 ]
  - # (1, 18)
    - [    -0.000470564121573,    -0.001879022209076,     0.002184153620155 ]
    - [    -0.001251426735480,    -0.001681155290223,     0.001879020721196 ]
    - [    -0.000030229545243,     0.001251425740404,    -0.000470563158114 ]
  - # (1, 19)
    - [    -0.007613634057629,     0.000733360962948,     0.001547605141151 ]
    - [     0.006810986058030,    -0.007613633474543,    -0.008136130660461 ]