# Thermal properties / unit cell (natom)

unit:
  temperature:   K
  free_energy:   kJ/mol
  entropy:       J/K/mol
  heat_capacity: J/K/mol

natom: 4    
cutoff_frequency: 0.00000
num_modes: 146004
num_integrated_modes: 114441

zero_point_energy:      15.0663293

thermal_properties:
- temperature:         0.0000000
  free_energy:        15.0663293
  entropy:             0.0000000
  heat_capacity:       0.0000000
  energy:             15.0663293

- temperature:        10.0000000
  free_energy:        15.0649767
  entropy:             0.3719009
  heat_capacity:       0.7276027
  energy:             15.0686957

- temperature:        20.0000000
  free_energy:        15.0564244
  entropy:             1.4400153
  heat_capacity:       2.6733865
  energy:             15.0852247

- temperature:        30.0000000
  free_energy:        15.0347739
  entropy:             2.9384718
  heat_capacity:       4.8941695
  energy:             15.1229280

- temperature:        40.0000000
  free_energy:        14.9968679
  entropy:             4.6783260
  heat_capacity:       7.3850732
  energy:             15.1840010

- temperature:        50.0000000
  free_energy:        14.9404911
  entropy:             6.6338858
  heat_capacity:      10.3360463
  energy:             15.2721853

- temperature:        60.0000000
  free_energy:        14.8634353
  entropy:             8.8153680
  heat_capacity:      13.7731281
  energy:             15.3923574

- temperature:        70.0000000
  free_energy:        14.7634340
  entropy:            11.2211056
  heat_capacity:      17.5875574
  energy:             15.5489114

- temperature:        80.0000000
  free_energy:        14.6383309
  entropy:            13.8311248
  heat_capacity:      21.6158458
  energy:             15.7448209

- temperature:        90.0000000
  free_energy:        14.4862385
  entropy:            16.6128819
  heat_capacity:      25.6960685
  energy:             15.9813979

- temperature:       100.0000000
  free_energy:        14.3056273
  entropy:            19.5284339
  heat_capacity:      29.6961393
  energy:             16.2584707

- temperature:       110.0000000
  free_energy:        14.0953506
  entropy:            22.5398709
  heat_capacity:      33.5221300
  energy:             16.5747364

- temperature:       120.0000000
  free_energy:        13.8546262
  entropy:            25.6125733
  heat_capacity:      37.1155834
  energy:             16.9281350

- temperature:       130.0000000
  free_energy:        13.5829948
  entropy:            28.7167340
  heat_capacity:      40.4463786
  energy:             17.3161703

- temperature:       140.0000000
  free_energy:        13.2802692
  entropy:            31.8277450
  heat_capacity:      43.5049175
  energy:             17.7361535

- temperature:       150.0000000
  free_energy:        12.9464831
  entropy:            34.9259386
  heat_capacity:      46.2953337
  energy:             18.1853739

- temperature:       160.0000000
  free_energy:        12.5818446
  entropy:            37.9960214
  heat_capacity:      48.8302388
  energy:             18.6612080

- temperature:       170.0000000
  free_energy:        12.1866954
  entropy:            41.0264065
  heat_capacity:      51.1269433
  energy:             19.1611845

- temperature:       180.0000000
  free_energy:        11.7614775
  entropy:            44.0085562
  heat_capacity:      53.2048868
  energy:             19.6830176

- temperature:       190.0000000
  free_energy:        11.3067055
  entropy:            46.9363890
  heat_capacity:      55.0839743
  energy:             20.2246194

- temperature:       200.0000000
  free_energy:        10.8229447
  entropy:            49.8057708
  heat_capacity:      56.7835568
  energy:             20.7840989

- temperature:       210.0000000
  free_energy:        10.3107938
  entropy:            52.6140921
  heat_capacity:      58.3218508
  energy:             21.3597531

- temperature:       220.0000000
  free_energy:         9.7708713
  entropy:            55.3599233
  heat_capacity:      59.7156476
  energy:             21.9500544

- temperature:       230.0000000
  free_energy:         9.2038054
  entropy:            58.0427391
  heat_capacity:      60.9802068
  energy:             22.5536354

- temperature:       240.0000000
  free_energy:         8.6102261
  entropy:            60.6626984
  heat_capacity:      62.1292620
  energy:             23.1692737

- temperature:       250.0000000
  free_energy:         7.9907588
  entropy:            63.2204718
  heat_capacity:      63.1750926
  energy:             23.7958768

- temperature:       260.0000000
  free_energy:         7.3460205
  entropy:            65.7171061
  heat_capacity:      64.1286293
  energy:             24.4324681

- temperature:       270.0000000
  free_energy:         6.6766161
  entropy:            68.1539187
  heat_capacity:      64.9995748
  energy:             25.0781742

- temperature:       280.0000000
  free_energy:         5.9831365
  entropy:            70.5324161
  heat_capacity:      65.7965277
  energy:             25.7322130

- temperature:       290.0000000
  free_energy:         5.2661567
  entropy:            72.8542304
  heat_capacity:      66.5271018
  energy:             26.3938835

- temperature:       300.0000000
  free_energy:         4.5262351
  entropy:            75.1210707
  heat_capacity:      67.1980380
  energy:             27.0625563

- temperature:       310.0000000
  free_energy:         3.7639127
  entropy:            77.3346863
  heat_capacity:      67.8153065
  energy:             27.7376655

- temperature:       320.0000000
  free_energy:         2.9797130
  entropy:            79.4968385
  heat_capacity:      68.3841988
  energy:             28.4187013

- temperature:       330.0000000
  free_energy:         2.1741417
  entropy:            81.6092795
  heat_capacity:      68.9094094
  energy:             29.1052039

- temperature:       340.0000000
  free_energy:         1.3476873
  entropy:            83.6737368
  heat_capacity:      69.3951082
  energy:             29.7967578

- temperature:       350.0000000
  free_energy:         0.5008212
  entropy:            85.6919016
  heat_capacity:      69.8450041
  energy:             30.4929868

- temperature:       360.0000000
  free_energy:        -0.3660019
  entropy:            87.6654209
  heat_capacity:      70.2624013
  energy:             31.1935496

- temperature:       370.0000000
  free_energy:        -1.2523437
  entropy:            89.5958920
  heat_capacity:      70.6502474
  energy:             31.8981363

- temperature:       380.0000000
  free_energy:        -2.1577814
  entropy:            91.4848586
  heat_capacity:      71.0111768
  energy:             32.6064649

- temperature:       390.0000000
  free_energy:        -3.0819075
  entropy:            93.3338090
  heat_capacity:      71.3475473
  energy:             33.3182780

- temperature:       400.0000000
  free_energy:        -4.0243290
  entropy:            95.1441750
  heat_capacity:      71.6614730
  energy:             34.0333410

- temperature:       410.0000000
  free_energy:        -4.9846670
  entropy:            96.9173317
  heat_capacity:      71.9548529
  energy:             34.7514390

- temperature:       420.0000000
  free_energy:        -5.9625560
  entropy:            98.6545983
  heat_capacity:      72.2293951
  energy:             35.4723753

- temperature:       430.0000000
  free_energy:        -6.9576435
  entropy:           100.3572391
  heat_capacity:      72.4866389
  energy:             36.1959693

- temperature:       440.0000000
  free_energy:        -7.9695894
  entropy:           102.0264647
  heat_capacity:      72.7279739
  energy:             36.9220551

- temperature:       450.0000000
  free_energy:        -8.9980653
  entropy:           103.6634338
  heat_capacity:      72.9546562
  energy:             37.6504799

- temperature:       460.0000000
  free_energy:       -10.0427542
  entropy:           105.2692552
  heat_capacity:      73.1678234
  energy:             38.3811032

- temperature:       470.0000000
  free_energy:       -11.1033501
  entropy:           106.8449892
  heat_capacity:      73.3685074
  energy:             39.1137948

- temperature:       480.0000000
  free_energy:       -12.1795571
  entropy:           108.3916499
  heat_capacity:      73.5576454
  energy:             39.8484348

- temperature:       490.0000000
  free_energy:       -13.2710894
  entropy:           109.9102072
  heat_capacity:      73.7360903
  energy:             40.5849121

- temperature:       500.0000000
  free_energy:       -14.3776707
  entropy:           111.4015885
  heat_capacity:      73.9046189
  energy:             41.3231236

- temperature:       510.0000000
  free_energy:       -15.4990336
  entropy:           112.8666811
  heat_capacity:      74.0639403
  energy:             42.0629738

- temperature:       520.0000000
  free_energy:       -16.6349195
  entropy:           114.3063334
  heat_capacity:      74.2147024
  energy:             42.8043739

- temperature:       530.0000000
  free_energy:       -17.7850782
  entropy:           115.7213574
  heat_capacity:      74.3574979
  energy:             43.5472413

- temperature:       540.0000000
  free_energy:       -18.9492672
  entropy:           117.1125301
  heat_capacity:      74.4928701
  energy:             44.2914991

- temperature:       550.0000000
  free_energy:       -20.1272517
  entropy:           118.4805951
  heat_capacity:      74.6213175
  energy:             45.0370756

- temperature:       560.0000000
  free_energy:       -21.3188044
  entropy:           119.8262648
  heat_capacity:      74.7432977
  energy:             45.7839039

- temperature:       570.0000000
  free_energy:       -22.5237047
  entropy:           121.1502212
  heat_capacity:      74.8592322
  energy:             46.5319214

- temperature:       580.0000000
  free_energy:       -23.7417386
  entropy:           122.4531178
  heat_capacity:      74.9695088
  energy:             47.2810697

- temperature:       590.0000000
  free_energy:       -24.9726989
  entropy:           123.7355810
  heat_capacity:      75.0744853
  energy:             48.0312939

- temperature:       600.0000000
  free_energy:       -26.2163842
  entropy:           124.9982116
  heat_capacity:      75.1744919
  energy:             48.7825428

- temperature:       610.0000000
  free_energy:       -27.4725989
  entropy:           126.2415855
  heat_capacity:      75.2698337
  energy:             49.5347682

- temperature:       620.0000000
  free_energy:       -28.7411535
  entropy:           127.4662555
  heat_capacity:      75.3607934
  energy:             50.2879249

- temperature:       630.0000000
  free_energy:       -30.0218635
  entropy:           128.6727521
  heat_capacity:      75.4476325
  energy:             51.0419703

- temperature:       640.0000000
  free_energy:       -31.3145497
  entropy:           129.8615848
  heat_capacity:      75.5305936
  energy:             51.7968646

- temperature:       650.0000000
  free_energy:       -32.6190379
  entropy:           131.0332430
  heat_capacity:      75.6099018
  energy:             52.5525700

- temperature:       660.0000000
  free_energy:       -33.9351589
  entropy:           132.1881970
  heat_capacity:      75.6857666
  energy:             53.3090512

- temperature:       670.0000000
  free_energy:       -35.2627477
  entropy:           133.3268989
  heat_capacity:      75.7583824
  energy:             54.0662745

- temperature:       680.0000000
  free_energy:       -36.6016441
  entropy:           134.4497834
  heat_capacity:      75.8279305
  energy:             54.8242086

- temperature:       690.0000000
  free_energy:       -37.9516920
  entropy:           135.5572689
  heat_capacity:      75.8945797
  energy:             55.5828235

- temperature:       700.0000000
  free_energy:       -39.3127395
  entropy:           136.6497579
  heat_capacity:      75.9584876
  energy:             56.3420910

- temperature:       710.0000000
  free_energy:       -40.6846385
  entropy:           137.7276382
  heat_capacity:      76.0198012
  energy:             57.1019846

- temperature:       720.0000000
  free_energy:       -42.0672448
  entropy:           138.7912829
  heat_capacity:      76.0786579
  energy:             57.8624789

- temperature:       730.0000000
  free_energy:       -43.4604179
  entropy:           139.8410519
  heat_capacity:      76.1351862
  energy:             58.6235500

- temperature:       740.0000000
  free_energy:       -44.8640208
  entropy:           140.8772919
  heat_capacity:      76.1895064
  energy:             59.3851752

- temperature:       750.0000000
  free_energy:       -46.2779198
  entropy:           141.9003372
  heat_capacity:      76.2417311
  energy:             60.1473331

- temperature:       760.0000000
  free_energy:       -47.7019846
  entropy:           142.9105103
  heat_capacity:      76.2919660
  energy:             60.9100032

- temperature:       770.0000000
  free_energy:       -49.1360881
  entropy:           143.9081224
  heat_capacity:      76.3403102
  energy:             61.6731662

- temperature:       780.0000000
  free_energy:       -50.5801062
  entropy:           144.8934739
  heat_capacity:      76.3868567
  energy:             62.4368035

- temperature:       790.0000000
  free_energy:       -52.0339177
  entropy:           145.8668548
  heat_capacity:      76.4316930
  energy:             63.2008976

- temperature:       800.0000000
  free_energy:       -53.4974043
  entropy:           146.8285452
  heat_capacity:      76.4749012
  energy:             63.9654319

- temperature:       810.0000000
  free_energy:       -54.9704505
  entropy:           147.7788160
  heat_capacity:      76.5165589
  energy:             64.7303904

- temperature:       820.0000000
  free_energy:       -56.4529434
  entropy:           148.7179288
  heat_capacity:      76.5567387
  energy:             65.4957581

- temperature:       830.0000000
  free_energy:       -57.9447728
  entropy:           149.6461365
  heat_capacity:      76.5955094
  energy:             66.2615205

- temperature:       840.0000000
  free_energy:       -59.4458306
  entropy:           150.5636839
  heat_capacity:      76.6329357
  energy:             67.0276638

- temperature:       850.0000000
  free_energy:       -60.9560117
  entropy:           151.4708078
  heat_capacity:      76.6690788
  energy:             67.7941750

- temperature:       860.0000000
  free_energy:       -62.4752128
  entropy:           152.3677374
  heat_capacity:      76.7039962
  energy:             68.5610413

- temperature:       870.0000000
  free_energy:       -64.0033332
  entropy:           153.2546945
  heat_capacity:      76.7377424
  energy:             69.3282510

- temperature:       880.0000000
  free_energy:       -65.5402742
  entropy:           154.1318939
  heat_capacity:      76.7703691
  energy:             70.0957925

- temperature:       890.0000000
  free_energy:       -67.0859392
  entropy:           154.9995439
  heat_capacity:      76.8019248
  energy:             70.8636548

- temperature:       900.0000000
  free_energy:       -68.6402339
  entropy:           155.8578460
  heat_capacity:      76.8324558
  energy:             71.6318275

- temperature:       910.0000000
  free_energy:       -70.2030657
  entropy:           156.7069959
  heat_capacity:      76.8620057
  energy:             72.4003006

- temperature:       920.0000000
  free_energy:       -71.7743439
  entropy:           157.5471831
  heat_capacity:      76.8906159
  energy:             73.1690645

- temperature:       930.0000000
  free_energy:       -73.3539801
  entropy:           158.3785914
  heat_capacity:      76.9183255
  energy:             73.9381100

- temperature:       940.0000000
  free_energy:       -74.9418871
  entropy:           159.2013992
  heat_capacity:      76.9451720
  energy:             74.7074281

- temperature:       950.0000000
  free_energy:       -76.5379799
  entropy:           160.0157796
  heat_capacity:      76.9711904
  energy:             75.4770106

- temperature:       960.0000000
  free_energy:       -78.1421752
  entropy:           160.8219005
  heat_capacity:      76.9964145
  energy:             76.2468493

- temperature:       970.0000000
  free_energy:       -79.7543910
  entropy:           161.6199251
  heat_capacity:      77.0208761
  energy:             77.0169364

- temperature:       980.0000000
  free_energy:       -81.3745472
  entropy:           162.4100118
  heat_capacity:      77.0446054
  energy:             77.7872644

- temperature:       990.0000000
  free_energy:       -83.0025653
  entropy:           163.1923146
  heat_capacity:      77.0676313
  energy:             78.5578261

- temperature:      1000.0000000
  free_energy:       -84.6383680
  entropy:           163.9669828
  heat_capacity:      77.0899812
  energy:             79.3286148
