# Thermal properties / unit cell (natom)

unit:
  temperature:   K
  free_energy:   kJ/mol
  entropy:       J/K/mol
  heat_capacity: J/K/mol

natom: 18   
cutoff_frequency: 0.00000
num_modes: 167076
num_integrated_modes: 167075

zero_point_energy:      76.9016435

thermal_properties:
- temperature:         0.0000000
  free_energy:        76.9016435
  entropy:             0.0000000
  heat_capacity:       0.0000000
  energy:             76.9016435

- temperature:        10.0000000
  free_energy:        76.8987424
  entropy:             1.0408024
  heat_capacity:       3.1601561
  energy:             76.9091505

- temperature:        20.0000000
  free_energy:        76.8617947
  entropy:             7.4160020
  heat_capacity:      18.9772559
  energy:             77.0101148

- temperature:        30.0000000
  free_energy:        76.7316364
  entropy:            19.3747170
  heat_capacity:      42.1437443
  energy:             77.3128779

- temperature:        40.0000000
  free_energy:        76.4626335
  entropy:            34.8610124
  heat_capacity:      66.6976516
  energy:             77.8570740

- temperature:        50.0000000
  free_energy:        76.0277860
  entropy:            52.3614734
  heat_capacity:      91.0069563
  energy:             78.6458597

- temperature:        60.0000000
  free_energy:        75.4113661
  entropy:            71.0854143
  heat_capacity:     115.0946603
  energy:             79.6764909

- temperature:        70.0000000
  free_energy:        74.6033711
  entropy:            90.6257980
  heat_capacity:     138.9989725
  energy:             80.9471770

- temperature:        80.0000000
  free_energy:        73.5969890
  entropy:           110.7260486
  heat_capacity:     162.4797811
  energy:             82.4550729

- temperature:        90.0000000
  free_energy:        72.3876643
  entropy:           131.1828063
  heat_capacity:     185.1650537
  energy:             84.1941169

- temperature:       100.0000000
  free_energy:        70.9727401
  entropy:           151.8181025
  heat_capacity:     206.7068236
  energy:             86.1545504

- temperature:       110.0000000
  free_energy:        69.3512293
  entropy:           172.4761010
  heat_capacity:     226.8565786
  energy:             88.3236004

- temperature:       120.0000000
  free_energy:        67.5235847
  entropy:           193.0249525
  heat_capacity:     245.4786803
  energy:             90.6865790

- temperature:       130.0000000
  free_energy:        65.4914536
  entropy:           213.3576040
  heat_capacity:     262.5335263
  energy:             93.2279421

- temperature:       140.0000000
  free_energy:        63.2574337
  entropy:           233.3906312
  heat_capacity:     278.0516355
  energy:             95.9321221

- temperature:       150.0000000
  free_energy:        60.8248495
  entropy:           253.0616898
  heat_capacity:     292.1090396
  energy:             98.7841030

- temperature:       160.0000000
  free_energy:        58.1975562
  entropy:           272.3263517
  heat_capacity:     304.8076996
  energy:            101.7697725

- temperature:       170.0000000
  free_energy:        55.3797775
  entropy:           291.1548786
  heat_capacity:     316.2614104
  energy:            104.8761069

- temperature:       180.0000000
  free_energy:        52.3759735
  entropy:           309.5292506
  heat_capacity:     326.5863745
  energy:            108.0912386

- temperature:       190.0000000
  free_energy:        49.1907367
  entropy:           327.4405879
  heat_capacity:     335.8953184
  energy:            111.4044484

- temperature:       200.0000000
  free_energy:        45.8287121
  entropy:           344.8870003
  heat_capacity:     344.2941180
  energy:            114.8061121

- temperature:       210.0000000
  free_energy:        42.2945357
  entropy:           361.8718416
  heat_capacity:     351.8801121
  energy:            118.2876225

- temperature:       220.0000000
  free_energy:        38.5927901
  entropy:           378.4023180
  heat_capacity:     358.7415033
  energy:            121.8413001

- temperature:       230.0000000
  free_energy:        34.7279709
  entropy:           394.4883958
  heat_capacity:     364.9574268
  energy:            125.4603019

- temperature:       240.0000000
  free_energy:        30.7044641
  entropy:           410.1419539
  heat_capacity:     370.5984047
  energy:            129.1385330

- temperature:       250.0000000
  free_energy:        26.5265299
  entropy:           425.3761322
  heat_capacity:     375.7270001
  energy:            132.8705629

- temperature:       260.0000000
  free_energy:        22.1982930
  entropy:           440.2048354
  heat_capacity:     380.3985564
  energy:            136.6515502

- temperature:       270.0000000
  free_energy:        17.7237371
  entropy:           454.6423594
  heat_capacity:     384.6619479
  energy:            140.4771741

- temperature:       280.0000000
  free_energy:        13.1067017
  entropy:           468.7031116
  heat_capacity:     388.5603029
  energy:            144.3435730

- temperature:       290.0000000
  free_energy:         8.3508830
  entropy:           482.4014059
  heat_capacity:     392.1316751
  energy:            148.2472907

- temperature:       300.0000000
  free_energy:         3.4598349
  entropy:           495.7513135
  heat_capacity:     395.4096541
  energy:            152.1852289

- temperature:       310.0000000
  free_energy:        -1.5630278
  entropy:           508.7665576
  heat_capacity:     398.4239128
  energy:            156.1546051

- temperature:       320.0000000
  free_energy:        -6.7144251
  entropy:           521.4604408
  heat_capacity:     401.2006921
  energy:            160.1529159

- temperature:       330.0000000
  free_energy:       -11.9912082
  entropy:           533.8457979
  heat_capacity:     403.7632279
  energy:            164.1779051

- temperature:       340.0000000
  free_energy:       -17.3903538
  entropy:           545.9349680
  heat_capacity:     406.1321253
  energy:            168.2275353

- temperature:       350.0000000
  free_energy:       -22.9089598
  entropy:           557.7397804
  heat_capacity:     408.3256853
  energy:            172.2999634

- temperature:       360.0000000
  free_energy:       -28.5442394
  entropy:           569.2715510
  heat_capacity:     410.3601889
  energy:            176.3935190

- temperature:       370.0000000
  free_energy:       -34.2935167
  entropy:           580.5410871
  heat_capacity:     412.2501453
  energy:            180.5066855

- temperature:       380.0000000
  free_energy:       -40.1542214
  entropy:           591.5586969
  heat_capacity:     414.0085073
  energy:            184.6380834

- temperature:       390.0000000
  free_energy:       -46.1238837
  entropy:           602.3342037
  heat_capacity:     415.6468582
  energy:            188.7864557

- temperature:       400.0000000
  free_energy:       -52.2001297
  entropy:           612.8769624
  heat_capacity:     417.1755756
  energy:            192.9506552

- temperature:       410.0000000
  free_energy:       -58.3806769
  entropy:           623.1958776
  heat_capacity:     418.6039726
  energy:            197.1296330

- temperature:       420.0000000
  free_energy:       -64.6633294
  entropy:           633.2994231
  heat_capacity:     419.9404224
  energy:            201.3224283

- temperature:       430.0000000
  free_energy:       -71.0459743
  entropy:           643.1956616
  heat_capacity:     421.1924656
  energy:            205.5281601

- temperature:       440.0000000
  free_energy:       -77.5265772
  entropy:           652.8922642
  heat_capacity:     422.3669050
  energy:            209.7460190

- temperature:       450.0000000
  free_energy:       -84.1031785
  entropy:           662.3965303
  heat_capacity:     423.4698878
  energy:            213.9752601

- temperature:       460.0000000
  free_energy:       -90.7738899
  entropy:           671.7154067
  heat_capacity:     424.5069782
  energy:            218.2151972

- temperature:       470.0000000
  free_energy:       -97.5368908
  entropy:           680.8555057
  heat_capacity:     425.4832210
  energy:            222.4651969

- temperature:       480.0000000
  free_energy:      -104.3904251
  entropy:           689.8231233
  heat_capacity:     426.4031968
  energy:            226.7246741

- temperature:       490.0000000
  free_energy:      -111.3327983
  entropy:           698.6242562
  heat_capacity:     427.2710718
  energy:            230.9930872

- temperature:       500.0000000
  free_energy:      -118.3623744
  entropy:           707.2646178
  heat_capacity:     428.0906406
  energy:            235.2699345

- temperature:       510.0000000
  free_energy:      -125.4775730
  entropy:           715.7496540
  heat_capacity:     428.8653647
  energy:            239.5547506

- temperature:       520.0000000
  free_energy:      -132.6768670
  entropy:           724.0845576
  heat_capacity:     429.5984064
  energy:            243.8471029

- temperature:       530.0000000
  free_energy:      -139.9587802
  entropy:           732.2742823
  heat_capacity:     430.2926583
  energy:            248.1465894

- temperature:       540.0000000
  free_energy:      -147.3218845
  entropy:           740.3235559
  heat_capacity:     430.9507706
  energy:            252.4528356

- temperature:       550.0000000
  free_energy:      -154.7647982
  entropy:           748.2368922
  heat_capacity:     431.5751740
  energy:            256.7654925

- temperature:       560.0000000
  free_energy:      -162.2861836
  entropy:           756.0186033
  heat_capacity:     432.1681015
  energy:            261.0842342

- temperature:       570.0000000
  free_energy:      -169.8847453
  entropy:           763.6728101
  heat_capacity:     432.7316064
  energy:            265.4087565

- temperature:       580.0000000
  free_energy:      -177.5592280
  entropy:           771.2034527
  heat_capacity:     433.2675798
  energy:            269.7387746

- temperature:       590.0000000
  free_energy:      -185.3084151
  entropy:           778.6143003
  heat_capacity:     433.7777649
  energy:            274.0740221

- temperature:       600.0000000
  free_energy:      -193.1311267
  entropy:           785.9089601
  heat_capacity:     434.2637711
  energy:            278.4142493

- temperature:       610.0000000
  free_energy:      -201.0262185
  entropy:           793.0908859
  heat_capacity:     434.7270853
  energy:            282.7592219

- temperature:       620.0000000
  free_energy:      -208.9925797
  entropy:           800.1633866
  heat_capacity:     435.1690834
  energy:            287.1087200

- temperature:       630.0000000
  free_energy:      -217.0291321
  entropy:           807.1296331
  heat_capacity:     435.5910396
  energy:            291.4625368

- temperature:       640.0000000
  free_energy:      -225.1348283
  entropy:           813.9926660
  heat_capacity:     435.9941354
  energy:            295.8204779

- temperature:       650.0000000
  free_energy:      -233.3086511
  entropy:           820.7554021
  heat_capacity:     436.3794673
  energy:            300.1823603

- temperature:       660.0000000
  free_energy:      -241.5496114
  entropy:           827.4206407
  heat_capacity:     436.7480542
  energy:            304.5480114

- temperature:       670.0000000
  free_energy:      -249.8567479
  entropy:           833.9910695
  heat_capacity:     437.1008434
  energy:            308.9172687

- temperature:       680.0000000
  free_energy:      -258.2291254
  entropy:           840.4692706
  heat_capacity:     437.4387171
  energy:            313.2899786

- temperature:       690.0000000
  free_energy:      -266.6658341
  entropy:           846.8577250
  heat_capacity:     437.7624971
  energy:            317.6659961

- temperature:       700.0000000
  free_energy:      -275.1659887
  entropy:           853.1588183
  heat_capacity:     438.0729499
  energy:            322.0451841

- temperature:       710.0000000
  free_energy:      -283.7287269
  entropy:           859.3748451
  heat_capacity:     438.3707911
  energy:            326.4274131

- temperature:       720.0000000
  free_energy:      -292.3532094
  entropy:           865.5080132
  heat_capacity:     438.6566893
  energy:            330.8125601

- temperature:       730.0000000
  free_energy:      -301.0386181
  entropy:           871.5604483
  heat_capacity:     438.9312696
  energy:            335.2005091

- temperature:       740.0000000
  free_energy:      -309.7841561
  entropy:           877.5341971
  heat_capacity:     439.1951173
  energy:            339.5911498

- temperature:       750.0000000
  free_energy:      -318.5890463
  entropy:           883.4312318
  heat_capacity:     439.4487804
  energy:            343.9843775

- temperature:       760.0000000
  free_energy:      -327.4525313
  entropy:           889.2534533
  heat_capacity:     439.6927727
  energy:            348.3800931

- temperature:       770.0000000
  free_energy:      -336.3738722
  entropy:           895.0026942
  heat_capacity:     439.9275762
  energy:            352.7782023

- temperature:       780.0000000
  free_energy:      -345.3523479
  entropy:           900.6807223
  heat_capacity:     440.1536435
  energy:            357.1786155

- temperature:       790.0000000
  free_energy:      -354.3872549
  entropy:           906.2892436
  heat_capacity:     440.3713999
  energy:            361.5812475

- temperature:       800.0000000
  free_energy:      -363.4779065
  entropy:           911.8299046
  heat_capacity:     440.5812452
  energy:            365.9860172

- temperature:       810.0000000
  free_energy:      -372.6236321
  entropy:           917.3042956
  heat_capacity:     440.7835556
  energy:            370.3928473

- temperature:       820.0000000
  free_energy:      -381.8237767
  entropy:           922.7139525
  heat_capacity:     440.9786855
  energy:            374.8016644

- temperature:       830.0000000
  free_energy:      -391.0777003
  entropy:           928.0603597
  heat_capacity:     441.1669687
  energy:            379.2123982

- temperature:       840.0000000
  free_energy:      -400.3847778
  entropy:           933.3449521
  heat_capacity:     441.3487199
  energy:            383.6249820

- temperature:       850.0000000
  free_energy:      -409.7443980
  entropy:           938.5691174
  heat_capacity:     441.5242361
  energy:            388.0393518

- temperature:       860.0000000
  free_energy:      -419.1559632
  entropy:           943.7341977
  heat_capacity:     441.6937977
  energy:            392.4554468

- temperature:       870.0000000
  free_energy:      -428.6188893
  entropy:           948.8414921
  heat_capacity:     441.8576696
  energy:            396.8732088

- temperature:       880.0000000
  free_energy:      -438.1326046
  entropy:           953.8922577
  heat_capacity:     442.0161023
  energy:            401.2925821

- temperature:       890.0000000
  free_energy:      -447.6965501
  entropy:           958.8877119
  heat_capacity:     442.1693325
  energy:            405.7135135

- temperature:       900.0000000
  free_energy:      -457.3101784
  entropy:           963.8290340
  heat_capacity:     442.3175844
  energy:            410.1359522

- temperature:       910.0000000
  free_energy:      -466.9729541
  entropy:           968.7173664
  heat_capacity:     442.4610704
  energy:            414.5598493

- temperature:       920.0000000
  free_energy:      -476.6843528
  entropy:           973.5538165
  heat_capacity:     442.5999915
  energy:            418.9851583

- temperature:       930.0000000
  free_energy:      -486.4438611
  entropy:           978.3394577
  heat_capacity:     442.7345384
  energy:            423.4118346

- temperature:       940.0000000
  free_energy:      -496.2509761
  entropy:           983.0753311
  heat_capacity:     442.8648921
  energy:            427.8398351

- temperature:       950.0000000
  free_energy:      -506.1052052
  entropy:           987.7624465
  heat_capacity:     442.9912242
  energy:            432.2691190

- temperature:       960.0000000
  free_energy:      -516.0060658
  entropy:           992.4017839
  heat_capacity:     443.1136977
  energy:            436.6996468

- temperature:       970.0000000
  free_energy:      -525.9530848
  entropy:           996.9942942
  heat_capacity:     443.2324675
  energy:            441.1313806

- temperature:       980.0000000
  free_energy:      -535.9457986
  entropy:          1001.5409009
  heat_capacity:     443.3476808
  energy:            445.5642843

- temperature:       990.0000000
  free_energy:      -545.9837528
  entropy:          1006.0425006
  heat_capacity:     443.4594777
  energy:            449.9983228

- temperature:      1000.0000000
  free_energy:      -556.0665015
  entropy:          1010.4999644
  heat_capacity:     443.5679913
  energy:            454.4334629
