# Thermal properties / unit cell (natom)

unit:
  temperature:   K
  free_energy:   kJ/mol
  entropy:       J/K/mol
  heat_capacity: J/K/mol

natom: 13   
cutoff_frequency: 0.00000
num_modes: 412620
num_integrated_modes: 412618

zero_point_energy:      54.3818224

thermal_properties:
- temperature:         0.0000000
  free_energy:        54.3818224
  entropy:             0.0000000
  heat_capacity:       0.0000000
  energy:             54.3818224

- temperature:        10.0000000
  free_energy:        54.3808914
  entropy:             0.3670437
  heat_capacity:       1.2308834
  energy:             54.3845619

- temperature:        20.0000000
  free_energy:        54.3636163
  entropy:             3.9505009
  heat_capacity:      12.4838638
  energy:             54.4426263

- temperature:        30.0000000
  free_energy:        54.2852429
  entropy:            12.3886867
  heat_capacity:      30.7074801
  energy:             54.6569035

- temperature:        40.0000000
  free_energy:        54.1061121
  entropy:            23.7836506
  heat_capacity:      49.3213264
  energy:             55.0574582

- temperature:        50.0000000
  free_energy:        53.8044343
  entropy:            36.7435758
  heat_capacity:      67.4403801
  energy:             55.6416131

- temperature:        60.0000000
  free_energy:        53.3682286
  entropy:            50.6170683
  heat_capacity:      85.2487297
  energy:             56.4052527

- temperature:        70.0000000
  free_energy:        52.7901376
  entropy:            65.0808491
  heat_capacity:     102.8122392
  energy:             57.3457971

- temperature:        80.0000000
  free_energy:        52.0653110
  entropy:            79.9361793
  heat_capacity:     119.9848409
  energy:             58.4602053

- temperature:        90.0000000
  free_energy:        51.1906195
  entropy:            95.0305378
  heat_capacity:     136.5201719
  energy:             59.7433679

- temperature:       100.0000000
  free_energy:        50.1643403
  entropy:           110.2334367
  heat_capacity:     152.1804357
  energy:             61.1876840

- temperature:       110.0000000
  free_energy:        48.9859675
  entropy:           125.4319030
  heat_capacity:     166.7935019
  energy:             62.7834769

- temperature:       120.0000000
  free_energy:        47.6560358
  entropy:           140.5309144
  heat_capacity:     180.2663580
  energy:             64.5197456

- temperature:       130.0000000
  free_energy:        46.1759387
  entropy:           155.4536868
  heat_capacity:     192.5750837
  energy:             66.3849179

- temperature:       140.0000000
  free_energy:        44.5477495
  entropy:           170.1407419
  heat_capacity:     203.7467462
  energy:             68.3674534

- temperature:       150.0000000
  free_energy:        42.7740579
  entropy:           184.5480215
  heat_capacity:     213.8414746
  energy:             70.4562611

- temperature:       160.0000000
  free_energy:        40.8578261
  entropy:           198.6445529
  heat_capacity:     222.9379641
  energy:             72.6409546

- temperature:       170.0000000
  free_energy:        38.8022711
  entropy:           212.4100644
  heat_capacity:     231.1229984
  energy:             74.9119821

- temperature:       180.0000000
  free_energy:        36.6107682
  entropy:           225.8327863
  heat_capacity:     238.4844729
  energy:             77.2606697

- temperature:       190.0000000
  free_energy:        34.2867758
  entropy:           238.9075447
  heat_capacity:     245.1070914
  energy:             79.6792093

- temperature:       200.0000000
  free_energy:        31.8337781
  entropy:           251.6341750
  heat_capacity:     251.0699531
  energy:             82.1606131

- temperature:       210.0000000
  free_energy:        29.2552412
  entropy:           264.0162378
  heat_capacity:     256.4454020
  energy:             84.6986511

- temperature:       220.0000000
  free_energy:        26.5545813
  entropy:           276.0600006
  heat_capacity:     261.2986808
  energy:             87.2877814

- temperature:       230.0000000
  free_energy:        23.7351417
  entropy:           287.7736411
  heat_capacity:     265.6880685
  energy:             89.9230792

- temperature:       240.0000000
  free_energy:        20.8001774
  entropy:           299.1666341
  heat_capacity:     269.6652901
  energy:             92.6001695

- temperature:       250.0000000
  free_energy:        17.7528436
  entropy:           310.2492820
  heat_capacity:     273.2760607
  energy:             95.3151641

- temperature:       260.0000000
  free_energy:        14.5961903
  entropy:           321.0323608
  heat_capacity:     276.5606785
  energy:             98.0646041

- temperature:       270.0000000
  free_energy:        11.3331583
  entropy:           331.5268551
  heat_capacity:     279.5546168
  energy:            100.8454092

- temperature:       280.0000000
  free_energy:         7.9665785
  entropy:           341.7437624
  heat_capacity:     282.2890839
  energy:            103.6548320

- temperature:       290.0000000
  free_energy:         4.4991721
  entropy:           351.6939509
  heat_capacity:     284.7915398
  energy:            106.4904179

- temperature:       300.0000000
  free_energy:         0.9335530
  entropy:           361.3880575
  heat_capacity:     287.0861603
  energy:            109.3499703

- temperature:       310.0000000
  free_energy:        -2.7277699
  entropy:           370.8364178
  heat_capacity:     289.1942511
  energy:            112.2315196

- temperature:       320.0000000
  free_energy:        -6.4823895
  entropy:           380.0490186
  heat_capacity:     291.1346115
  energy:            115.1332964

- temperature:       330.0000000
  free_energy:       -10.3279965
  entropy:           389.0354691
  heat_capacity:     292.9238535
  energy:            118.0537083

- temperature:       340.0000000
  free_energy:       -14.2623758
  entropy:           397.8049847
  heat_capacity:     294.5766800
  energy:            120.9913190

- temperature:       350.0000000
  free_energy:       -18.2834025
  entropy:           406.3663809
  heat_capacity:     296.1061260
  energy:            123.9448308

- temperature:       360.0000000
  free_energy:       -22.3890378
  entropy:           414.7280744
  heat_capacity:     297.5237684
  energy:            126.9130690

- temperature:       370.0000000
  free_energy:       -26.5773251
  entropy:           422.8980894
  heat_capacity:     298.8399083
  energy:            129.8949680

- temperature:       380.0000000
  free_energy:       -30.8463862
  entropy:           430.8840676
  heat_capacity:     300.0637278
  energy:            132.8895595

- temperature:       390.0000000
  free_energy:       -35.1944173
  entropy:           438.6932807
  heat_capacity:     301.2034276
  energy:            135.8959622

- temperature:       400.0000000
  free_energy:       -39.6196857
  entropy:           446.3326447
  heat_capacity:     302.2663448
  energy:            138.9133722

- temperature:       410.0000000
  free_energy:       -44.1205260
  entropy:           453.8087344
  heat_capacity:     303.2590565
  energy:            141.9410552

- temperature:       420.0000000
  free_energy:       -48.6953370
  entropy:           461.1278001
  heat_capacity:     304.1874688
  energy:            144.9783391

- temperature:       430.0000000
  free_energy:       -53.3425784
  entropy:           468.2957822
  heat_capacity:     305.0568954
  energy:            148.0246080

- temperature:       440.0000000
  free_energy:       -58.0607679
  entropy:           475.3183278
  heat_capacity:     305.8721249
  energy:            151.0792964

- temperature:       450.0000000
  free_energy:       -62.8484781
  entropy:           482.2008052
  heat_capacity:     306.6374807
  energy:            154.1418843

- temperature:       460.0000000
  free_energy:       -67.7043341
  entropy:           488.9483194
  heat_capacity:     307.3568725
  energy:            157.2118928

- temperature:       470.0000000
  free_energy:       -72.6270108
  entropy:           495.5657259
  heat_capacity:     308.0338421
  energy:            160.2888803

- temperature:       480.0000000
  free_energy:       -77.6152304
  entropy:           502.0576445
  heat_capacity:     308.6716032
  energy:            163.3724390

- temperature:       490.0000000
  free_energy:       -82.6677601
  entropy:           508.4284726
  heat_capacity:     309.2730760
  energy:            166.4621915

- temperature:       500.0000000
  free_energy:       -87.7834102
  entropy:           514.6823972
  heat_capacity:     309.8409190
  energy:            169.5577884

- temperature:       510.0000000
  free_energy:       -92.9610317
  entropy:           520.8234069
  heat_capacity:     310.3775553
  energy:            172.6589059

- temperature:       520.0000000
  free_energy:       -98.1995146
  entropy:           526.8553029
  heat_capacity:     310.8851972
  energy:            175.7652429

- temperature:       530.0000000
  free_energy:      -103.4977861
  entropy:           532.7817095
  heat_capacity:     311.3658674
  energy:            178.8765199

- temperature:       540.0000000
  free_energy:      -108.8548087
  entropy:           538.6060838
  heat_capacity:     311.8214177
  energy:            181.9924765

- temperature:       550.0000000
  free_energy:      -114.2695787
  entropy:           544.3317253
  heat_capacity:     312.2535460
  energy:            185.1128702

- temperature:       560.0000000
  free_energy:      -119.7411246
  entropy:           549.9617843
  heat_capacity:     312.6638108
  energy:            188.2374746

- temperature:       570.0000000
  free_energy:      -125.2685058
  entropy:           555.4992705
  heat_capacity:     313.0536450
  energy:            191.3660783

- temperature:       580.0000000
  free_energy:      -130.8508111
  entropy:           560.9470601
  heat_capacity:     313.4243674
  energy:            194.4984838

- temperature:       590.0000000
  free_energy:      -136.4871572
  entropy:           566.3079038
  heat_capacity:     313.7771932
  energy:            197.6345060

- temperature:       600.0000000
  free_energy:      -142.1766881
  entropy:           571.5844331
  heat_capacity:     314.1132438
  energy:            200.7739718

- temperature:       610.0000000
  free_energy:      -147.9185732
  entropy:           576.7791667
  heat_capacity:     314.4335550
  energy:            203.9167185

- temperature:       620.0000000
  free_energy:      -153.7120068
  entropy:           581.8945168
  heat_capacity:     314.7390847
  energy:            207.0625936

- temperature:       630.0000000
  free_energy:      -159.5562067
  entropy:           586.9327945
  heat_capacity:     315.0307199
  energy:            210.2114539

- temperature:       640.0000000
  free_energy:      -165.4504132
  entropy:           591.8962151
  heat_capacity:     315.3092825
  energy:            213.3631644

- temperature:       650.0000000
  free_energy:      -171.3938885
  entropy:           596.7869031
  heat_capacity:     315.5755353
  energy:            216.5175985

- temperature:       660.0000000
  free_energy:      -177.3859156
  entropy:           601.6068971
  heat_capacity:     315.8301866
  energy:            219.6746365

- temperature:       670.0000000
  free_energy:      -183.4257974
  entropy:           606.3581539
  heat_capacity:     316.0738951
  energy:            222.8341657

- temperature:       680.0000000
  free_energy:      -189.5128559
  entropy:           611.0425526
  heat_capacity:     316.3072737
  energy:            225.9960799

- temperature:       690.0000000
  free_energy:      -195.6464316
  entropy:           615.6618989
  heat_capacity:     316.5308934
  energy:            229.1602787

- temperature:       700.0000000
  free_energy:      -201.8258828
  entropy:           620.2179283
  heat_capacity:     316.7452865
  energy:            232.3266671

- temperature:       710.0000000
  free_energy:      -208.0505847
  entropy:           624.7123098
  heat_capacity:     316.9509499
  energy:            235.4951553

- temperature:       720.0000000
  free_energy:      -214.3199288
  entropy:           629.1466491
  heat_capacity:     317.1483478
  energy:            238.6656585

- temperature:       730.0000000
  free_energy:      -220.6333227
  entropy:           633.5224916
  heat_capacity:     317.3379140
  energy:            241.8380962

- temperature:       740.0000000
  free_energy:      -226.9901887
  entropy:           637.8413253
  heat_capacity:     317.5200545
  energy:            245.0123920

- temperature:       750.0000000
  free_energy:      -233.3899639
  entropy:           642.1045836
  heat_capacity:     317.6951496
  energy:            248.1884738

- temperature:       760.0000000
  free_energy:      -239.8320997
  entropy:           646.3136479
  heat_capacity:     317.8635556
  energy:            251.3662727

- temperature:       770.0000000
  free_energy:      -246.3160607
  entropy:           650.4698499
  heat_capacity:     318.0256067
  energy:            254.5457237

- temperature:       780.0000000
  free_energy:      -252.8413248
  entropy:           654.5744737
  heat_capacity:     318.1816167
  energy:            257.7267647

- temperature:       790.0000000
  free_energy:      -259.4073824
  entropy:           658.6287586
  heat_capacity:     318.3318805
  energy:            260.9093369

- temperature:       800.0000000
  free_energy:      -266.0137361
  entropy:           662.6339003
  heat_capacity:     318.4766750
  energy:            264.0933841

- temperature:       810.0000000
  free_energy:      -272.6599004
  entropy:           666.5910536
  heat_capacity:     318.6162610
  energy:            267.2788530

- temperature:       820.0000000
  free_energy:      -279.3454010
  entropy:           670.5013338
  heat_capacity:     318.7508840
  energy:            270.4656928

- temperature:       830.0000000
  free_energy:      -286.0697744
  entropy:           674.3658185
  heat_capacity:     318.8807752
  energy:            273.6538549

- temperature:       840.0000000
  free_energy:      -292.8325682
  entropy:           678.1855493
  heat_capacity:     319.0061525
  energy:            276.8432933

- temperature:       850.0000000
  free_energy:      -299.6333396
  entropy:           681.9615332
  heat_capacity:     319.1272217
  energy:            280.0339636

- temperature:       860.0000000
  free_energy:      -306.4716562
  entropy:           685.6947444
  heat_capacity:     319.2441769
  energy:            283.2258240

- temperature:       870.0000000
  free_energy:      -313.3470951
  entropy:           689.3861254
  heat_capacity:     319.3572014
  energy:            286.4188341

- temperature:       880.0000000
  free_energy:      -320.2592424
  entropy:           693.0365885
  heat_capacity:     319.4664686
  energy:            289.6129555

- temperature:       890.0000000
  free_energy:      -327.2076934
  entropy:           696.6470167
  heat_capacity:     319.5721424
  energy:            292.8081515

- temperature:       900.0000000
  free_energy:      -334.1920521
  entropy:           700.2182655
  heat_capacity:     319.6743779
  energy:            296.0043869

- temperature:       910.0000000
  free_energy:      -341.2119309
  entropy:           703.7511637
  heat_capacity:     319.7733220
  energy:            299.2016281

- temperature:       920.0000000
  free_energy:      -348.2669502
  entropy:           707.2465142
  heat_capacity:     319.8691139
  energy:            302.3998428

- temperature:       930.0000000
  free_energy:      -355.3567386
  entropy:           710.7050955
  heat_capacity:     319.9618854
  energy:            305.5990003

- temperature:       940.0000000
  free_energy:      -362.4809321
  entropy:           714.1276627
  heat_capacity:     320.0517617
  energy:            308.7990709

- temperature:       950.0000000
  free_energy:      -369.6391742
  entropy:           717.5149479
  heat_capacity:     320.1388616
  energy:            312.0000262

- temperature:       960.0000000
  free_energy:      -376.8311158
  entropy:           720.8676615
  heat_capacity:     320.2232976
  energy:            315.2018392

- temperature:       970.0000000
  free_energy:      -384.0564145
  entropy:           724.1864930
  heat_capacity:     320.3051771
  energy:            318.4044837

- temperature:       980.0000000
  free_energy:      -391.3147350
  entropy:           727.4721118
  heat_capacity:     320.3846016
  energy:            321.6079346

- temperature:       990.0000000
  free_energy:      -398.6057482
  entropy:           730.7251678
  heat_capacity:     320.4616680
  energy:            324.8121678

- temperature:      1000.0000000
  free_energy:      -405.9291319
  entropy:           733.9462923
  heat_capacity:     320.5364684
  energy:            328.0171604
