# Thermal properties / unit cell (natom)

unit:
  temperature:   K
  free_energy:   kJ/mol
  entropy:       J/K/mol
  heat_capacity: J/K/mol

natom: 4    
cutoff_frequency: 0.00000
num_modes: 210912
num_integrated_modes: 210910

zero_point_energy:      16.8872117

thermal_properties:
- temperature:         0.0000000
  free_energy:        16.8872117
  entropy:             0.0000000
  heat_capacity:       0.0000000
  energy:             16.8872117

- temperature:        10.0000000
  free_energy:        16.8864791
  entropy:             0.2664062
  heat_capacity:       0.7853566
  energy:             16.8891431

- temperature:        20.0000000
  free_energy:        16.8765228
  entropy:             2.0692433
  heat_capacity:       5.5750190
  energy:             16.9179077

- temperature:        30.0000000
  free_energy:        16.8397014
  entropy:             5.4641528
  heat_capacity:      11.4469692
  energy:             17.0036260

- temperature:        40.0000000
  free_energy:        16.7653083
  entropy:             9.4643721
  heat_capacity:      16.4947965
  energy:             17.1438832

- temperature:        50.0000000
  free_energy:        16.6498228
  entropy:            13.6516125
  heat_capacity:      21.1960886
  energy:             17.3324034

- temperature:        60.0000000
  free_energy:        16.4919649
  entropy:            17.9342679
  heat_capacity:      25.9517634
  energy:             17.5680209

- temperature:        70.0000000
  free_energy:        16.2908552
  entropy:            22.3015879
  heat_capacity:      30.8604384
  energy:             17.8519663

- temperature:        80.0000000
  free_energy:        16.0456674
  entropy:            26.7482182
  heat_capacity:      35.8558275
  energy:             18.1855249

- temperature:        90.0000000
  free_energy:        15.7556774
  entropy:            31.2585822
  heat_capacity:      40.8114914
  energy:             18.5689498

- temperature:       100.0000000
  free_energy:        15.4203639
  entropy:            35.8084025
  heat_capacity:      45.6030758
  energy:             19.0012041

- temperature:       110.0000000
  free_energy:        15.0394709
  entropy:            40.3697790
  heat_capacity:      50.1364998
  energy:             19.4801466

- temperature:       120.0000000
  free_energy:        14.6130210
  entropy:            44.9154697
  heat_capacity:      54.3539406
  energy:             20.0028773

- temperature:       130.0000000
  free_energy:        14.1412944
  entropy:            49.4214388
  heat_capacity:      58.2289600
  energy:             20.5660814

- temperature:       140.0000000
  free_energy:        13.6247909
  entropy:            53.8679393
  heat_capacity:      61.7582466
  energy:             21.1663024

- temperature:       150.0000000
  free_energy:        13.0641854
  entropy:            58.2396479
  heat_capacity:      64.9536806
  energy:             21.8001326

- temperature:       160.0000000
  free_energy:        12.4602852
  entropy:            62.5252924
  heat_capacity:      67.8360489
  energy:             22.4643320

- temperature:       170.0000000
  free_energy:        11.8139927
  entropy:            66.7170656
  heat_capacity:      70.4305654
  energy:             23.1558939

- temperature:       180.0000000
  free_energy:        11.1262736
  entropy:            70.8099953
  heat_capacity:      72.7639092
  energy:             23.8720728

- temperature:       190.0000000
  free_energy:        10.3981316
  entropy:            74.8013567
  heat_capacity:      74.8623908
  energy:             24.6103894

- temperature:       200.0000000
  free_energy:         9.6305885
  entropy:            78.6901621
  heat_capacity:      76.7509014
  energy:             25.3686209

- temperature:       210.0000000
  free_energy:         8.8246692
  entropy:            82.4767380
  heat_capacity:      78.4523794
  energy:             26.1447842

- temperature:       220.0000000
  free_energy:         7.9813902
  entropy:            86.1623833
  heat_capacity:      79.9876021
  energy:             26.9371146

- temperature:       230.0000000
  free_energy:         7.1017514
  entropy:            89.7490997
  heat_capacity:      81.3751745
  energy:             27.7440443

- temperature:       240.0000000
  free_energy:         6.1867297
  entropy:            93.2393811
  heat_capacity:      82.6316294
  energy:             28.5641812

- temperature:       250.0000000
  free_energy:         5.2372758
  entropy:            96.6360518
  heat_capacity:      83.7715851
  energy:             29.3962887

- temperature:       260.0000000
  free_energy:         4.2543106
  entropy:            99.9421425
  heat_capacity:      84.8079270
  energy:             30.2392677

- temperature:       270.0000000
  free_energy:         3.2387244
  entropy:           103.1607979
  heat_capacity:      85.7519934
  energy:             31.0921398

- temperature:       280.0000000
  free_energy:         2.1913755
  entropy:           106.2952066
  heat_capacity:      86.6137534
  energy:             31.9540333

- temperature:       290.0000000
  free_energy:         1.1130905
  entropy:           109.3485497
  heat_capacity:      87.4019726
  energy:             32.8241699

- temperature:       300.0000000
  free_energy:         0.0046643
  entropy:           112.3239640
  heat_capacity:      88.1243620
  energy:             33.7018535

- temperature:       310.0000000
  free_energy:        -1.1331393
  entropy:           115.2245151
  heat_capacity:      88.7877116
  energy:             34.5864604

- temperature:       320.0000000
  free_energy:        -2.2995864
  entropy:           118.0531792
  heat_capacity:      89.3980077
  energy:             35.4774309

- temperature:       330.0000000
  free_energy:        -3.4939728
  entropy:           120.8128310
  heat_capacity:      89.9605356
  energy:             36.3742614

- temperature:       340.0000000
  free_energy:        -4.7156222
  entropy:           123.5062361
  heat_capacity:      90.4799693
  energy:             37.2764981

- temperature:       350.0000000
  free_energy:        -5.9638856
  entropy:           126.1360474
  heat_capacity:      90.9604495
  energy:             38.1837310

- temperature:       360.0000000
  free_energy:        -7.2381397
  entropy:           128.7048032
  heat_capacity:      91.4056508
  energy:             39.0955895

- temperature:       370.0000000
  free_energy:        -8.5377862
  entropy:           131.2149286
  heat_capacity:      91.8188403
  energy:             40.0117374

- temperature:       380.0000000
  free_energy:        -9.8622505
  entropy:           133.6687365
  heat_capacity:      92.2029283
  energy:             40.9318693

- temperature:       390.0000000
  free_energy:       -11.2109806
  entropy:           136.0684312
  heat_capacity:      92.5605123
  energy:             41.8557076

- temperature:       400.0000000
  free_energy:       -12.5834458
  entropy:           138.4161120
  heat_capacity:      92.8939148
  energy:             42.7829990

- temperature:       410.0000000
  free_energy:       -13.9791361
  entropy:           140.7137765
  heat_capacity:      93.2052162
  energy:             43.7135123

- temperature:       420.0000000
  free_energy:       -15.3975609
  entropy:           142.9633258
  heat_capacity:      93.4962840
  energy:             44.6470359

- temperature:       430.0000000
  free_energy:       -16.8382483
  entropy:           145.1665683
  heat_capacity:      93.7687971
  energy:             45.5833761

- temperature:       440.0000000
  free_energy:       -18.3007437
  entropy:           147.3252244
  heat_capacity:      94.0242679
  energy:             46.5223550

- temperature:       450.0000000
  free_energy:       -19.7846096
  entropy:           149.4409307
  heat_capacity:      94.2640610
  energy:             47.4638092

- temperature:       460.0000000
  free_energy:       -21.2894243
  entropy:           151.5152445
  heat_capacity:      94.4894102
  energy:             48.4075881

- temperature:       470.0000000
  free_energy:       -22.8147815
  entropy:           153.5496478
  heat_capacity:      94.7014323
  energy:             49.3535530

- temperature:       480.0000000
  free_energy:       -24.3602890
  entropy:           155.5455515
  heat_capacity:      94.9011405
  energy:             50.3015757

- temperature:       490.0000000
  free_energy:       -25.9255687
  entropy:           157.5042990
  heat_capacity:      95.0894549
  energy:             51.2515379

- temperature:       500.0000000
  free_energy:       -27.5102554
  entropy:           159.4271701
  heat_capacity:      95.2672129
  energy:             52.2033297

- temperature:       510.0000000
  free_energy:       -29.1139965
  entropy:           161.3153843
  heat_capacity:      95.4351776
  energy:             53.1568495

- temperature:       520.0000000
  free_energy:       -30.7364514
  entropy:           163.1701045
  heat_capacity:      95.5940452
  energy:             54.1120029

- temperature:       530.0000000
  free_energy:       -32.3772907
  entropy:           164.9924394
  heat_capacity:      95.7444524
  energy:             55.0687022

- temperature:       540.0000000
  free_energy:       -34.0361958
  entropy:           166.7834472
  heat_capacity:      95.8869815
  energy:             56.0268657

- temperature:       550.0000000
  free_energy:       -35.7128586
  entropy:           168.5441380
  heat_capacity:      96.0221664
  energy:             56.9864173

- temperature:       560.0000000
  free_energy:       -37.4069807
  entropy:           170.2754766
  heat_capacity:      96.1504973
  energy:             57.9472862

- temperature:       570.0000000
  free_energy:       -39.1182733
  entropy:           171.9783847
  heat_capacity:      96.2724245
  energy:             58.9094059

- temperature:       580.0000000
  free_energy:       -40.8464566
  entropy:           173.6537436
  heat_capacity:      96.3883622
  energy:             59.8727147

- temperature:       590.0000000
  free_energy:       -42.5912592
  entropy:           175.3023961
  heat_capacity:      96.4986924
  energy:             60.8371545

- temperature:       600.0000000
  free_energy:       -44.3524182
  entropy:           176.9251487
  heat_capacity:      96.6037671
  energy:             61.8026710

- temperature:       610.0000000
  free_energy:       -46.1296784
  entropy:           178.5227735
  heat_capacity:      96.7039116
  energy:             62.7692134

- temperature:       620.0000000
  free_energy:       -47.9227924
  entropy:           180.0960100
  heat_capacity:      96.7994266
  energy:             63.7367338

- temperature:       630.0000000
  free_energy:       -49.7315197
  entropy:           181.6455669
  heat_capacity:      96.8905905
  energy:             64.7051874

- temperature:       640.0000000
  free_energy:       -51.5556270
  entropy:           183.1721235
  heat_capacity:      96.9776612
  energy:             65.6745320

- temperature:       650.0000000
  free_energy:       -53.3948877
  entropy:           184.6763315
  heat_capacity:      97.0608781
  energy:             66.6447278

- temperature:       660.0000000
  free_energy:       -55.2490813
  entropy:           186.1588162
  heat_capacity:      97.1404633
  energy:             67.6157375

- temperature:       670.0000000
  free_energy:       -57.1179936
  entropy:           187.6201780
  heat_capacity:      97.2166234
  energy:             68.5875257

- temperature:       680.0000000
  free_energy:       -59.0014163
  entropy:           189.0609934
  heat_capacity:      97.2895506
  energy:             69.5600592

- temperature:       690.0000000
  free_energy:       -60.8991468
  entropy:           190.4818164
  heat_capacity:      97.3594239
  energy:             70.5333065

- temperature:       700.0000000
  free_energy:       -62.8109878
  entropy:           191.8831797
  heat_capacity:      97.4264103
  energy:             71.5072380

- temperature:       710.0000000
  free_energy:       -64.7367472
  entropy:           193.2655956
  heat_capacity:      97.4906653
  energy:             72.4818256

- temperature:       720.0000000
  free_energy:       -66.6762382
  entropy:           194.6295568
  heat_capacity:      97.5523346
  energy:             73.4570427

- temperature:       730.0000000
  free_energy:       -68.6292785
  entropy:           195.9755378
  heat_capacity:      97.6115540
  energy:             74.4328641

- temperature:       740.0000000
  free_energy:       -70.5956905
  entropy:           197.3039954
  heat_capacity:      97.6684508
  energy:             75.4092660

- temperature:       750.0000000
  free_energy:       -72.5753014
  entropy:           198.6153696
  heat_capacity:      97.7231440
  energy:             76.3862258

- temperature:       760.0000000
  free_energy:       -74.5679424
  entropy:           199.9100847
  heat_capacity:      97.7757453
  energy:             77.3637220

- temperature:       770.0000000
  free_energy:       -76.5734489
  entropy:           201.1885494
  heat_capacity:      97.8263593
  energy:             78.3417341

- temperature:       780.0000000
  free_energy:       -78.5916605
  entropy:           202.4511582
  heat_capacity:      97.8750844
  energy:             79.3202428

- temperature:       790.0000000
  free_energy:       -80.6224205
  entropy:           203.6982915
  heat_capacity:      97.9220128
  energy:             80.2992298

- temperature:       800.0000000
  free_energy:       -82.6655760
  entropy:           204.9303168
  heat_capacity:      97.9672313
  energy:             81.2786774

- temperature:       810.0000000
  free_energy:       -84.7209777
  entropy:           206.1475885
  heat_capacity:      98.0108215
  energy:             82.2585690

- temperature:       820.0000000
  free_energy:       -86.7884797
  entropy:           207.3504493
  heat_capacity:      98.0528603
  energy:             83.2388887

- temperature:       830.0000000
  free_energy:       -88.8679397
  entropy:           208.5392301
  heat_capacity:      98.0934199
  energy:             84.2196213

- temperature:       840.0000000
  free_energy:       -90.9592185
  entropy:           209.7142510
  heat_capacity:      98.1325687
  energy:             85.2007524

- temperature:       850.0000000
  free_energy:       -93.0621799
  entropy:           210.8758213
  heat_capacity:      98.1703709
  energy:             86.1822681

- temperature:       860.0000000
  free_energy:       -95.1766911
  entropy:           212.0242402
  heat_capacity:      98.2068874
  energy:             87.1641555

- temperature:       870.0000000
  free_energy:       -97.3026219
  entropy:           213.1597973
  heat_capacity:      98.2421756
  energy:             88.1464018

- temperature:       880.0000000
  free_energy:       -99.4398451
  entropy:           214.2827729
  heat_capacity:      98.2762895
  energy:             89.1289951

- temperature:       890.0000000
  free_energy:      -101.5882363
  entropy:           215.3934384
  heat_capacity:      98.3092806
  energy:             90.1119239

- temperature:       900.0000000
  free_energy:      -103.7476737
  entropy:           216.4920564
  heat_capacity:      98.3411974
  energy:             91.0951771

- temperature:       910.0000000
  free_energy:      -105.9180381
  entropy:           217.5788818
  heat_capacity:      98.3720857
  energy:             92.0787444

- temperature:       920.0000000
  free_energy:      -108.0992128
  entropy:           218.6541613
  heat_capacity:      98.4019892
  energy:             93.0626155

- temperature:       930.0000000
  free_energy:      -110.2910836
  entropy:           219.7181340
  heat_capacity:      98.4309490
  energy:             94.0467810

- temperature:       940.0000000
  free_energy:      -112.4935386
  entropy:           220.7710320
  heat_capacity:      98.4590044
  energy:             95.0312315

- temperature:       950.0000000
  free_energy:      -114.7064681
  entropy:           221.8130803
  heat_capacity:      98.4861924
  energy:             96.0159582

- temperature:       960.0000000
  free_energy:      -116.9297648
  entropy:           222.8444973
  heat_capacity:      98.5125483
  energy:             97.0009526

- temperature:       970.0000000
  free_energy:      -119.1633233
  entropy:           223.8654947
  heat_capacity:      98.5381055
  energy:             97.9862065

- temperature:       980.0000000
  free_energy:      -121.4070406
  entropy:           224.8762783
  heat_capacity:      98.5628959
  energy:             98.9717121

- temperature:       990.0000000
  free_energy:      -123.6608155
  entropy:           225.8770480
  heat_capacity:      98.5869498
  energy:             99.9574620

- temperature:      1000.0000000
  free_energy:      -125.9245488
  entropy:           226.8679976
  heat_capacity:      98.6102959
  energy:            100.9434488
