# Thermal properties / unit cell (natom)

unit:
  temperature:   K
  free_energy:   kJ/mol
  entropy:       J/K/mol
  heat_capacity: J/K/mol

natom: 18   
cutoff_frequency: 0.00000
num_modes: 221184
num_integrated_modes: 221026

zero_point_energy:      66.5212099

thermal_properties:
- temperature:         0.0000000
  free_energy:        66.5212099
  entropy:             0.0000000
  heat_capacity:       0.0000000
  energy:             66.5212099

- temperature:        10.0000000
  free_energy:        66.5095159
  entropy:             3.6317918
  heat_capacity:       8.3857312
  energy:             66.5458338

- temperature:        20.0000000
  free_energy:        66.4088076
  entropy:            18.5711554
  heat_capacity:      40.9020974
  energy:             66.7802307

- temperature:        30.0000000
  free_energy:        66.1112783
  entropy:            41.5889843
  heat_capacity:      73.4858934
  energy:             67.3589478

- temperature:        40.0000000
  free_energy:        65.5716962
  entropy:            66.3750664
  heat_capacity:      99.3109400
  energy:             68.2266989

- temperature:        50.0000000
  free_energy:        64.7842579
  entropy:            91.0637488
  heat_capacity:     122.7169719
  energy:             69.3374453

- temperature:        60.0000000
  free_energy:        63.7512902
  entropy:           115.4969866
  heat_capacity:     146.0753413
  energy:             70.6811094

- temperature:        70.0000000
  free_energy:        62.4747824
  entropy:           139.7876993
  heat_capacity:     169.6995802
  energy:             72.2599214

- temperature:        80.0000000
  free_energy:        60.9558527
  entropy:           163.9804122
  heat_capacity:     193.0768505
  energy:             74.0742856

- temperature:        90.0000000
  free_energy:        59.1956403
  entropy:           188.0317843
  heat_capacity:     215.5726652
  energy:             76.1185009

- temperature:       100.0000000
  free_energy:        57.1959874
  entropy:           211.8517447
  heat_capacity:     236.7024265
  energy:             78.3811618

- temperature:       110.0000000
  free_energy:        54.9597146
  entropy:           235.3393203
  heat_capacity:     256.1851227
  energy:             80.8470398

- temperature:       120.0000000
  free_energy:        52.4906154
  entropy:           258.4032004
  heat_capacity:     273.9123822
  energy:             83.4989995

- temperature:       130.0000000
  free_energy:        49.7933082
  entropy:           280.9704812
  heat_capacity:     289.8970650
  energy:             86.3194707

- temperature:       140.0000000
  free_energy:        46.8730389
  entropy:           302.9884330
  heat_capacity:     304.2266721
  energy:             89.2914196

- temperature:       150.0000000
  free_energy:        43.7354864
  entropy:           324.4228232
  heat_capacity:     317.0285160
  energy:             92.3989099

- temperature:       160.0000000
  free_energy:        40.3865915
  entropy:           345.2549042
  heat_capacity:     328.4462947
  energy:             95.6273762

- temperature:       170.0000000
  free_energy:        36.8324188
  entropy:           365.4781728
  heat_capacity:     338.6255361
  energy:             98.9637081

- temperature:       180.0000000
  free_energy:        33.0790489
  entropy:           385.0954119
  heat_capacity:     347.7052501
  energy:            102.3962231

- temperature:       190.0000000
  free_energy:        29.1324992
  entropy:           404.1161979
  heat_capacity:     355.8136477
  energy:            105.9145768

- temperature:       200.0000000
  free_energy:        24.9986656
  entropy:           422.5548983
  heat_capacity:     363.0663885
  energy:            109.5096453

- temperature:       210.0000000
  free_energy:        20.6832831
  entropy:           440.4291120
  heat_capacity:     369.5663242
  energy:            113.1733966

- temperature:       220.0000000
  free_energy:        16.1918996
  entropy:           457.7584821
  heat_capacity:     375.4040682
  energy:            116.8987657

- temperature:       230.0000000
  free_energy:        11.5298603
  entropy:           474.5638087
  heat_capacity:     380.6589805
  energy:            120.6795363

- temperature:       240.0000000
  free_energy:         6.7022993
  entropy:           490.8663963
  heat_capacity:     385.4003162
  energy:            124.5102344

- temperature:       250.0000000
  free_energy:         1.7141370
  entropy:           506.6875825
  heat_capacity:     389.6883958
  energy:            128.3860327

- temperature:       260.0000000
  free_energy:        -3.4299179
  entropy:           522.0484042
  heat_capacity:     393.5757195
  energy:            132.3026672

- temperature:       270.0000000
  free_energy:        -8.7253649
  entropy:           536.9693671
  heat_capacity:     397.1079861
  energy:            136.2563642

- temperature:       280.0000000
  free_energy:       -14.1679052
  entropy:           551.4702924
  heat_capacity:     400.3250047
  energy:            140.2437767

- temperature:       290.0000000
  free_energy:       -19.7534342
  entropy:           565.5702203
  heat_capacity:     403.2614954
  energy:            144.2619297

- temperature:       300.0000000
  free_energy:       -25.4780337
  entropy:           579.2873557
  heat_capacity:     405.9477868
  energy:            148.3081730

- temperature:       310.0000000
  free_energy:       -31.3379633
  entropy:           592.6390436
  heat_capacity:     408.4104181
  energy:            152.3801402

- temperature:       320.0000000
  free_energy:       -37.3296515
  entropy:           605.6417662
  heat_capacity:     410.6726585
  energy:            156.4757137

- temperature:       330.0000000
  free_energy:       -43.4496876
  entropy:           618.3111558
  heat_capacity:     412.7549513
  energy:            160.5929939

- temperature:       340.0000000
  free_energy:       -49.6948129
  entropy:           630.6620178
  heat_capacity:     414.6752959
  energy:            164.7302731

- temperature:       350.0000000
  free_energy:       -56.0619129
  entropy:           642.7083601
  heat_capacity:     416.4495741
  energy:            168.8860131

- temperature:       360.0000000
  free_energy:       -62.5480093
  entropy:           654.4634278
  heat_capacity:     418.0918301
  energy:            173.0588247

- temperature:       370.0000000
  free_energy:       -69.1502524
  entropy:           665.9397396
  heat_capacity:     419.6145103
  energy:            177.2474513

- temperature:       380.0000000
  free_energy:       -75.8659144
  entropy:           677.1491256
  heat_capacity:     421.0286688
  energy:            181.4507533

- temperature:       390.0000000
  free_energy:       -82.6923825
  entropy:           688.1027648
  heat_capacity:     422.3441448
  energy:            185.6676958

- temperature:       400.0000000
  free_energy:       -89.6271525
  entropy:           698.8112228
  heat_capacity:     423.5697140
  energy:            189.8973366

- temperature:       410.0000000
  free_energy:       -96.6678230
  entropy:           709.2844870
  heat_capacity:     424.7132206
  energy:            194.1388166

- temperature:       420.0000000
  free_energy:      -103.8120898
  entropy:           719.5320019
  heat_capacity:     425.7816898
  energy:            198.3913510

- temperature:       430.0000000
  free_energy:      -111.0577404
  entropy:           729.5627018
  heat_capacity:     426.7814262
  energy:            202.6542214

- temperature:       440.0000000
  free_energy:      -118.4026493
  entropy:           739.3850425
  heat_capacity:     427.7180988
  energy:            206.9267694

- temperature:       450.0000000
  free_energy:      -125.8447734
  entropy:           749.0070304
  heat_capacity:     428.5968145
  energy:            211.2083902

- temperature:       460.0000000
  free_energy:      -133.3821474
  entropy:           758.4362507
  heat_capacity:     429.4221825
  energy:            215.4985279

- temperature:       470.0000000
  free_energy:      -141.0128799
  entropy:           767.6798934
  heat_capacity:     430.1983705
  energy:            219.7966700

- temperature:       480.0000000
  free_energy:      -148.7351495
  entropy:           776.7447780
  heat_capacity:     430.9291530
  energy:            224.1023440

- temperature:       490.0000000
  free_energy:      -156.5472012
  entropy:           785.6373763
  heat_capacity:     431.6179551
  energy:            228.4151132

- temperature:       500.0000000
  free_energy:      -164.4473432
  entropy:           794.3638336
  heat_capacity:     432.2678892
  energy:            232.7345735

- temperature:       510.0000000
  free_energy:      -172.4339436
  entropy:           802.9299891
  heat_capacity:     432.8817886
  energy:            237.0603509

- temperature:       520.0000000
  free_energy:      -180.5054272
  entropy:           811.3413943
  heat_capacity:     433.4622364
  energy:            241.3920978

- temperature:       530.0000000
  free_energy:      -188.6602733
  entropy:           819.6033306
  heat_capacity:     434.0115911
  energy:            245.7294920

- temperature:       540.0000000
  free_energy:      -196.8970124
  entropy:           827.7208252
  heat_capacity:     434.5320097
  energy:            250.0722332

- temperature:       550.0000000
  free_energy:      -205.2142243
  entropy:           835.6986665
  heat_capacity:     435.0254673
  energy:            254.4200423

- temperature:       560.0000000
  free_energy:      -213.6105354
  entropy:           843.5414182
  heat_capacity:     435.4937752
  energy:            258.7726588

- temperature:       570.0000000
  free_energy:      -222.0846169
  entropy:           851.2534323
  heat_capacity:     435.9385967
  energy:            263.1298395

- temperature:       580.0000000
  free_energy:      -230.6351822
  entropy:           858.8388615
  heat_capacity:     436.3614614
  energy:            267.4913575

- temperature:       590.0000000
  free_energy:      -239.2609854
  entropy:           866.3016706
  heat_capacity:     436.7637774
  energy:            271.8570003

- temperature:       600.0000000
  free_energy:      -247.9608195
  entropy:           873.6456473
  heat_capacity:     437.1468429
  energy:            276.2265689

- temperature:       610.0000000
  free_energy:      -256.7335143
  entropy:           880.8744120
  heat_capacity:     437.5118560
  energy:            280.5998770

- temperature:       620.0000000
  free_energy:      -265.5779352
  entropy:           887.9914271
  heat_capacity:     437.8599240
  energy:            284.9767495

- temperature:       630.0000000
  free_energy:      -274.4929814
  entropy:           895.0000061
  heat_capacity:     438.1920711
  energy:            289.3570224

- temperature:       640.0000000
  free_energy:      -283.4775845
  entropy:           901.9033212
  heat_capacity:     438.5092462
  energy:            293.7405411

- temperature:       650.0000000
  free_energy:      -292.5307071
  entropy:           908.7044115
  heat_capacity:     438.8123289
  energy:            298.1271603

- temperature:       660.0000000
  free_energy:      -301.6513417
  entropy:           915.4061895
  heat_capacity:     439.1021356
  energy:            302.5167434

- temperature:       670.0000000
  free_energy:      -310.8385092
  entropy:           922.0114485
  heat_capacity:     439.3794250
  energy:            306.9091613

- temperature:       680.0000000
  free_energy:      -320.0912579
  entropy:           928.5228683
  heat_capacity:     439.6449027
  energy:            311.3042925

- temperature:       690.0000000
  free_energy:      -329.4086623
  entropy:           934.9430211
  heat_capacity:     439.8992256
  energy:            315.7020222

- temperature:       700.0000000
  free_energy:      -338.7898223
  entropy:           941.2743775
  heat_capacity:     440.1430060
  energy:            320.1022419

- temperature:       710.0000000
  free_energy:      -348.2338618
  entropy:           947.5193112
  heat_capacity:     440.3768149
  energy:            324.5048491

- temperature:       720.0000000
  free_energy:      -357.7399281
  entropy:           953.6801039
  heat_capacity:     440.6011853
  energy:            328.9097468

- temperature:       730.0000000
  free_energy:      -367.3071908
  entropy:           959.7589504
  heat_capacity:     440.8166156
  energy:            333.3168430

- temperature:       740.0000000
  free_energy:      -376.9348410
  entropy:           965.7579619
  heat_capacity:     441.0235717
  energy:            337.7260508

- temperature:       750.0000000
  free_energy:      -386.6220907
  entropy:           971.6791711
  heat_capacity:     441.2224898
  energy:            342.1372877

- temperature:       760.0000000
  free_energy:      -396.3681716
  entropy:           977.5245352
  heat_capacity:     441.4137784
  energy:            346.5504752

- temperature:       770.0000000
  free_energy:      -406.1723348
  entropy:           983.2959401
  heat_capacity:     441.5978207
  energy:            350.9655391

- temperature:       780.0000000
  free_energy:      -416.0338499
  entropy:           988.9952033
  heat_capacity:     441.7749763
  energy:            355.3824086

- temperature:       790.0000000
  free_energy:      -425.9520043
  entropy:           994.6240773
  heat_capacity:     441.9455827
  energy:            359.8010168

- temperature:       800.0000000
  free_energy:      -435.9261025
  entropy:          1000.1842525
  heat_capacity:     442.1099572
  energy:            364.2212995

- temperature:       810.0000000
  free_energy:      -445.9554658
  entropy:          1005.6773604
  heat_capacity:     442.2683982
  energy:            368.6431961

- temperature:       820.0000000
  free_energy:      -456.0394314
  entropy:          1011.1049757
  heat_capacity:     442.4211865
  energy:            373.0666487

- temperature:       830.0000000
  free_energy:      -466.1773521
  entropy:          1016.4686192
  heat_capacity:     442.5685866
  energy:            377.4916019

- temperature:       840.0000000
  free_energy:      -476.3685955
  entropy:          1021.7697604
  heat_capacity:     442.7108478
  energy:            381.9180033

- temperature:       850.0000000
  free_energy:      -486.6125437
  entropy:          1027.0098190
  heat_capacity:     442.8482052
  energy:            386.3458025

- temperature:       860.0000000
  free_energy:      -496.9085928
  entropy:          1032.1901681
  heat_capacity:     442.9808805
  energy:            390.7749518

- temperature:       870.0000000
  free_energy:      -507.2561524
  entropy:          1037.3121352
  heat_capacity:     443.1090834
  energy:            395.2054052

- temperature:       880.0000000
  free_energy:      -517.6546452
  entropy:          1042.3770050
  heat_capacity:     443.2330117
  energy:            399.6371192

- temperature:       890.0000000
  free_energy:      -528.1035064
  entropy:          1047.3860204
  heat_capacity:     443.3528527
  energy:            404.0700518

- temperature:       900.0000000
  free_energy:      -538.6021834
  entropy:          1052.3403851
  heat_capacity:     443.4687834
  energy:            408.5041632

- temperature:       910.0000000
  free_energy:      -549.1501358
  entropy:          1057.2412646
  heat_capacity:     443.5809714
  energy:            412.9394150

- temperature:       920.0000000
  free_energy:      -559.7468342
  entropy:          1062.0897879
  heat_capacity:     443.6895756
  energy:            417.3757707

- temperature:       930.0000000
  free_energy:      -570.3917607
  entropy:          1066.8870492
  heat_capacity:     443.7947465
  energy:            421.8131951

- temperature:       940.0000000
  free_energy:      -581.0844079
  entropy:          1071.6341090
  heat_capacity:     443.8966266
  energy:            426.2516546

- temperature:       950.0000000
  free_energy:      -591.8242789
  entropy:          1076.3319958
  heat_capacity:     443.9953514
  energy:            430.6911171

- temperature:       960.0000000
  free_energy:      -602.6108872
  entropy:          1080.9817071
  heat_capacity:     444.0910494
  energy:            435.1315516

- temperature:       970.0000000
  free_energy:      -613.4437557
  entropy:          1085.5842105
  heat_capacity:     444.1838427
  energy:            439.5729284

- temperature:       980.0000000
  free_energy:      -624.3224172
  entropy:          1090.1404452
  heat_capacity:     444.2738472
  energy:            444.0152191

- temperature:       990.0000000
  free_energy:      -635.2464134
  entropy:          1094.6513231
  heat_capacity:     444.3611733
  energy:            448.4583964

- temperature:      1000.0000000
  free_energy:      -646.2152954
  entropy:          1099.1177294
  heat_capacity:     444.4459258
  energy:            452.9024340
