16
Lattice="5.865662544690506 0.002089054205796639 -0.08801674377855134 -0.00321447224562587 5.8862216613033755 8.6830693735782e-05 0.0863976845447289 0.004713931563708362 10.00328602566706" Properties=species:S:1:pos:R:3:forces:R:3 structure_index=0 total_energy=-50.88236618041992 stress="0.02114158682525158 -0.0005355597822926939 0.003925912547856569 -0.0005356228211894631 -0.004171684850007296 -0.00019880877516698092 0.003925962373614311 -0.00019884288485627621 0.001116241910494864" pbc="T T T"
Li       1.29373953       1.90404416       5.52103304       0.00039081      -0.02369892       0.00411789
Li       4.10102725       1.89986171       0.49179103       0.00944950      -0.02219536      -0.00912583
Li       5.66466016       0.42012580       7.96333174       0.00182493       0.00104432       0.00107580
Li       4.10669345       4.82240159       0.48142457       0.00313983       0.02118059       0.00055313
Li       1.29861997       4.82685533       5.51325111      -0.00783628       0.02234511       0.00966537
Ga       4.12214927       3.36786600       5.55027047       0.02155783      -0.00155976       0.00656749
Ga       5.63330414       0.42132456       2.97173982       0.01580405      -0.00207542      -0.01191341
Ga       2.71053888       0.42540676       2.99174754      -0.00324210      -0.00420432       0.01568144
Ga       1.28634967       3.36137307       0.45904832      -0.02688692      -0.00240416      -0.00484243
Ga       2.76434599       3.36480274       8.00956744      -0.00074009      -0.00882833       0.00266260
Sn       5.69636846       3.36366528       7.95546877       0.00437167      -0.00071773       0.00033723
Sn       4.25712309       0.42384088       5.43669118      -0.02527145       0.00201776       0.01180580
Sn       2.71272082       3.36696793       2.99867222      -0.00132951       0.00124650       0.00112653
Sn       1.12908784       0.41633329       0.58006556       0.00975426       0.00388808      -0.01233206
Sn       2.72884741       0.41480820       8.01086504       0.00322306       0.01106698      -0.00977922
Sn       5.64609781       3.36255609       2.96813119      -0.00420962       0.00289468      -0.00560033
4
Lattice="4.040800094604492 0.0 2.331855297088623 1.3459849184681625 3.8104264470403 2.3321285247802734 0.0 0.0 4.665796756744385" Properties=species:S:1:pos:R:3:forces:R:3 structure_index=1 total_energy=-12.01108169555664 stress="0.04734490439295769 -0.001735067111440003 -0.003103158436715603 -0.0017349488334730268 0.0520876906812191 -0.0019573569297790527 -0.003102980786934495 -0.0019573040772229433 0.04462122172117233" pbc="T T T"
Li       2.07966482       2.50864645       3.67359683      -0.00108964      -0.00027778      -0.00099200
Li       3.42663156       0.60329968       6.00573723      -0.00069300      -0.00033335      -0.00047835
Ga       3.42601578       3.46071638       6.00465599       0.00001193       0.00044544       0.00102117
Sn       0.73174717       1.55585201       1.34052161       0.00177073       0.00016570       0.00044919
10
Lattice="4.220989900690746 -0.0005660814354321997 0.0010641299016149448 0.000835813467918225 6.268217278444748 0.007274399101249231 -0.0019012636821364838 -0.01560903799598197 7.378214428650248" Properties=species:S:1:pos:R:3:forces:R:3 structure_index=2 total_energy=-29.47432518005371 stress="-0.009682593867182732 1.2230739230290055e-06 2.738654302447685e-06 1.305819182562118e-06 -0.010192381218075752 3.353414649609476e-05 2.6232949039695086e-06 3.3424079447286204e-05 -0.015051336027681828" pbc="T T T"
Li       3.21909280       1.38967594       3.46094076      -0.00000430      -0.04904687       0.02303622
Li       3.21802890       0.79108015       7.14886542       0.00002318       0.04845262       0.02263544
Li       1.10959991       2.87419173       0.50010978      -0.00001017       0.03576827      -0.00391794
Li       1.10904462       5.58956461       4.18936024      -0.00002577      -0.03695316      -0.00418170
Ga       1.10818463       5.36754646       6.97883621       0.00003395       0.01426548      -0.00954748
Ga       1.10806800       1.51903442       5.54445436       0.00000021       0.01143790      -0.01503393
Ga       1.10885717       3.08333664       3.28957465       0.00001645      -0.01293933      -0.01042056
Ga       1.10892233       0.67041384       1.85332643      -0.00000487      -0.01197612      -0.01498399
Sn       3.21993873       4.82479274       2.03113932      -0.00001049      -0.01260433       0.00579301
Sn       3.21882054       3.63056718       5.72592073      -0.00001820       0.01359550       0.00662091
5
Lattice="3.971033935533243 0.0001177257366796514 -1.3693431251050268 -0.47258550218566653 3.9428742890990387 -1.369724448652718 -0.031069544905957643 -0.03312344144934526 6.364588275095996" Properties=species:S:1:pos:R:3:forces:R:3 structure_index=3 total_energy=-14.56674575805664 stress="-0.017806068062782288 0.013690563850104809 0.033353906124830246 0.013690649531781673 -0.016504116356372833 0.03458554670214653 0.03335365653038025 0.034585390239953995 0.05065607279539108" pbc="T T T"
Li       3.76269449       0.55639722       3.12265999       0.00022134       0.00008291       0.00060153
Ga       0.44742581       3.53072769      -0.05741657      -0.00276464       0.00087004       0.00084905
Ga       2.66720040       1.56025473      -0.05704931       0.00314743      -0.00178148       0.00003004
Ga       1.91506861       2.94986205       4.21167224       0.00128607       0.00135820      -0.00114012
Ga       1.16873246       2.10766978       2.03905357      -0.00189021      -0.00052968      -0.00034048
8
Lattice="4.804328278653404 7.348150219285326e-05 0.0016348922519682733 -0.00044327772957415066 5.302429614132237 -2.5358341354760103 -0.0011163443407615746 -0.11986825395289293 5.883856135900454" Properties=species:S:1:pos:R:3:forces:R:3 structure_index=4 total_energy=-23.935144424438477 stress="0.0443006306886673 -0.00040091463597491384 -2.0796731405425817e-05 -0.00040082255145534873 -0.001278676907531917 0.03041323833167553 -2.070904338324908e-05 0.030413229018449783 -0.01928229257464409" pbc="T T T"
Li       0.48554979       4.21428908       2.15078185       0.00033523      -0.02049469      -0.01174414
Li       0.48618996       1.53577237       0.41787311       0.00039746       0.01915446       0.01411645
Li       2.88960354       0.57898603       2.11145426       0.00011592      -0.01978062      -0.01525512
Li       2.88877210       3.07463245       3.72219271       0.00014773       0.02161232       0.01164291
Ga       0.48680442       1.46384274       3.48126300       0.00010539      -0.01194343       0.01483641
Ga       2.88872296       0.52246608       4.93490224      -0.00053146       0.01512169      -0.01781000
Sn       2.88825832       3.14847285       0.86059272       0.00009834       0.01243966      -0.01709622
Sn       0.48773147       4.26852835      -0.87480777      -0.00066862      -0.01610939       0.02130972
10
Lattice="3.2414507865905757 0.0 -0.0007381868199448604 -0.004018335144004545 3.2433496855097244 -0.002813705010339401 0.0 0.0 15.655722618103027" Properties=species:S:1:pos:R:3:forces:R:3 structure_index=5 total_energy=-28.365360260009766 stress="-0.027007728815078735 -0.019651351496577263 -0.0032159036491066217 -0.019651329144835472 -0.026363404467701912 -0.013146632350981236 -0.0032157637178897858 -0.013146530836820602 0.0027185422368347645" pbc="T T T"
Li       0.15671384       2.19805398       8.02512592      -0.00137976      -0.00046899      -0.01227370
Li       0.15556366       2.19788831       5.00829846      -0.00022895      -0.00076137       0.00103010
Li       0.15591926       2.19649332      10.97787892      -0.00017353       0.00135367       0.00935497
Li       0.15513777       2.19634872       1.31342896       0.00049292       0.00066248       0.00385495
Li       0.15532754       2.19527928      13.94892605       0.00078403       0.00251569       0.00503383
Ga       1.77855144       0.57548205      12.46988965      -0.00026696      -0.00168382      -0.02246062
Ga       1.77832631       0.57583171       6.55632123       0.00072510       0.00023041      -0.00877422
Ga       1.77850604       0.57610743       9.49670812       0.00076348      -0.00079603       0.02726330
Ga       1.77869557       0.57548925      15.42239192      -0.00088346      -0.00147048       0.00388100
Sn       1.77792043       0.57502064       3.16690008       0.00016713       0.00041843      -0.00690961
20
Lattice="6.123450653772248 -0.07083925179542198 0.02637096971594064 0.15945985578811975 7.075288701967773 -2.24082030135442 0.0028926846466335713 -0.06225540704680626 9.11094868063392" Properties=species:S:1:pos:R:3:forces:R:3 structure_index=6 total_energy=-59.928192138671875 stress="-0.01334407925605774 0.007425597403198481 -0.0017552535282447934 0.007425629533827305 -0.0019837499130517244 0.009638995863497257 -0.0017552126664668322 0.009638923220336437 -0.015201052650809288" pbc="T T T"
Li       1.03284691       0.95675360       0.28423127      -0.00046153      -0.01143462      -0.02234925
Li       5.73709713       6.35428434       0.08388567       0.00134391       0.01311223       0.00046007
Li       4.06282651       4.84545827       2.44014149      -0.00640384      -0.00805587      -0.00322674
Li       4.06083960       4.97730819       6.91917472      -0.02986791      -0.00619523      -0.00394842
Li       3.99506793       0.87024821       0.28695648       0.00562869      -0.00963069      -0.02462785
Li       4.04447673       0.80641351       4.47606951       0.00983119      -0.01625412       0.02481142
Li       1.15682770       4.87929195       2.41085898       0.01587847      -0.00134701      -0.00570537
Li       5.73464921       6.57069039       4.72269467       0.00384855       0.00725868      -0.00081310
Li       1.02122943       0.85230983       4.46089072       0.00063650      -0.00989353       0.02543487
Ga       0.99801082       2.06637148       6.89748175       0.02561554       0.01473465       0.00373051
Ga       5.59288007       2.09645022       2.40630339       0.00349985       0.02938317       0.00824243
Ga       1.06998764       5.16842047       6.88847195      -0.00577671      -0.02378697       0.00146459
Ga       2.55005748       3.54818262       5.00223434      -0.00074748       0.01140944      -0.03185655
Ga       2.54660008       3.44506227      -0.24492222       0.00228986       0.01972578       0.02986814
Ga       4.11894945       2.08727370       6.90332322      -0.04022975       0.02422863      -0.00036574
Sn       5.63189763       3.48646522      -0.02152551       0.00263232       0.00017844      -0.01370523
Sn       2.68811539       6.61576307       4.62647909       0.00652576      -0.00334085      -0.00187154
Sn       2.54985153       2.28711024       2.41235544       0.00084665      -0.03328189       0.00012653
Sn       5.63597706       3.54034746       4.79338946       0.00226163       0.00091890       0.00835051
Sn       2.67567414       6.32943136       0.14543905       0.00264835       0.00227086       0.00598074
10
Lattice="4.19229106764247 -0.016770892192619076 -0.8554991418676063 0.014178174077535396 4.208646345436015 0.00841421668130516 -0.01712018902748281 -0.04478678360010521 10.678215962417228" Properties=species:S:1:pos:R:3:forces:R:3 structure_index=7 total_energy=-30.000534057617188 stress="-0.003562550526112318 -0.00946038868278265 -0.004724711645394564 -0.009460348635911942 -0.018103845417499542 -0.013106187805533409 -0.004724794067442417 -0.013106200844049454 0.03131454437971115" pbc="T T T"
Li       2.88495451       1.05934778       4.00674002       0.00172233      -0.00108660       0.00451365
Li       0.39590866       1.07683934       2.50728311       0.00619393      -0.00038520       0.01638852
Li       1.63573014       3.15450348       8.57417792       0.00126504      -0.00219122      -0.00778289
Li       4.18389904       3.17704519      -0.39161793      -0.00067296       0.00010100      -0.00389943
Ga       3.75848443       1.03896832       8.28986954      -0.00798230       0.00171330      -0.01669614
Ga       1.17182640       1.05833154       6.30133006       0.00258658       0.00031382       0.01530955
Ga       0.75257614       3.17205541       4.22004235      -0.00128962       0.00233767      -0.00980688
Ga       2.50057324       3.17325855       2.07525283       0.00161088       0.00249106       0.01915618
Sn       2.08829217       1.08163517       0.07127927       0.00450317      -0.00188683       0.01633671
Sn       3.33001779       3.15375621       6.14878714      -0.00793705      -0.00140699      -0.03351926
11
Lattice="4.302206568940666 -0.02813421760863982 0.8528624187932103 -0.13128966265427755 4.177823717350999 0.8179695825561896 -0.03501232449388299 -0.06859513852062418 11.44928823710502" Properties=species:S:1:pos:R:3:forces:R:3 structure_index=8 total_energy=-32.533721923828125 stress="-0.0017496561631560326 0.004930955823510885 0.004846808034926653 0.004930948372930288 -0.033606644719839096 0.00020774734730366617 0.004846935160458088 0.0002077889657812193 -0.02962488681077957" pbc="T T T"
Li       1.27535922       3.49084489       2.45262346       0.00263687       0.00245909      -0.01152762
Li      -0.03334379       2.16755781       9.00765677       0.00075762      -0.00039671      -0.00170714
Li       2.50893502       2.54416357       7.48439424       0.00361112       0.00397733      -0.01815098
Li       3.77148704       3.79513360      12.42329761      -0.00343603      -0.00482513       0.01917913
Li       0.72078537       2.92398367       5.24301988      -0.00200988      -0.00088799       0.00656343
Ga       3.15550297       3.19919752       4.24184418       0.00022175       0.00097202      -0.00097841
Ga       2.15508318       0.03604641       9.16955546      -0.00114441      -0.00144743       0.00657943
Ga       2.92648302       0.80947124       5.31839033      -0.00047514       0.00148261      -0.00292116
Ga       3.52416758       1.42024135       2.30596420       0.00005595      -0.00105046       0.00485571
Sn       0.40336114       0.44902084       6.75263359       0.00005498       0.00059302      -0.00177396
Sn       1.70553671       1.73932225      11.49084896      -0.00027280      -0.00087633      -0.00011839
10
Lattice="4.8647135490899025 -0.0016521565491821042 1.0582224353244915e-05 -2.4313007640203064 4.212725222155837 -6.673908409820301e-05 0.000282357686450814 0.00022624667079727094 10.62779727774368" Properties=species:S:1:pos:R:3:forces:R:3 structure_index=9 total_energy=-32.57954406738281 stress="0.026301061734557152 0.0003881069424096495 5.865715502295643e-05 0.0003881088341586292 0.026651155203580856 2.9160182748455554e-05 5.8661265939008445e-05 2.9156288292142563e-05 0.02905331179499626" pbc="T T T"
Li       0.50921839       0.43178128       7.12563614       0.00008739       0.00010438      -0.00225129
Li       2.94191377       1.83640154       4.57951158       0.00038808      -0.00024197      -0.00207755
Li       0.51024311       0.43180444       1.98954054      -0.00001054       0.00014908       0.00096519
Li       0.50959253       3.23989699       9.89004949       0.00081599      -0.00051369       0.00839097
Ga       0.50976387       0.43306038       4.55815820      -0.00071839       0.00028544      -0.00127932
Sn       2.94323626       1.83417895       0.92529192      -0.00142118       0.00085321       0.01463550
Sn       0.50927630       0.43156177       9.86980286       0.00008434       0.00007698       0.00113886
Sn       2.94195469       1.83435826       8.19098346      -0.00004184       0.00068574      -0.00912035
Sn       0.50997712       3.24095835       3.01474784       0.00085319      -0.00084840      -0.04653864
Sn       0.51001482       3.24071399       6.11890335      -0.00003701      -0.00055076       0.03613660
6
Lattice="3.266610395457228 -0.0005740824681223558 0.0009564748120847422 0.006195471122829322 3.2670379770038203 0.0014661324458481457 0.0003508589112356188 -0.0005732791324555188 11.558953105997801" Properties=species:S:1:pos:R:3:forces:R:3 structure_index=10 total_energy=-18.848976135253906 stress="-0.014438267797231674 0.006182665470987558 -0.0010292216902598739 0.006182640325278044 -0.013895285315811634 0.0017176157562062144 -0.001029281411319971 0.0017176771070808172 0.034253090620040894" pbc="T T T"
Li       2.24113074       1.25760308       1.26835670       0.00022060       0.00011852       0.00512364
Li       0.61435290       2.89182218       7.97056543       0.00022624      -0.00023644      -0.00020964
Ga       0.61266293       2.89013890      11.20119823       0.00023089       0.00008837       0.00534392
Ga       2.24428342       1.25660470       9.58452909      -0.00054300       0.00039136      -0.00518339
Sn       2.24573120       1.25904255       5.91843751      -0.00012502      -0.00000986       0.00797236
Sn       0.60999522       2.89219523       3.34031684      -0.00000973      -0.00035194      -0.01304691
8
Lattice="4.7723838038477435 -0.0013970195046328815 0.00043721671740547165 0.001700094711463338 5.063307367407166 -2.9198022345457244 0.00018031450573506588 0.0008672398402081922 5.8485058252488935" Properties=species:S:1:pos:R:3:forces:R:3 structure_index=11 total_energy=-20.604095458984375 stress="0.020952796563506126 0.000962297257501632 -4.6730408939765766e-05 0.0009622011566534638 -0.031837347894907 0.00020332791609689593 -4.6679473598487675e-05 0.0002032656193478033 -0.0313001349568367" pbc="T T T"
Li       1.48804069       0.08311143       2.31856706      -0.00118459       0.01920340      -0.03333884
Li       1.48837584       0.08548141       5.35322185      -0.00070605       0.01649891       0.03097440
Li       1.48910386       2.51731853       0.91126052      -0.00068670      -0.03478429       0.00201037
Li       3.87407327       3.39081830      -0.61100277       0.00143630      -0.01709213      -0.03049688
Li       3.87564216       3.39199213       2.43301509      -0.00040479      -0.01837596       0.02980937
Li       3.87330167       0.96414696       3.83463151       0.00163844       0.03545289      -0.00176632
Ga       3.87400796       0.89303731       0.90663385       0.00051102      -0.00038486       0.00147837
Sn       1.48853781       2.58481019       3.83671096      -0.00060365      -0.00051796       0.00132954
12
Lattice="4.993116564950466 0.0006836472344982926 -0.0007705313574812819 -0.00030793955100962597 5.012171334380777 -0.0636836388467156 0.0014837946851643082 -0.06400169242311836 8.807382175441404" Properties=species:S:1:pos:R:3:forces:R:3 structure_index=12 total_energy=-34.67930603027344 stress="0.01620345376431942 0.00016658507229294628 3.614987508626655e-05 0.0001665219897404313 -0.028977345675230026 0.00357762910425663 3.6011086194776e-05 0.0035774828866124153 0.01668349839746952" pbc="T T T"
Li       1.07377453       0.88066096       0.42685190       0.00008326      -0.00521097      -0.01012733
Li       3.57050500       4.99226508       1.68397354      -0.00007304      -0.00116894      -0.02581178
Li       1.07402029       3.24173911       4.73671094       0.00023952      -0.02453363       0.02955792
Li       1.07502095       0.86729781       6.18057754       0.00019687       0.00439921       0.01645053
Li       1.07365890       3.18077514       1.81261559       0.00004732      -0.02716028       0.00953278
Li       3.57056264       2.40665906       3.34929457      -0.00004589      -0.00589656      -0.00356099
Ga       3.57109050       4.94666665       4.73272455      -0.00018114      -0.02086378       0.02898572
Ga       3.57174027       2.50165465       6.20166603      -0.00054396       0.01706770      -0.02883924
Ga       3.57199338       0.07279481       7.67125577      -0.00031039       0.03057666      -0.01063573
Ga       3.57009888       2.53575487       0.29534257       0.00014305      -0.01696867       0.03088454
Sn       1.07493352       3.37024405       7.73177504       0.00032747       0.02043879      -0.01342048
Sn       1.07439070       0.61965042       3.32123120       0.00011690       0.02932045      -0.02301590
4
Lattice="4.26941162349291 -0.00020587433341724936 0.0022453790840749025 0.001966435473787249 4.271070941566646 0.00018981875912752204 -0.00042765059275034394 -3.6474987273924665e-05 4.381309129930273" Properties=species:S:1:pos:R:3:forces:R:3 structure_index=13 total_energy=-12.532628059387207 stress="-0.04465818032622337 0.0025537945330142975 0.004368850030004978 0.00255374051630497 -0.04025604575872421 0.0003716016362886876 0.0043688807636499405 0.0003716294595506042 0.08724206686019897" pbc="T T T"
Li       3.09868432       2.94981260       1.51136095      -0.00063814       0.00023679       0.00020723
Ga       3.09683586       0.81441244       3.70234006      -0.00001649       0.00002621       0.00045703
Ga       0.96252088       2.95019935       3.70137398       0.00086993      -0.00006368       0.00036407
Sn       0.96271916       0.81468294       1.51108482      -0.00021529      -0.00019933      -0.00102834
12
Lattice="4.811858302861804 0.0035739484687075055 -0.0016790006247837286 -0.003222020377881939 6.061611255265566 -0.001133306530773574 0.0021451793648071147 0.004566336776000872 8.331437834958912" Properties=species:S:1:pos:R:3:forces:R:3 structure_index=14 total_energy=-36.728450775146484 stress="0.03146756812930107 0.0004819315508939326 -0.0005850733141414821 0.0004819577734451741 0.004424836952239275 -0.0001721843727864325 -0.0005850376910530031 -0.00017221324378624558 0.02855558507144451" pbc="T T T"
Li       1.65577167       3.24868626       2.67573746      -0.00020268       0.00214716       0.01471232
Li       4.05943103       4.80616439       1.34849077       0.00025185      -0.01610644       0.00343004
Li       4.06181262       1.70116209       1.34021541      -0.00024158       0.01535427       0.00975342
Li       1.65658676       1.77348378       5.50908766       0.00016821      -0.01508405      -0.00946570
Li       1.65530521       4.72932703       5.49915517      -0.00006063       0.01722323      -0.00296270
Li       4.06268427       0.22773974       4.17433246      -0.00013948      -0.00288209      -0.01538473
Ga       1.65606642       0.21702061       0.07298319       0.00124475       0.00140890      -0.04507452
Ga       4.06150980       3.25737163       6.77665071       0.00106894      -0.00137405       0.04524358
Sn       4.06212645       3.25515450       4.00251663       0.00011380       0.00323910       0.03391162
Sn       1.65644231       3.25442261       8.23934375      -0.00063705       0.00081106      -0.02041467
Sn       1.65619578       0.22092688       2.84713679       0.00012449      -0.00337459      -0.03409022
Sn       4.06448867       0.22499582       6.94180879      -0.00169061      -0.00136250       0.02034158
5
Lattice="4.509317532192605 0.0018669905169410028 0.0007304542039340158 -2.2600243378144573 3.9038793338812265 -0.0007513894811151494 0.0006633508971347939 0.0008224667440022338 7.243527805020009" Properties=species:S:1:pos:R:3:forces:R:3 structure_index=15 total_energy=-16.540821075439453 stress="0.053861770778894424 -0.00765751488506794 0.0033360139932483435 -0.007657704874873161 0.05309104174375534 -0.00024665225646458566 0.0033357900101691484 -0.0002467461454216391 0.05251292511820793" pbc="T T T"
Li       0.82070105       1.43188649       0.46612993       0.00144249      -0.00012962      -0.02285122
Ga      -1.43433296       2.73281179       1.62567998      -0.00051383      -0.00101768       0.01253325
Ga       3.08137904       0.13102713       5.28126202       0.00016087      -0.00044363       0.00102360
Sn      -1.43249304       2.73238732       6.08563540      -0.00112819       0.00099544      -0.03108895
Sn       3.07930687       0.13125172       2.49633310       0.00003864       0.00059549       0.04038332
12
Lattice="4.099920723388932 0.002981704739337358 0.9653406181240417 1.6622314272737877 6.3265813470268695 2.0902521970857926 0.05911147527128669 -0.05154493468054857 8.93306163346064" Properties=species:S:1:pos:R:3:forces:R:3 structure_index=16 total_energy=-36.375640869140625 stress="0.0092073455452919 -0.0008132477523759007 0.002332843840122223 -0.0008132683578878641 0.0049164267256855965 0.0006945696659386158 0.0023330359254032373 0.0006946874782443047 -0.0017611789517104626" pbc="T T T"
Li       4.38859085       4.86395419      10.02875713       0.00254138      -0.02751310      -0.01474019
Li       3.37762826       3.83911389       5.13578343       0.00313951      -0.02759755      -0.01762348
Li       5.29219063       6.11296253       6.18443078      -0.00160275       0.01289323       0.00515169
Li       2.09581412       0.38007379       1.42414589      -0.00258028       0.00033737      -0.00267778
Li       3.04001429       1.22428929       6.58496584      -0.00962341       0.00141261       0.04304076
Ga       0.56568818       0.69462566       7.90704454      -0.00843709       0.00960024       0.04562005
Ga       2.49234837       2.72786676       8.92202335      -0.00649099       0.01835424       0.00270370
Ga       4.98374125       3.24916742       7.49967862      -0.00651090      -0.00287877       0.04218215
Ga       1.43607059       1.84159935       4.21040221       0.00316282      -0.01364708      -0.02410163
Sn       1.77041242       4.63579623       2.75882256       0.01202764       0.02039166      -0.03767642
Sn       2.81234490       5.40729602       7.52944995      -0.00068605       0.01824268      -0.00073120
Sn       3.96790259       2.38781173       2.62507163       0.01506014      -0.00959552      -0.04114766
7
Lattice="3.9978146775953207 0.013417292983147108 1.0963144155673357 1.9907427192115867 4.767249453301586 0.5242834578794547 -0.06312770469541552 -0.19383245254060152 8.086362818725178" Properties=species:S:1:pos:R:3:forces:R:3 structure_index=17 total_energy=-22.886098861694336 stress="-0.013608045876026154 0.011564414948225021 -0.006793840788304806 0.011564397253096104 0.03179561346769333 -0.034481875598430634 -0.006793817039579153 -0.03448177129030228 0.01879356987774372" pbc="T T T"
Li       1.22813404       0.98902243       5.88056286       0.00876277      -0.01909529      -0.02768098
Li       4.12759652       4.12967228       3.11627849      -0.00075080       0.00946704       0.00266359
Ga       3.71101373       0.18110812       4.67756080      -0.00031805       0.00142063       0.00072698
Ga       1.96547357       2.13164786       3.18697412      -0.00276128      -0.00229464       0.00627695
Sn       4.48726819       1.33396736       1.83466926       0.00041117       0.01827442      -0.00303863
Sn       4.83008516       3.94555758       8.39943613      -0.00273671      -0.00608526       0.00763742
Sn       3.40000431       2.95593881       5.77937625      -0.00260710      -0.00168689       0.01341468
13
Lattice="4.346997919860468 -0.0006746140336290477 0.0005148281332762315 -2.1731883050527507 4.710713662602615 -0.49214927097161354 -0.003909237383037458 -0.017208764592241667 13.0863903924601" Properties=species:S:1:pos:R:3:forces:R:3 structure_index=18 total_energy=-40.880699157714844 stress="0.011698340065777302 6.813901563873515e-05 -0.0002664009516593069 6.817564280936494e-05 0.00026400768547318876 -0.0023705819621682167 -0.00026642924058251083 -0.002370649017393589 -0.001136808656156063" pbc="T T T"
Li       1.12087528       3.49364414       4.87604211      -0.00027601      -0.01773602      -0.00767304
Li       1.12336912       1.46365698       1.09018294      -0.00049670      -0.02017652       0.00747910
Li      -1.05410244       3.86917482       9.93994755       0.00027990      -0.00854037       0.00241547
Li       1.12316550       4.34896921       1.86852519      -0.00045009       0.01367467      -0.00732136
Li       3.29314266       0.34364210      12.29844193      -0.00030279       0.01473241       0.01731317
Li      -1.05296392       4.59643437       6.74357310      -0.00017254       0.01555322       0.00039998
Ga       1.12091165       2.76965333       7.97233356      -0.00088650      -0.00037756      -0.03001247
Ga       1.11926059       0.65054924       4.17866932       0.00181766      -0.01298484       0.04996217
Sn       3.29337675       1.67870736       6.04589438       0.00030930      -0.00187556       0.00938154
Sn      -1.05144412       2.50450207       2.95703913      -0.00044072       0.00974506      -0.02529042
Sn       1.11896653       2.14380347      11.18370277       0.00088822       0.00789254      -0.01138738
Sn      -1.05017929       3.31536026      -0.02722361       0.00000417       0.00689463      -0.01197840
Sn       3.29358693       0.93407655       9.16254551      -0.00027390      -0.00680166       0.00671161
7
Lattice="4.362352590864774 -0.0015053183130190806 9.263640203196987e-06 0.000804328796229117 4.563568007346171 0.00011669782081051721 0.0001472013173237837 0.00022265208450863714 6.8406366267730725" Properties=species:S:1:pos:R:3:forces:R:3 structure_index=19 total_energy=-21.207847595214844 stress="0.0010293024824932218 -0.0005393195897340775 1.1601738151512109e-05 -0.0005393748288042843 0.026500988751649857 -6.199975905474275e-05 1.1636116141744424e-05 -6.217034388100728e-05 0.012269142083823681" pbc="T T T"
Li       2.45822282       3.73838313       0.32078854       0.00012059       0.00103292      -0.00030463
Li       2.45861211       3.73869046       3.74073096      -0.00000617       0.00046089       0.00016725
Li       0.27765348       1.45760303       3.74115445      -0.00002696       0.00027394      -0.00033615
Ga       0.27756095       3.74404375       5.61954979      -0.00008730      -0.00221182      -0.04719274
Ga       0.27714743       3.73643207       1.86191558       0.00041516       0.00177897       0.04789031
Sn       2.45887999       1.45667161       1.89894495      -0.00019890      -0.00051978      -0.01537726
Sn       2.45905639       1.45776665       5.58303809      -0.00021644      -0.00081513       0.01515323
10