phonopy:
  version: "2.37.1"
  frequency_unit_conversion_factor: 15.633302
  symmetry_tolerance: 1.00000e-05

space_group:
  type: "P1"
  number: 1
  Hall_symbol: "P 1"

primitive_matrix:
- [ -1.000000000000000, -0.000000000000000,  0.000000000000000 ]
- [  0.000000000000000,  0.000000000000000, -1.000000000000000 ]
- [  0.000000000000000, -1.000000000000000,  0.000000000000000 ]

supercell_matrix:
- [   2,   0,   0 ]
- [   0,   2,   0 ]
- [   0,   0,   2 ]

primitive_cell:
  lattice:
  - [    -6.774861942153057,     0.000000000000000,     0.000000000000000 ] # a
  - [    -0.013020386895827,    -0.015332317576146,    -6.780262884946000 ] # b
  - [    -0.010624080751004,    -6.781248041061948,     0.000000000000000 ] # c
  points:
  - symbol: Sn # 1
    coordinates: [  0.566009270496145,  0.848563291274264,  0.777586699294752 ]
    mass: 118.710000
  - symbol: Sn # 2
    coordinates: [  0.816730673718866,  0.598826780285461,  0.028378942499964 ]
    mass: 118.710000
  - symbol: Sn # 3
    coordinates: [  0.066259846722105,  0.848126641059025,  0.277856800589706 ]
    mass: 118.710000
  - symbol: Sn # 4
    coordinates: [  0.066119397438315,  0.348201440672981,  0.777803651428221 ]
    mass: 118.710000
  - symbol: Sn # 5
    coordinates: [  0.316518549492802,  0.099216172139345,  0.028433650907607 ]
    mass: 118.710000
  - symbol: Sn # 6
    coordinates: [  0.566116713726307,  0.348837330537577,  0.278023756094840 ]
    mass: 118.710000
  - symbol: Sn # 7
    coordinates: [  0.316825452704764,  0.598375846138582,  0.528211265564730 ]
    mass: 118.710000
  - symbol: Sn # 8
    coordinates: [  0.816698363276782,  0.098890291796064,  0.528186622590256 ]
    mass: 118.710000
  reciprocal_lattice: # without 2pi
  - [    -0.147604483831326,     0.000231249756083,     0.000282927362094 ] # a*
  - [    -0.000000000000000,    -0.000000000000000,    -0.147486906771752 ] # b*
  - [    -0.000000000000000,    -0.147465480387206,     0.000333466063954 ] # c*

unit_cell:
  lattice:
  - [     6.774861942153056,     0.000000000000000,     0.000000000000000 ] # a
  - [     0.010624080751004,     6.781248041061948,     0.000000000000000 ] # b
  - [     0.013020386895826,     0.015332317576146,     6.780262884946000 ] # c
  points:
  - symbol: Sn # 1
    coordinates: [  0.433990729503855,  0.222413300705248,  0.151436708725736 ]
    mass: 118.710000
    reduced_to: 1
  - symbol: Sn # 2
    coordinates: [  0.183269326281134,  0.971621057500036,  0.401173219714539 ]
    mass: 118.710000
    reduced_to: 2
  - symbol: Sn # 3
    coordinates: [  0.933740153277895,  0.722143199410294,  0.151873358940975 ]
    mass: 118.710000
    reduced_to: 3
  - symbol: Sn # 4
    coordinates: [  0.933880602561685,  0.222196348571779,  0.651798559327019 ]
    mass: 118.710000
    reduced_to: 4
  - symbol: Sn # 5
    coordinates: [  0.683481450507199,  0.971566349092393,  0.900783827860655 ]
    mass: 118.710000
    reduced_to: 5
  - symbol: Sn # 6
    coordinates: [  0.433883286273694,  0.721976243905160,  0.651162669462423 ]
    mass: 118.710000
    reduced_to: 6
  - symbol: Sn # 7
    coordinates: [  0.683174547295236,  0.471788734435270,  0.401624153861418 ]
    mass: 118.710000
    reduced_to: 7
  - symbol: Sn # 8
    coordinates: [  0.183301636723218,  0.471813377409744,  0.901109708203936 ]
    mass: 118.710000
    reduced_to: 8

supercell:
  lattice:
  - [    13.549723884306111,     0.000000000000000,     0.000000000000000 ] # a
  - [     0.021248161502009,    13.562496082123896,     0.000000000000000 ] # b
  - [     0.026040773791652,     0.030664635152292,    13.560525769892001 ] # c
  points:
  - symbol: Sn # 1
    coordinates: [  0.216995364751927,  0.111206650352624,  0.075718354362868 ]
    mass: 118.710000
    reduced_to: 1
  - symbol: Sn # 2
    coordinates: [  0.716995364751927,  0.111206650352624,  0.075718354362868 ]
    mass: 118.710000
    reduced_to: 1
  - symbol: Sn # 3
    coordinates: [  0.216995364751927,  0.611206650352624,  0.075718354362868 ]
    mass: 118.710000
    reduced_to: 1
  - symbol: Sn # 4
    coordinates: [  0.716995364751927,  0.611206650352624,  0.075718354362868 ]
    mass: 118.710000
    reduced_to: 1
  - symbol: Sn # 5
    coordinates: [  0.216995364751927,  0.111206650352624,  0.575718354362868 ]
    mass: 118.710000
    reduced_to: 1
  - symbol: Sn # 6
    coordinates: [  0.716995364751927,  0.111206650352624,  0.575718354362868 ]
    mass: 118.710000
    reduced_to: 1
  - symbol: Sn # 7
    coordinates: [  0.216995364751927,  0.611206650352624,  0.575718354362868 ]
    mass: 118.710000
    reduced_to: 1
  - symbol: Sn # 8
    coordinates: [  0.716995364751927,  0.611206650352624,  0.575718354362868 ]
    mass: 118.710000
    reduced_to: 1
  - symbol: Sn # 9
    coordinates: [  0.091634663140567,  0.485810528750018,  0.200586609857269 ]
    mass: 118.710000
    reduced_to: 9
  - symbol: Sn # 10
    coordinates: [  0.591634663140567,  0.485810528750018,  0.200586609857269 ]
    mass: 118.710000
    reduced_to: 9
  - symbol: Sn # 11
    coordinates: [  0.091634663140567,  0.985810528750018,  0.200586609857269 ]
    mass: 118.710000
    reduced_to: 9
  - symbol: Sn # 12
    coordinates: [  0.591634663140567,  0.985810528750018,  0.200586609857269 ]
    mass: 118.710000
    reduced_to: 9
  - symbol: Sn # 13
    coordinates: [  0.091634663140567,  0.485810528750018,  0.700586609857270 ]
    mass: 118.710000
    reduced_to: 9
  - symbol: Sn # 14
    coordinates: [  0.591634663140567,  0.485810528750018,  0.700586609857270 ]
    mass: 118.710000
    reduced_to: 9
  - symbol: Sn # 15
    coordinates: [  0.091634663140567,  0.985810528750018,  0.700586609857270 ]
    mass: 118.710000
    reduced_to: 9
  - symbol: Sn # 16
    coordinates: [  0.591634663140567,  0.985810528750018,  0.700586609857270 ]
    mass: 118.710000
    reduced_to: 9
  - symbol: Sn # 17
    coordinates: [  0.466870076638947,  0.361071599705147,  0.075936679470488 ]
    mass: 118.710000
    reduced_to: 17
  - symbol: Sn # 18
    coordinates: [  0.966870076638947,  0.361071599705147,  0.075936679470488 ]
    mass: 118.710000
    reduced_to: 17
  - symbol: Sn # 19
    coordinates: [  0.466870076638947,  0.861071599705147,  0.075936679470488 ]
    mass: 118.710000
    reduced_to: 17
  - symbol: Sn # 20
    coordinates: [  0.966870076638947,  0.861071599705147,  0.075936679470488 ]
    mass: 118.710000
    reduced_to: 17
  - symbol: Sn # 21
    coordinates: [  0.466870076638947,  0.361071599705147,  0.575936679470488 ]
    mass: 118.710000
    reduced_to: 17
  - symbol: Sn # 22
    coordinates: [  0.966870076638947,  0.361071599705147,  0.575936679470488 ]
    mass: 118.710000
    reduced_to: 17
  - symbol: Sn # 23
    coordinates: [  0.466870076638947,  0.861071599705147,  0.575936679470488 ]
    mass: 118.710000
    reduced_to: 17
  - symbol: Sn # 24
    coordinates: [  0.966870076638947,  0.861071599705147,  0.575936679470488 ]
    mass: 118.710000
    reduced_to: 17
  - symbol: Sn # 25
    coordinates: [  0.466940301280843,  0.111098174285890,  0.325899279663510 ]
    mass: 118.710000
    reduced_to: 25
  - symbol: Sn # 26
    coordinates: [  0.966940301280843,  0.111098174285890,  0.325899279663510 ]
    mass: 118.710000
    reduced_to: 25
  - symbol: Sn # 27
    coordinates: [  0.466940301280843,  0.611098174285890,  0.325899279663510 ]
    mass: 118.710000
    reduced_to: 25
  - symbol: Sn # 28
    coordinates: [  0.966940301280843,  0.611098174285890,  0.325899279663510 ]
    mass: 118.710000
    reduced_to: 25
  - symbol: Sn # 29
    coordinates: [  0.466940301280843,  0.111098174285890,  0.825899279663510 ]
    mass: 118.710000
    reduced_to: 25
  - symbol: Sn # 30
    coordinates: [  0.966940301280843,  0.111098174285890,  0.825899279663510 ]
    mass: 118.710000
    reduced_to: 25
  - symbol: Sn # 31
    coordinates: [  0.466940301280843,  0.611098174285890,  0.825899279663510 ]
    mass: 118.710000
    reduced_to: 25
  - symbol: Sn # 32
    coordinates: [  0.966940301280843,  0.611098174285890,  0.825899279663510 ]
    mass: 118.710000
    reduced_to: 25
  - symbol: Sn # 33
    coordinates: [  0.341740725253599,  0.485783174546197,  0.450391913930328 ]
    mass: 118.710000
    reduced_to: 33
  - symbol: Sn # 34
    coordinates: [  0.841740725253599,  0.485783174546197,  0.450391913930328 ]
    mass: 118.710000
    reduced_to: 33
  - symbol: Sn # 35
    coordinates: [  0.341740725253599,  0.985783174546196,  0.450391913930328 ]
    mass: 118.710000
    reduced_to: 33
  - symbol: Sn # 36
    coordinates: [  0.841740725253599,  0.985783174546196,  0.450391913930328 ]
    mass: 118.710000
    reduced_to: 33
  - symbol: Sn # 37
    coordinates: [  0.341740725253599,  0.485783174546197,  0.950391913930328 ]
    mass: 118.710000
    reduced_to: 33
  - symbol: Sn # 38
    coordinates: [  0.841740725253599,  0.485783174546197,  0.950391913930328 ]
    mass: 118.710000
    reduced_to: 33
  - symbol: Sn # 39
    coordinates: [  0.341740725253599,  0.985783174546196,  0.950391913930328 ]
    mass: 118.710000
    reduced_to: 33
  - symbol: Sn # 40
    coordinates: [  0.841740725253599,  0.985783174546196,  0.950391913930328 ]
    mass: 118.710000
    reduced_to: 33
  - symbol: Sn # 41
    coordinates: [  0.216941643136847,  0.360988121952580,  0.325581334731211 ]
    mass: 118.710000
    reduced_to: 41
  - symbol: Sn # 42
    coordinates: [  0.716941643136847,  0.360988121952580,  0.325581334731211 ]
    mass: 118.710000
    reduced_to: 41
  - symbol: Sn # 43
    coordinates: [  0.216941643136847,  0.860988121952580,  0.325581334731211 ]
    mass: 118.710000
    reduced_to: 41
  - symbol: Sn # 44
    coordinates: [  0.716941643136847,  0.860988121952580,  0.325581334731211 ]
    mass: 118.710000
    reduced_to: 41
  - symbol: Sn # 45
    coordinates: [  0.216941643136847,  0.360988121952580,  0.825581334731211 ]
    mass: 118.710000
    reduced_to: 41
  - symbol: Sn # 46
    coordinates: [  0.716941643136847,  0.360988121952580,  0.825581334731211 ]
    mass: 118.710000
    reduced_to: 41
  - symbol: Sn # 47
    coordinates: [  0.216941643136847,  0.860988121952580,  0.825581334731211 ]
    mass: 118.710000
    reduced_to: 41
  - symbol: Sn # 48
    coordinates: [  0.716941643136847,  0.860988121952580,  0.825581334731211 ]
    mass: 118.710000
    reduced_to: 41
  - symbol: Sn # 49
    coordinates: [  0.341587273647618,  0.235894367217635,  0.200812076930709 ]
    mass: 118.710000
    reduced_to: 49
  - symbol: Sn # 50
    coordinates: [  0.841587273647618,  0.235894367217635,  0.200812076930709 ]
    mass: 118.710000
    reduced_to: 49
  - symbol: Sn # 51
    coordinates: [  0.341587273647618,  0.735894367217635,  0.200812076930709 ]
    mass: 118.710000
    reduced_to: 49
  - symbol: Sn # 52
    coordinates: [  0.841587273647618,  0.735894367217635,  0.200812076930709 ]
    mass: 118.710000
    reduced_to: 49
  - symbol: Sn # 53
    coordinates: [  0.341587273647618,  0.235894367217635,  0.700812076930709 ]
    mass: 118.710000
    reduced_to: 49
  - symbol: Sn # 54
    coordinates: [  0.841587273647618,  0.235894367217635,  0.700812076930709 ]
    mass: 118.710000
    reduced_to: 49
  - symbol: Sn # 55
    coordinates: [  0.341587273647618,  0.735894367217635,  0.700812076930709 ]
    mass: 118.710000
    reduced_to: 49
  - symbol: Sn # 56
    coordinates: [  0.841587273647618,  0.735894367217635,  0.700812076930709 ]
    mass: 118.710000
    reduced_to: 49
  - symbol: Sn # 57
    coordinates: [  0.091650818361609,  0.235906688704872,  0.450554854101968 ]
    mass: 118.710000
    reduced_to: 57
  - symbol: Sn # 58
    coordinates: [  0.591650818361609,  0.235906688704872,  0.450554854101968 ]
    mass: 118.710000
    reduced_to: 57
  - symbol: Sn # 59
    coordinates: [  0.091650818361609,  0.735906688704872,  0.450554854101968 ]
    mass: 118.710000
    reduced_to: 57
  - symbol: Sn # 60
    coordinates: [  0.591650818361609,  0.735906688704872,  0.450554854101968 ]
    mass: 118.710000
    reduced_to: 57
  - symbol: Sn # 61
    coordinates: [  0.091650818361609,  0.235906688704872,  0.950554854101968 ]
    mass: 118.710000
    reduced_to: 57
  - symbol: Sn # 62
    coordinates: [  0.591650818361609,  0.235906688704872,  0.950554854101968 ]
    mass: 118.710000
    reduced_to: 57
  - symbol: Sn # 63
    coordinates: [  0.091650818361609,  0.735906688704872,  0.950554854101968 ]
    mass: 118.710000
    reduced_to: 57
  - symbol: Sn # 64
    coordinates: [  0.591650818361609,  0.735906688704872,  0.950554854101968 ]
    mass: 118.710000
    reduced_to: 57

displacements:
- atom:    1
  displacement:
    [   0.0100000000000000,  0.0000000000000000,  0.0000000000000000 ]
  forces:
  - [  -0.0680644810199738, -0.0179014299064875, -0.0032683466561139 ]
  - [  -0.0061919866129756, -0.0179701969027519, -0.0031600610818714 ]
  - [  -0.0059662857092917, -0.0179714858531952, -0.0031611227896065 ]
  - [  -0.0061152847483754, -0.0179749168455601, -0.0031604075338691 ]
  - [  -0.0059743570163846, -0.0179721377789974, -0.0031631446909159 ]
  - [  -0.0061158365570009, -0.0179702211171389, -0.0031667822040617 ]
  - [  -0.0060310796834528, -0.0179689526557922, -0.0031592515297234 ]
  - [  -0.0060335835441947, -0.0179679729044437, -0.0031605302356184 ]
  - [   0.0100820995867252,  0.0183504968881607,  0.0017704237252474 ]
  - [   0.0107929836958647,  0.0185074545443058,  0.0025184694677591 ]
  - [   0.0269927307963371,  0.0296808555722237, -0.0091113746166229 ]
  - [   0.0109845940023661,  0.0183546021580696,  0.0022195396013558 ]
  - [   0.0108618680387735,  0.0180704258382320,  0.0025128535926342 ]
  - [   0.0105899628251791,  0.0183101240545511,  0.0022751018404961 ]
  - [   0.0100648282095790,  0.0188209526240826,  0.0022371695376933 ]
  - [   0.0107735823839903,  0.0180740766227245,  0.0020930229220539 ]
  - [  -0.0080283656716347, -0.0086311176419258, -0.0145703712478280 ]
  - [  -0.0080546978861094, -0.0081189554184675, -0.0145665574818850 ]
  - [  -0.0080189984291792, -0.0081756385043263, -0.0157714784145355 ]
  - [  -0.0081067625433207, -0.0087055237963796, -0.0157597064971924 ]
  - [  -0.0079072117805481, -0.0084196478128433, -0.0152038037776947 ]
  - [  -0.0079013854265213, -0.0083528775721788, -0.0152059188112617 ]
  - [  -0.0079051600769162, -0.0083605665713549, -0.0151290167123079 ]
  - [  -0.0079040955752134, -0.0084273954853415, -0.0151332346722484 ]
  - [  -0.0017824238166213, -0.0053064208477736, -0.0162410810589790 ]
  - [  -0.0017834247555584, -0.0053051826544106, -0.0157110989093781 ]
  - [  -0.0016376161947846, -0.0059403302147985, -0.0160131976008415 ]
  - [  -0.0016386988572776, -0.0059344409964979, -0.0159395933151245 ]
  - [  -0.0017510524485260, -0.0065070651471615, -0.0157733410596848 ]
  - [  -0.0018206409877166, -0.0064983214251697, -0.0162934809923172 ]
  - [  -0.0016388478688896, -0.0058628921397030, -0.0159549638628960 ]
  - [  -0.0016478062607348, -0.0058683562092483, -0.0160264018923044 ]
  - [  -0.0039105215109885,  0.0041681067086756,  0.0204317290335894 ]
  - [  -0.0041904803365469,  0.0039187846705317,  0.0201817862689495 ]
  - [  -0.0047085429541767,  0.0034395258408040,  0.0201315116137266 ]
  - [  -0.0040035038255155,  0.0041641932912171,  0.0199918970465660 ]
  - [  -0.0047047771513462,  0.0038746185600758,  0.0197049714624882 ]
  - [  -0.0039914627559483,  0.0037246302235872,  0.0204323250800371 ]
  - [   0.0122102778404951, -0.0075002983212471,  0.0087841674685478 ]
  - [  -0.0037680969107896,  0.0038716278504580,  0.0201484560966492 ]
  - [  -0.0152185745537281,  0.0052745710127056,  0.0122063439339399 ]
  - [  -0.0146178398281336,  0.0058873416855931,  0.0128072565421462 ]
  - [  -0.0151679934933782,  0.0052350047044456,  0.0133829526603222 ]
  - [  -0.0146175790578127,  0.0058873658999801,  0.0127376206219196 ]
  - [  -0.0151694091036916,  0.0064523816108704,  0.0121536729857326 ]
  - [  -0.0146242910996079,  0.0058192517608404,  0.0128097645938396 ]
  - [  -0.0152093805372715,  0.0064317239448428,  0.0133564053103328 ]
  - [  -0.0146208209916949,  0.0058097192086279,  0.0127299670130014 ]
  - [   0.0339379049837589,  0.0052291750907898,  0.0003166782553308 ]
  - [   0.0178311355412006, -0.0061837877146900, -0.0111090457066894 ]
  - [   0.0169439129531384, -0.0061847073957324, -0.0106778172776103 ]
  - [   0.0176580101251602, -0.0060248710215092, -0.0114126317203045 ]
  - [   0.0169536881148815, -0.0057573197409511, -0.0110962949693203 ]
  - [   0.0176602713763714, -0.0064962939359248, -0.0109471604228020 ]
  - [   0.0177344903349876, -0.0064933053217828, -0.0114095136523247 ]
  - [   0.0174513943493366, -0.0062399706803262, -0.0111522516235709 ]
  - [   0.0058108861558139,  0.0099240513518453,  0.0102787762880325 ]
  - [   0.0065174484625459,  0.0106615852564573,  0.0104338824748993 ]
  - [   0.0065845474600792,  0.0106549151241779,  0.0099974414333701 ]
  - [   0.0063164043240249,  0.0104162544012070,  0.0102402102202177 ]
  - [   0.0227894745767117, -0.0010052756406367,  0.0216955021023750 ]
  - [   0.0067019527778029,  0.0103692431002855,  0.0102844666689634 ]
  - [   0.0057969819754362,  0.0103850839659572,  0.0107475016266108 ]
  - [   0.0065019261091948,  0.0102297365665436,  0.0099971145391464 ]
- atom:    1
  displacement:
    [  -0.0100000000000000,  0.0000000000000000,  0.0000000000000000 ]
  forces:
  - [   0.0560267642140388, -0.0180197954177856, -0.0030687893740833 ]
  - [  -0.0058747730217874, -0.0179757364094257, -0.0031625723931938 ]
  - [  -0.0060943514108658, -0.0179707631468773, -0.0031622080132365 ]
  - [  -0.0059603755362332, -0.0179692115634680, -0.0031605358235538 ]
  - [  -0.0061028650961816, -0.0179717801511288, -0.0031628394499421 ]
  - [  -0.0059628752060235, -0.0179701186716557, -0.0031603826209903 ]
  - [  -0.0060479277744889, -0.0179686006158590, -0.0031579725909978 ]
  - [  -0.0060435920022428, -0.0179674793034792, -0.0031593621242791 ]
  - [   0.0110811404883862,  0.0182620696723461,  0.0027663069777191 ]
  - [   0.0103683136403561,  0.0181079395115376,  0.0020236945711076 ]
  - [  -0.0059215705841780,  0.0068491310812533,  0.0137419253587723 ]
  - [   0.0101750716567039,  0.0182603150606155,  0.0023219643626362 ]
  - [   0.0102972183376551,  0.0185529589653015,  0.0020300808828324 ]
  - [   0.0105673810467124,  0.0183095671236515,  0.0022755335085094 ]
  - [   0.0110849142074585,  0.0178147219121456,  0.0023206626065075 ]
  - [   0.0103805754333735,  0.0185530818998814,  0.0024623058270663 ]
  - [  -0.0077423928305507, -0.0081051345914602, -0.0157653316855431 ]
  - [  -0.0078033581376076, -0.0086085107177496, -0.0157782565802336 ]
  - [  -0.0077645811252296, -0.0086409188807011, -0.0145567823201418 ]
  - [  -0.0077663394622505, -0.0081222597509623, -0.0145857688039541 ]
  - [  -0.0079062106087804, -0.0083512086421251, -0.0151261948049068 ]
  - [  -0.0079025793820620, -0.0084234401583672, -0.0151343271136284 ]
  - [  -0.0079048248007894, -0.0084279142320156, -0.0152014642953873 ]
  - [  -0.0079038850963116, -0.0083567760884762, -0.0152013842016459 ]
  - [  -0.0014612639788538, -0.0064856158569455, -0.0156676620244980 ]
  - [  -0.0015266516711563, -0.0064950557425618, -0.0162071660161018 ]
  - [  -0.0016373223625124, -0.0058632488362491, -0.0159465856850147 ]
  - [  -0.0016390036325902, -0.0058645233511925, -0.0160113815218210 ]
  - [  -0.0015048910863698, -0.0052962261252105, -0.0162318870425224 ]
  - [  -0.0014997180551291, -0.0053072134032845, -0.0157424714416265 ]
  - [  -0.0016384399496019, -0.0059358198195696, -0.0160232093185186 ]
  - [  -0.0016470187110826, -0.0059353513643146, -0.0159548297524452 ]
  - [  -0.0044862441718578,  0.0036688838154078,  0.0199343189597130 ]
  - [  -0.0042140567675233,  0.0039188964292407,  0.0201805643737316 ]
  - [  -0.0036881123669446,  0.0044138310477138,  0.0202306453138590 ]
  - [  -0.0044019436463714,  0.0036786075215787,  0.0203690975904465 ]
  - [  -0.0036939640995115,  0.0039766994304955,  0.0206822901964188 ]
  - [  -0.0043929973617196,  0.0041033150628209,  0.0199480764567852 ]
  - [  -0.0205317884683609,  0.0152660282328725,  0.0315051823854446 ]
  - [  -0.0046212421730161,  0.0039661508053541,  0.0202411822974682 ]
  - [  -0.0139114093035460,  0.0064601274207234,  0.0133847929537296 ]
  - [  -0.0144641790539026,  0.0058163506910205,  0.0127400858327746 ]
  - [  -0.0138932382687926,  0.0064400043338537,  0.0121904518455267 ]
  - [  -0.0144621878862381,  0.0058141201734543,  0.0128069957718253 ]
  - [  -0.0138940438628197,  0.0052620684728026,  0.0133596276864409 ]
  - [  -0.0144701674580574,  0.0058891894295812,  0.0127372238785028 ]
  - [  -0.0139070544391870,  0.0052502062171698,  0.0121724093332887 ]
  - [  -0.0144641613587737,  0.0058852457441390,  0.0128067815676332 ]
  - [   0.0010401649633422, -0.0176508743315935, -0.0225645452737808 ]
  - [   0.0170462355017662, -0.0062889126129448, -0.0112062767148018 ]
  - [   0.0179344154894352, -0.0062883328646421, -0.0116533227264881 ]
  - [   0.0172202661633492, -0.0064365565776825, -0.0109065454453230 ]
  - [   0.0179360657930374, -0.0067225052043796, -0.0112044382840395 ]
  - [   0.0172302611172199, -0.0059944661334157, -0.0113537386059761 ]
  - [   0.0171616971492767, -0.0059917988255620, -0.0109088793396950 ]
  - [   0.0174294281750917, -0.0062410850077868, -0.0111530758440495 ]
  - [   0.0068002683110535,  0.0109129250049591,  0.0101910755038261 ]
  - [   0.0060931993648410,  0.0101624894887209,  0.0100333038717508 ]
  - [   0.0060237888246775,  0.0101774446666241,  0.0104774516075850 ]
  - [   0.0062940176576376,  0.0104175489395857,  0.0102404858916998 ]
  - [  -0.0102587901055813,  0.0219205524772406, -0.0013019037432969 ]
  - [   0.0058993715792894,  0.0104707069694996,  0.0101899821311235 ]
  - [   0.0068176449276507,  0.0104610128328204,  0.0097399130463600 ]
  - [   0.0061041787266731,  0.0106050316244364,  0.0104776788502932 ]
- atom:    1
  displacement:
    [   0.0000156668324891,  0.0099999877275105,  0.0000000000000000 ]
  forces:
  - [  -0.0060694366693497, -0.0799699053168297, -0.0030974247492850 ]
  - [  -0.0060305367223918, -0.0179083570837975, -0.0031608706340194 ]
  - [  -0.0060311229899526, -0.0181314833462238, -0.0031596329063177 ]
  - [  -0.0060417498461902, -0.0180492717772722, -0.0031604170799255 ]
  - [  -0.0060384259559214, -0.0179082825779915, -0.0031627146527171 ]
  - [  -0.0060399817302823, -0.0179610513150692, -0.0031635619234294 ]
  - [  -0.0060398112982512, -0.0180465970188379, -0.0031631211750209 ]
  - [  -0.0060392720624804, -0.0179632995277643, -0.0031602908857167 ]
  - [   0.0106320865452290,  0.0187121443450451,  0.0022193412296474 ]
  - [   0.0107810022309422,  0.0185193084180355,  0.0025172932073474 ]
  - [   0.0219824332743883,  0.0346904508769512, -0.0091078681871295 ]
  - [   0.0106249377131462,  0.0178080126643181,  0.0017772772116587 ]
  - [   0.0103414449840784,  0.0185076147317886,  0.0020870573353022 ]
  - [   0.0105798114091158,  0.0183208100497723,  0.0022745653986931 ]
  - [   0.0110852224752307,  0.0177919380366802,  0.0022305634338409 ]
  - [   0.0103418007493019,  0.0185933243483305,  0.0025136624462903 ]
  - [  -0.0081370770931244, -0.0085113467648625, -0.0145765161141753 ]
  - [  -0.0076962225139141, -0.0084923133254051, -0.0157788433134556 ]
  - [  -0.0076409638859332, -0.0085310507565737, -0.0145566957071424 ]
  - [  -0.0082333320751786, -0.0085812509059906, -0.0157640893012285 ]
  - [  -0.0079404721036553, -0.0083859097212553, -0.0152036640793085 ]
  - [  -0.0078694783151150, -0.0083886571228504, -0.0151348272338510 ]
  - [  -0.0078691355884075, -0.0083929821848869, -0.0152018032968044 ]
  - [  -0.0079381726682186, -0.0083924448117614, -0.0151335224509239 ]
  - [  -0.0022163162939250, -0.0065563321113586, -0.0165557824075222 ]
  - [  -0.0022557587362826, -0.0065190484747291, -0.0153593961149454 ]
  - [  -0.0016020628390834, -0.0059803612530231, -0.0159446392208338 ]
  - [  -0.0016012005507946, -0.0059778010472655, -0.0160119980573654 ]
  - [  -0.0010130638256669, -0.0065170396119356, -0.0166114158928394 ]
  - [  -0.0010508035775274, -0.0065576741471887, -0.0154118295758963 ]
  - [  -0.0016728007467464, -0.0059770969673991, -0.0159524492919445 ]
  - [  -0.0016863219207153, -0.0059806909412146, -0.0160278063267469 ]
  - [  -0.0039499984122813,  0.0041292402893305,  0.0203815847635269 ]
  - [  -0.0042021423578262,  0.0039287460967898,  0.0201828330755234 ]
  - [  -0.0046953936107457,  0.0034281648695469,  0.0202284418046474 ]
  - [  -0.0039665456861258,  0.0041999421082437,  0.0199430063366890 ]
  - [  -0.0042541977018118,  0.0043229819275439,  0.0202355459332466 ]
  - [  -0.0043805562891066,  0.0041140727698803,  0.0199473723769188 ]
  - [  -0.0155360028147697,  0.0203465074300766,  0.0315792188048363 ]
  - [  -0.0042436895892024,  0.0033981497399509,  0.0207072310149670 ]
  - [  -0.0139742325991392,  0.0057212244719267,  0.0125346276909113 ]
  - [  -0.0145785203203559,  0.0058507248759270,  0.0127397971227765 ]
  - [  -0.0139455925673246,  0.0056976769119501,  0.0130366683006287 ]
  - [  -0.0145762022584677,  0.0058506401255727,  0.0128095988184214 ]
  - [  -0.0151433730497956,  0.0057415799237788,  0.0129918931052089 ]
  - [  -0.0145101333037019,  0.0058537358418107,  0.0128071568906307 ]
  - [  -0.0151271140202880,  0.0056276321411133,  0.0124220345169306 ]
  - [  -0.0145075162872672,  0.0058478135615587,  0.0127332741394639 ]
  - [   0.0289228707551956,  0.0102329170331359,  0.0003091572434641 ]
  - [   0.0174838993698359, -0.0067271194420755, -0.0106776747852564 ]
  - [   0.0174852944910526, -0.0058379466645420, -0.0111107919365168 ]
  - [   0.0176456309854984, -0.0060130194760859, -0.0114126475527883 ]
  - [   0.0179196037352085, -0.0067284284159541, -0.0110982991755009 ]
  - [   0.0171922743320465, -0.0059558767825365, -0.0114039070904255 ]
  - [   0.0171883367002010, -0.0060185948386788, -0.0109477806836367 ]
  - [   0.0174405649304390, -0.0062289768829942, -0.0111522581428289 ]
  - [   0.0058231884613633,  0.0099126668646932,  0.0101802144199610 ]
  - [   0.0065568033605814,  0.0107000470161438,  0.0104837408289313 ]
  - [   0.0065473346039653,  0.0106192771345377,  0.0100456774234772 ]
  - [   0.0063057742081583,  0.0104297846555710,  0.0102391466498375 ]
  - [  -0.0051611526869237,  0.0269076991826296, -0.0012187303509563 ]
  - [   0.0062462352216244,  0.0099155595526099,  0.0097510423511267 ]
  - [   0.0062640830874443,  0.0108530586585402,  0.0101957991719246 ]
  - [   0.0061152437701821,  0.0106167569756508,  0.0104784537106752 ]
- atom:    1
  displacement:
    [  -0.0000156668324891, -0.0099999877275105,  0.0000000000000000 ]
  forces:
  - [  -0.0059949494898319,  0.0440651476383209, -0.0032154987566173 ]
  - [  -0.0060352175496519, -0.0180366821587086, -0.0031616976484656 ]
  - [  -0.0060291793197393, -0.0178118664771318, -0.0031635384075344 ]
  - [  -0.0060351239517331, -0.0178950279951096, -0.0031597814522684 ]
  - [  -0.0060391612350941, -0.0180369541049004, -0.0031635770574212 ]
  - [  -0.0060391197912395, -0.0179790649563074, -0.0031629065051675 ]
  - [  -0.0060389675199986, -0.0178905948996544, -0.0031535793095827 ]
  - [  -0.0060388669371605, -0.0179733112454414, -0.0031601020600647 ]
  - [   0.0105368467047811,  0.0178941860795021,  0.0023227259516716 ]
  - [   0.0103810969740152,  0.0180961005389690,  0.0020235020201653 ]
  - [  -0.0008992308285087,  0.0018369997851551,  0.0137332994490862 ]
  - [   0.0105421328917146,  0.0188000202178955,  0.0027584726922214 ]
  - [   0.0108245164155960,  0.0181089155375957,  0.0024638180620968 ]
  - [   0.0105785503983498,  0.0182979498058558,  0.0022741355933249 ]
  - [   0.0100783407688141,  0.0188306607306004,  0.0023263541515917 ]
  - [   0.0108194351196289,  0.0180272459983826,  0.0020348548423499 ]
  - [  -0.0076263868249953, -0.0082322154194117, -0.0157594047486782 ]
  - [  -0.0081665003672242, -0.0082408115267754, -0.0145662259310484 ]
  - [  -0.0081381741911173, -0.0082787442952394, -0.0157727412879467 ]
  - [  -0.0076453154906631, -0.0082388147711754, -0.0145822409540415 ]
  - [  -0.0078723514452577, -0.0083856880664825, -0.0151264332234859 ]
  - [  -0.0079363603144884, -0.0083890929818153, -0.0152052752673626 ]
  - [  -0.0079401824623346, -0.0083932178094983, -0.0151297673583031 ]
  - [  -0.0078698322176933, -0.0083918515592813, -0.0152029879391193 ]
  - [  -0.0010515511967242, -0.0052582565695047, -0.0153821315616369 ]
  - [  -0.0010449375258759, -0.0052587622776628, -0.0165757462382317 ]
  - [  -0.0016713256482035, -0.0058235307224095, -0.0160148367285728 ]
  - [  -0.0016768301138654, -0.0058210869319737, -0.0159398876130581 ]
  - [  -0.0022457139566541, -0.0052621746435761, -0.0153844747692347 ]
  - [  -0.0022507798857987, -0.0052713472396135, -0.0165979657322168 ]
  - [  -0.0016036288579926, -0.0058209737762809, -0.0160241723060608 ]
  - [  -0.0016101633664221, -0.0058240978978574, -0.0159536413848400 ]
  - [  -0.0044519267976284,  0.0037006838247180,  0.0199789125472307 ]
  - [  -0.0042023076675832,  0.0039077890105546,  0.0201804749667645 ]
  - [  -0.0037138178013265,  0.0044117541983724,  0.0201339870691299 ]
  - [  -0.0044436934404075,  0.0036367489956319,  0.0204227156937122 ]
  - [  -0.0041523440741003,  0.0035220568533987,  0.0201459135860205 ]
  - [  -0.0040031224489212,  0.0037138082552701,  0.0204328410327435 ]
  - [   0.0072159683331847, -0.0125939212739468,  0.0087059466168284 ]
  - [  -0.0041522863321006,  0.0044325417838991,  0.0196889750659466 ]
  - [  -0.0151333045214415,  0.0060330647975206,  0.0130836544558406 ]
  - [  -0.0145031623542309,  0.0058518396690488,  0.0128069762140512 ]
  - [  -0.0151395015418530,  0.0059679546393454,  0.0125526376068592 ]
  - [  -0.0145059516653419,  0.0058516468852758,  0.0127372136339545 ]
  - [  -0.0139448577538133,  0.0059811626560986,  0.0125075243413448 ]
  - [  -0.0145844491198659,  0.0058525577187538,  0.0127408038824797 ]
  - [  -0.0139648402109742,  0.0060233594849706,  0.0130698904395103 ]