phonopy:
  version: "2.37.1"
  frequency_unit_conversion_factor: 15.633302
  symmetry_tolerance: 1.00000e-05

space_group:
  type: "Immm"
  number: 71
  Hall_symbol: "-I 2 2"

primitive_matrix:
- [ -1.000000000000000, -0.000000000000000, -0.000000000000000 ]
- [ -1.000000000000000,  0.000000000000000,  1.000000000000000 ]
- [ -1.000000000000000,  1.000000000000000,  0.000000000000000 ]

supercell_matrix:
- [   2,   0,   0 ]
- [   0,   2,   0 ]
- [   0,   0,   2 ]

primitive_cell:
  lattice:
  - [    -4.587229491426530,    -1.778596606836963,    -2.690095260816091 ] # a
  - [    -3.851378246170932,    -3.061531491766726,     2.690095260816091 ] # b
  - [     2.831228768497468,     4.840128098603689,     0.000000000000000 ] # c
  points:
  - symbol: Li # 1
    coordinates: [  0.000000005147817,  0.999999989601298,  0.999999982712618 ]
    mass: 6.940000
  - symbol: Sn # 2
    coordinates: [  0.336227047338459,  0.336227058631830,  0.000000015570566 ]
    mass: 118.710000
  - symbol: Sn # 3
    coordinates: [  0.663772947452701,  0.663772951712349,  0.000000001678389 ]
    mass: 118.710000
  reciprocal_lattice: # without 2pi
  - [    -0.178336439450695,     0.104317746877376,    -0.136600744790454 ] # a*
  - [    -0.178336439450695,     0.104317746877376,     0.235133302908894 ] # b*
  - [    -0.178336439450695,     0.310923848953163,     0.098532596808870 ] # c*

unit_cell:
  lattice:
  - [     5.607378969099994,     0.000000000000000,     0.000000000000000 ] # a
  - [     2.831228768497469,     4.840128098603689,     0.000000000000000 ] # b
  - [    -3.851378246170931,    -3.061531491766726,     2.690095260816091 ] # c
  points:
  - symbol: Li # 1
    coordinates: [  0.999999994852183,  0.999999977564801,  0.999999984453481 ]
    mass: 6.940000
    reduced_to: 1
  - symbol: Sn # 2
    coordinates: [  0.663772952661541,  0.663772968232107,  0.000000011293371 ]
    mass: 118.710000
    reduced_to: 2
  - symbol: Sn # 3
    coordinates: [  0.336227052547299,  0.336227054225687,  0.000000004259648 ]
    mass: 118.710000
    reduced_to: 3

supercell:
  lattice:
  - [    11.214757938199988,     0.000000000000000,     0.000000000000000 ] # a
  - [     5.662457536994937,     9.680256197207378,     0.000000000000000 ] # b
  - [    -7.702756492341862,    -6.123062983533451,     5.380190521632182 ] # c
  points:
  - symbol: Li # 1
    coordinates: [  0.499999997426091,  0.499999988782400,  0.499999992226741 ]
    mass: 6.940000
    reduced_to: 1
  - symbol: Li # 2
    coordinates: [  0.999999997426091,  0.499999988782400,  0.499999992226741 ]
    mass: 6.940000
    reduced_to: 1
  - symbol: Li # 3
    coordinates: [  0.499999997426091,  0.999999988782400,  0.499999992226741 ]
    mass: 6.940000
    reduced_to: 1
  - symbol: Li # 4
    coordinates: [  0.999999997426091,  0.999999988782400,  0.499999992226741 ]
    mass: 6.940000
    reduced_to: 1
  - symbol: Li # 5
    coordinates: [  0.499999997426091,  0.499999988782400,  0.999999992226741 ]
    mass: 6.940000
    reduced_to: 1
  - symbol: Li # 6
    coordinates: [  0.999999997426091,  0.499999988782400,  0.999999992226741 ]
    mass: 6.940000
    reduced_to: 1
  - symbol: Li # 7
    coordinates: [  0.499999997426091,  0.999999988782400,  0.999999992226741 ]
    mass: 6.940000
    reduced_to: 1
  - symbol: Li # 8
    coordinates: [  0.999999997426091,  0.999999988782400,  0.999999992226741 ]
    mass: 6.940000
    reduced_to: 1
  - symbol: Sn # 9
    coordinates: [  0.331886476330771,  0.331886484116054,  0.000000005646686 ]
    mass: 118.710000
    reduced_to: 9
  - symbol: Sn # 10
    coordinates: [  0.831886476330771,  0.331886484116054,  0.000000005646686 ]
    mass: 118.710000
    reduced_to: 9
  - symbol: Sn # 11
    coordinates: [  0.331886476330771,  0.831886484116054,  0.000000005646686 ]
    mass: 118.710000
    reduced_to: 9
  - symbol: Sn # 12
    coordinates: [  0.831886476330771,  0.831886484116054,  0.000000005646686 ]
    mass: 118.710000
    reduced_to: 9
  - symbol: Sn # 13
    coordinates: [  0.331886476330771,  0.331886484116054,  0.500000005646686 ]
    mass: 118.710000
    reduced_to: 9
  - symbol: Sn # 14
    coordinates: [  0.831886476330771,  0.331886484116054,  0.500000005646686 ]
    mass: 118.710000
    reduced_to: 9
  - symbol: Sn # 15
    coordinates: [  0.331886476330771,  0.831886484116054,  0.500000005646686 ]
    mass: 118.710000
    reduced_to: 9
  - symbol: Sn # 16
    coordinates: [  0.831886476330771,  0.831886484116054,  0.500000005646686 ]
    mass: 118.710000
    reduced_to: 9
  - symbol: Sn # 17
    coordinates: [  0.168113526273649,  0.168113527112844,  0.000000002129824 ]
    mass: 118.710000
    reduced_to: 17
  - symbol: Sn # 18
    coordinates: [  0.668113526273649,  0.168113527112844,  0.000000002129824 ]
    mass: 118.710000
    reduced_to: 17
  - symbol: Sn # 19
    coordinates: [  0.168113526273649,  0.668113527112844,  0.000000002129824 ]
    mass: 118.710000
    reduced_to: 17
  - symbol: Sn # 20
    coordinates: [  0.668113526273649,  0.668113527112844,  0.000000002129824 ]
    mass: 118.710000
    reduced_to: 17
  - symbol: Sn # 21
    coordinates: [  0.168113526273649,  0.168113527112844,  0.500000002129824 ]
    mass: 118.710000
    reduced_to: 17
  - symbol: Sn # 22
    coordinates: [  0.668113526273649,  0.168113527112844,  0.500000002129824 ]
    mass: 118.710000
    reduced_to: 17
  - symbol: Sn # 23
    coordinates: [  0.168113526273649,  0.668113527112844,  0.500000002129824 ]
    mass: 118.710000
    reduced_to: 17
  - symbol: Sn # 24
    coordinates: [  0.668113526273649,  0.668113527112844,  0.500000002129824 ]
    mass: 118.710000
    reduced_to: 17

displacements:
- atom:    1
  displacement:
    [   0.0100000000000000,  0.0000000000000000,  0.0000000000000000 ]
  forces:
  - [  -0.0142693230882287,  0.0000189649872482, -0.0008204748737626 ]
  - [   0.0003382216673344, -0.0000334214855684, -0.0001082764938474 ]
  - [   0.0000864466419443,  0.0001132071483880,  0.0000870339572430 ]
  - [   0.0000482826144435, -0.0003913491964340,  0.0001119188964367 ]
  - [   0.0002344835083932,  0.0000724855781300, -0.0001369954552501 ]
  - [  -0.0000990449916571, -0.0000180751085281,  0.0001579710224178 ]
  - [   0.0005204740446061,  0.0000191784347408, -0.0005961371934973 ]
  - [   0.0001145890273619,  0.0001430849079043,  0.0001587907172507 ]
  - [  -0.0103030446916819, -0.0057073589414358, -0.0010961897205561 ]
  - [  -0.0106022469699383, -0.0060288002714515, -0.0000375499294023 ]
  - [  -0.0102034006267786, -0.0059503512457013, -0.0000451078012702 ]
  - [  -0.0093777682632208, -0.0059122033417225,  0.0020612543448806 ]
  - [  -0.0084612239152193, -0.0046467045322061, -0.0000518270244356 ]
  - [  -0.0074463523924351, -0.0078803608193994, -0.0002348713169340 ]
  - [  -0.0108539778739214, -0.0061016138643026, -0.0000134008005261 ]
  - [  -0.0101494006812572, -0.0059492038562894,  0.0000036177298171 ]
  - [   0.0116013297811151,  0.0061247907578945,  0.0020135806407779 ]
  - [   0.0107578486204147,  0.0060823932290077, -0.0000332051422447 ]
  - [   0.0103766154497862,  0.0060038557276130, -0.0000393064692616 ]
  - [   0.0106928162276745,  0.0063266567885876, -0.0010867627570406 ]
  - [   0.0108336377888918,  0.0060873385518789,  0.0000039546284825 ]
  - [   0.0101309996098280,  0.0059471167623997, -0.0000133565627038 ]
  - [   0.0134417954832315,  0.0042347777634859, -0.0002313552540727 ]
  - [   0.0125881899148226,  0.0074456268921494, -0.0000533048296347 ]
- atom:    9
  displacement:
    [   0.0100000000000000,  0.0000000000000000,  0.0000000000000000 ]
  forces:
  - [   0.0002025719732046,  0.0006415254902095, -0.0014393029268831 ]
  - [  -0.0001150495372713, -0.0000122091878438, -0.0000412554945797 ]
  - [   0.0002638254081830,  0.0000624412205070, -0.0000306330621243 ]
  - [   0.0011050961911678, -0.0002265151124448,  0.0019033413846046 ]
  - [   0.0021025263704360,  0.0014283091295511, -0.0000534453429282 ]
  - [   0.0029415700118989, -0.0019996259361506,  0.0002400228695478 ]
  - [  -0.0003621562209446,  0.0001567340514157, -0.0000317926824209 ]
  - [   0.0003408174670767,  0.0000745945144445,  0.0000022742897272 ]
  - [  -0.0318261124193668, -0.0073596844449639, -0.0014224067563191 ]
  - [  -0.0105783287435770, -0.0060581918805838, -0.0000605134628131 ]
  - [  -0.0107191596180201, -0.0059680314734578,  0.0000484524716740 ]
  - [  -0.0106698889285326, -0.0062836837023497,  0.0000636728218524 ]
  - [  -0.0105712823569775, -0.0061072558164597, -0.0001170023460872 ]
  - [  -0.0097728110849857, -0.0067373756319284,  0.0008125808672048 ]
  - [  -0.0101126190274954, -0.0069429054856300, -0.0021514818072319 ]
  - [  -0.0106378905475140, -0.0060703288763762,  0.0000566914168303 ]
  - [   0.0165165755897760,  0.0093302465975285,  0.0001245310995728 ]
  - [   0.0162744130939245,  0.0031249336898327,  0.0000734417699277 ]
  - [   0.0105652865022421,  0.0064666187390685,  0.0002856401260942 ]
  - [   0.0094429999589920,  0.0058867726475000, -0.0000933591363719 ]
  - [   0.0113963596522808,  0.0075217578560114, -0.0018373470520601 ]
  - [   0.0105306580662727,  0.0060311648994684, -0.0000395304523408 ]
  - [   0.0109853241592646,  0.0062658619135618,  0.0000050873677537 ]
  - [   0.0126973185688257,  0.0067748511210084,  0.0037023266777396 ]
- atom:    9
  displacement:
    [  -0.0100000000000000,  0.0000000000000000,  0.0000000000000000 ]
  forces:
  - [  -0.0001886876998469, -0.0006420921999961,  0.0014391436707228 ]
  - [   0.0001106592826545,  0.0000125853694044,  0.0000358745455742 ]
  - [  -0.0002903074491769, -0.0000691607128829,  0.0000475014094263 ]
  - [  -0.0011180075816810,  0.0002264755312353, -0.0019499592017382 ]
  - [  -0.0020248591899872, -0.0013723493320867,  0.0000512341503054 ]
  - [  -0.0030529010109603,  0.0020859104115516, -0.0002457458467688 ]
  - [   0.0003606273967307, -0.0001279266725760,  0.0000297285296256 ]
  - [  -0.0003451672382653, -0.0000636691693217, -0.0000049319060054 ]
  - [   0.0109181990846992, -0.0045557562261820,  0.0013929941924289 ]
  - [  -0.0104038640856743, -0.0059844525530934,  0.0000586749010836 ]
  - [  -0.0102574713528156, -0.0060613518580794, -0.0000472321189591 ]
  - [  -0.0103177130222321, -0.0057481704279780, -0.0000648677741992 ]
  - [  -0.0104067139327526, -0.0059251347556710,  0.0001111575693358 ]
  - [  -0.0112023577094078, -0.0052967946976423, -0.0008139238343574 ]
  - [  -0.0108631905168295, -0.0050971331074834,  0.0021287817507982 ]
  - [  -0.0103433094918728, -0.0059639578685164, -0.0000497596265632 ]
  - [   0.0041984058916569,  0.0025296323001385, -0.0001277022529393 ]
  - [   0.0049423053860664,  0.0087664537131786, -0.0000745716970414 ]
  - [   0.0104113109409809,  0.0055681718513370, -0.0002822645474225 ]
  - [   0.0115378610789776,  0.0061388341709971,  0.0000957843294600 ]
  - [   0.0095817241817713,  0.0045285308733582,  0.0018126382492483 ]
  - [   0.0104542840272188,  0.0060071153566241,  0.0000400012359023 ]
  - [   0.0099755413830280,  0.0057656886056066,  0.0000074644995038 ]
  - [   0.0083236135542393,  0.0052785594016314, -0.0035900291986763 ]

force_constants:
  format: "full"
  shape: [ 24, 24 ]
  elements:
  - # (1, 1)
    - [     1.426940309646433,    -0.001898226857239,     0.082048312724759 ]
    - [    -0.001898226857239,     1.429161079901225,    -0.143048557064608 ]
    - [     0.082048312724759,    -0.143048557064608,     1.339584894331545 ]
  - # (1, 2)
    - [    -0.033865906964073,     0.003353187601609,     0.010789571876149 ]
    - [     0.003353189172758,    -0.003972984860474,     0.003744245792395 ]
    - [     0.010789567239405,     0.003744243663548,     0.001363804908770 ]
  - # (1, 3)
    - [    -0.008670940872330,    -0.011384583301605,    -0.008679701283201 ]
    - [    -0.011384582925508,    -0.029167950208063,    -0.007422740036843 ]
    - [    -0.008679705352780,    -0.007422744404499,     0.001363798568071 ]
  - # (1, 4)
    - [    -0.004820269665373,     0.039133173592431,    -0.011191069486371 ]
    - [     0.039133173592431,    -0.050602102461070,     0.019511297962735 ]
    - [    -0.011191069486371,     0.019511297962735,    -0.060681336391139 ]
  - # (1, 5)
    - [    -0.023403735777519,    -0.007245255949365,     0.013706311436534 ]
    - [    -0.007245255781571,     0.001181453247300,     0.010366143216038 ]
    - [     0.013706308635781,     0.010366141787754,    -0.014252803898012 ]
  - # (1, 6)
    - [     0.009912496337362,     0.001805763179339,    -0.015796291480375 ]
    - [     0.001805763179339,     0.007799932379427,     0.027540336701788 ]
    - [    -0.015796291480375,     0.027540336701788,     0.024219414862953 ]
  - # (1, 7)
    - [    -0.052039408681587,    -0.001919577739490,     0.059614542938365 ]
    - [    -0.001919577739490,    -0.049793669898396,    -0.103936007480173 ]
    - [     0.059614542938365,    -0.103936007480173,    -0.114567863629996 ]
  - # (1, 8)
    - [    -0.011401504124887,    -0.014265948076473,    -0.015868227856215 ]
    - [    -0.014265947845366,    -0.010820775853845,    -0.006596914135033 ]
    - [    -0.015868231939701,    -0.006596916875757,    -0.014252813519645 ]
  - # (1, 9)
    - [    -0.019537765603059,    -0.030952939114441,     0.109143525280958 ]
    - [    -0.064234606294924,    -0.086858138433574,     0.172196206157950 ]
    - [     0.143921554765531,     0.139028572470216,    -0.278125628516935 ]
  - # (1, 10)
    - [     0.011285518739846,     0.001243075558279,     0.003849874932167 ]
    - [     0.001243074236803,     0.009831250811833,    -0.006712113885143 ]
    - [     0.003849873337184,    -0.006712114582721,     0.004864085391918 ]
  - # (1, 11)
    - [    -0.027712507664669,    -0.006591498346812,     0.003911394385082 ]
    - [    -0.006591499665621,    -0.020001121531414,    -0.006819374484991 ]
    - [     0.003911392787845,    -0.006819375184697,    -0.020542595808288 ]
  - # (1, 12)
    - [    -0.111180856967828,    -0.010628022013232,    -0.203742621785131 ]
    - [     0.022653629631028,     0.004784991867506,    -0.007265752093385 ]
    - [    -0.192673070262506,    -0.054031836120614,    -0.278125732912623 ]
  - # (1, 13)
    - [    -0.206356783574779,    -0.139989930147617,     0.005245469812055 ]
    - [    -0.139989931457907,    -0.042582809460828,    -0.009145350180216 ]
    - [     0.005245468237412,    -0.009145350867471,     0.031914786678488 ]
  - # (1, 14)
    - [    -0.299721963631883,     0.182255581805041,     0.023309506109856 ]
    - [     0.204254228995316,    -0.075011605357986,    -0.015187724583160 ]
    - [    -0.024309448773930,     0.010614757369180,    -0.009787983153822 ]
  - # (1, 15)
    - [     0.036152366180449,     0.007784825654419,     0.001340381103242 ]
    - [    -0.014213801899721,    -0.410885951086028,    -0.027788590800692 ]
    - [     0.003111769137836,     0.026342653077136,    -0.009787984952450 ]
  - # (1, 16)
    - [    -0.034253527427089,    -0.006910359620241,    -0.000369254273051 ]
    - [    -0.006910360942650,    -0.026169107932559,     0.000643797391488 ]
    - [    -0.000369255868913,     0.000643796693577,    -0.021797494342561 ]
  - # (1, 17)
    - [    -0.111180856967828,    -0.010628022013232,    -0.203742621785131 ]
    - [     0.022653629631028,     0.004784991867506,    -0.007265752093385 ]
    - [    -0.192673070262506,    -0.054031836120614,    -0.278125732912623 ]
  - # (1, 18)
    - [    -0.027712507664669,    -0.006591498346812,     0.003911394385082 ]
    - [    -0.006591499665621,    -0.020001121531414,    -0.006819374484991 ]
    - [     0.003911392787845,    -0.006819375184697,    -0.020542595808288 ]
  - # (1, 19)
    - [     0.011285518739846,     0.001243075558279,     0.003849874932167 ]
    - [     0.001243074236803,     0.009831250811833,    -0.006712113885143 ]
    - [     0.003849873337184,    -0.006712114582721,     0.004864085391918 ]
  - # (1, 20)
    - [    -0.019537765603059,    -0.030952939114441,     0.109143525280958 ]
    - [    -0.064234606294924,    -0.086858138433574,     0.172196206157950 ]
    - [     0.143921554765530,     0.139028572470216,    -0.278125628516935 ]
  - # (1, 21)
    - [    -0.034253527427089,    -0.006910359620241,    -0.000369254273051 ]
    - [    -0.006910360942650,    -0.026169107932559,     0.000643797391488 ]
    - [    -0.000369255868914,     0.000643796693577,    -0.021797494342561 ]
  - # (1, 22)
    - [     0.036152366180449,     0.007784825654419,     0.001340381103242 ]
    - [    -0.014213801899721,    -0.410885951086028,    -0.027788590800692 ]
    - [     0.003111769137836,     0.026342653077136,    -0.009787984952450 ]
  - # (1, 23)
    - [    -0.299721963631883,     0.182255581805041,     0.023309506109856 ]
    - [     0.204254228995316,    -0.075011605357986,    -0.015187724583160 ]
    - [    -0.024309448773930,     0.010614757369180,    -0.009787983153822 ]
  - # (1, 24)
    - [    -0.206356783574779,    -0.139989930147617,     0.005245469812055 ]
    - [    -0.139989931457907,    -0.042582809460828,    -0.009145350180216 ]
    - [     0.005245468237412,    -0.009145350867471,     0.031914786678488 ]
  - # (2, 1)
    - [    -0.033865906964073,     0.003353189172758,     0.010789567239405 ]
    - [     0.003353187601609,    -0.003972984860474,     0.003744243663548 ]
    - [     0.010789571876149,     0.003744245792395,     0.001363804908770 ]
  - # (2, 2)
    - [     1.426940056858164,    -0.001898075912844,     0.082048625487946 ]
    - [    -0.001898075912844,     1.429161279586758,    -0.143048391576668 ]
    - [     0.082048625487946,    -0.143048391576668,     1.339584928262022 ]
  - # (2, 3)
    - [    -0.004820267544083,     0.039133179016538,    -0.011191082944887 ]
    - [     0.039133162746725,    -0.050602099456731,     0.019511291776188 ]
    - [    -0.011191088220334,     0.019511288750355,    -0.060681340047769 ]
  - # (2, 4)
    - [    -0.008670940130631,    -0.011384592682599,    -0.008679710136093 ]
    - [    -0.011384594778006,    -0.029167972094565,    -0.007422750534536 ]
    - [    -0.008679706170638,    -0.007422746803306,     0.001363792001291 ]
  - # (2, 5)
    - [     0.009912493613028,     0.001805761012996,    -0.015796304671033 ]
    - [     0.001805758498171,     0.007799927843593,     0.027540326394508 ]
    - [    -0.015796302532323,     0.027540326518308,     0.024219409316393 ]
  - # (2, 6)
    - [    -0.023403734793532,    -0.007245260820816,     0.013706311651947 ]
    - [    -0.007245260181302,     0.001181447321203,     0.010366145487414 ]
    - [     0.013706313809169,     0.010366148181496,    -0.014252806307656 ]
  - # (2, 7)
    - [    -0.011401504380604,    -0.014265955590823,    -0.015868240137947 ]
    - [    -0.014265955297524,    -0.010820786535708,    -0.006596926010218 ]
    - [    -0.015868236733911,    -0.006596924588415,    -0.014252820502392 ]
  - # (2, 8)
    - [    -0.052039394302755,    -0.001919580713643,     0.059614528073379 ]
    - [    -0.001919599517237,    -0.049793688072503,    -0.103936015437894 ]
    - [     0.059614504742213,    -0.103936024345143,    -0.114567867669439 ]
  - # (2, 9)
    - [     0.011285519930025,     0.001243073290392,     0.003849868647754 ]
    - [     0.001243070623728,     0.009831245336723,    -0.006712113792030 ]
    - [     0.003849864454265,    -0.006712116109555,     0.004864083178923 ]
  - # (2, 10)
    - [    -0.019537750190659,    -0.030952940440246,     0.109143511442200 ]
    - [    -0.064234593878739,    -0.086858147532753,     0.172196183372159 ]
    - [     0.143921507334335,     0.139028566018966,    -0.278125610207326 ]
  - # (2, 11)
    - [    -0.111180844634429,    -0.010628034678354,    -0.203742594224338 ]
    - [     0.022653639733619,     0.004784993651067,    -0.007265710497362 ]
    - [    -0.192673067990853,    -0.054031862213798,    -0.278125731843131 ]
  - # (2, 12)
    - [    -0.027712501053882,    -0.006591510207440,     0.003911360195628 ]
    - [    -0.006591508100688,    -0.020001136507139,    -0.006819398348143 ]
    - [     0.003911362752667,    -0.006819396789221,    -0.020542602207091 ]
  - # (2, 13)
    - [    -0.299721896472424,     0.182255559372856,     0.023309473932062 ]
    - [     0.204254196353817,    -0.075011622703601,    -0.015187710674462 ]
    - [    -0.024309441708976,     0.010614746236280,    -0.009787992577291 ]
  - # (2, 14)
    - [    -0.206356777830725,    -0.139989958801545,     0.005245423966995 ]
    - [    -0.139989908278896,    -0.042582809576796,    -0.009145375534043 ]
    - [     0.005245447598560,    -0.009145362149755,     0.031914786941918 ]
  - # (2, 15)
    - [    -0.034253516606130,    -0.006910378464884,    -0.000369283903521 ]
    - [    -0.006910375624321,    -0.026169132548093,     0.000643779777532 ]
    - [    -0.000369281717208,     0.000643780859972,    -0.021797503522724 ]
  - # (2, 16)
    - [     0.036152365680468,     0.007784858188437,     0.001340392661861 ]
    - [    -0.014213832408316,    -0.410885951985194,    -0.027788616184823 ]
    - [     0.003111768148076,     0.026342683182602,    -0.009787979743889 ]
  - # (2, 17)
    - [    -0.027712501053882,    -0.006591510207440,     0.003911360195628 ]
    - [    -0.006591508100688,    -0.020001136507139,    -0.006819398348143 ]
    - [     0.003911362752666,    -0.006819396789221,    -0.020542602207091 ]
  - # (2, 18)
    - [    -0.111180844634429,    -0.010628034678354,    -0.203742594224338 ]
    - [     0.022653639733619,     0.004784993651067,    -0.007265710497362 ]
    - [    -0.192673067990853,    -0.054031862213798,    -0.278125731843131 ]
  - # (2, 19)
    - [    -0.019537750190659,    -0.030952940440246,     0.109143511442200 ]
    - [    -0.064234593878739,    -0.086858147532753,     0.172196183372159 ]
    - [     0.143921507334335,     0.139028566018965,    -0.278125610207326 ]
  - # (2, 20)
    - [     0.011285519930025,     0.001243073290392,     0.003849868647754 ]
    - [     0.001243070623728,     0.009831245336723,    -0.006712113792030 ]
    - [     0.003849864454264,    -0.006712116109555,     0.004864083178923 ]
  - # (2, 21)
    - [     0.036152365680468,     0.007784858188437,     0.001340392661861 ]
    - [    -0.014213832408316,    -0.410885951985194,    -0.027788616184823 ]
    - [     0.003111768148076,     0.026342683182602,    -0.009787979743889 ]
  - # (2, 22)
    - [    -0.034253516606130,    -0.006910378464884,    -0.000369283903521 ]
    - [    -0.006910375624321,    -0.026169132548093,     0.000643779777532 ]
    - [    -0.000369281717209,     0.000643780859972,    -0.021797503522724 ]
  - # (2, 23)
    - [    -0.206356777830725,    -0.139989958801545,     0.005245423966995 ]
    - [    -0.139989908278896,    -0.042582809576796,    -0.009145375534043 ]
    - [     0.005245447598560,    -0.009145362149755,     0.031914786941918 ]
  - # (2, 24)
    - [    -0.299721896472424,     0.182255559372856,     0.023309473932062 ]
    - [     0.204254196353817,    -0.075011622703601,    -0.015187710674462 ]
    - [    -0.024309441708976,     0.010614746236280,    -0.009787992577291 ]
  - # (3, 1)
    - [    -0.008670940872330,    -0.011384582925508,    -0.008679705352780 ]
    - [    -0.011384583301605,    -0.029167950208063,    -0.007422744404499 ]
    - [    -0.008679701283201,    -0.007422740036843,     0.001363798568071 ]
  - # (3, 2)
    - [    -0.004820267544083,     0.039133162746725,    -0.011191088220334 ]
    - [     0.039133179016538,    -0.050602099456731,     0.019511288750355 ]
    - [    -0.011191082944887,     0.019511291776188,    -0.060681340047769 ]
  - # (3, 3)
    - [     1.426940439513405,    -0.001898299746699,     0.082048431925771 ]
    - [    -0.001898299746699,     1.429160896931475,    -0.143048502598139 ]
    - [     0.082048431925771,    -0.143048502598139,     1.339584928261937 ]
  - # (3, 4)
    - [    -0.033865932335928,     0.003353192971458,     0.010789574945817 ]
    - [     0.003353193119619,    -0.003972980633419,     0.003744244697245 ]
    - [     0.010789580184480,     0.003744246594630,     0.001363798341996 ]
  - # (3, 5)
    - [    -0.052039402637886,    -0.001919594641609,     0.059614500288991 ]
    - [    -0.001919575838015,    -0.049793679737370,    -0.103936031374167 ]
    - [     0.059614519757644,    -0.103936015732751,    -0.114567867669441 ]
  - # (3, 6)
    - [    -0.011401512329970,    -0.014265946702165,    -0.015868236656041 ]
    - [    -0.014265947740579,    -0.010820772590871,    -0.006596917611225 ]
    - [    -0.015868233340228,    -0.006596913675907,    -0.014252815929292 ]
  - # (3, 7)
    - [    -0.023403750324164,    -0.007245254643156,     0.013706320659766 ]
    - [    -0.007245255335355,     0.001181456856366,     0.010366144252154 ]
    - [     0.013706324942035,     0.010366145600981,    -0.014252810880750 ]
  - # (3, 8)
    - [     0.009912486511708,     0.001805762652082,    -0.015796293645359 ]
    - [     0.001805765166907,     0.007799934944913,     0.027540332718501 ]
    - [    -0.015796294832079,     0.027540330934935,     0.024219409316397 ]
  - # (3, 9)
    - [    -0.027712520548290,    -0.006591498016681,     0.003911393084054 ]
    - [    -0.006591497484971,    -0.020001117012729,    -0.006819379484337 ]
    - [     0.003911393449857,    -0.006819379182241,    -0.020542602207077 ]
  - # (3, 10)
    - [    -0.111180856695529,    -0.010628011511758,    -0.203742576755575 ]
    - [     0.022653648786871,     0.004785000481762,    -0.007265716203500 ]
    - [    -0.192673058629483,    -0.054031827115315,    -0.278125717178020 ]
  - # (3, 11)
    - [    -0.019537766247377,    -0.030952933046004,     0.109143515336997 ]
    - [    -0.064234600597841,    -0.086858126245626,     0.172196201331789 ]
    - [     0.143921542356989,     0.139028556377818,    -0.278125624872422 ]
  - # (3, 12)
    - [     0.011285515021139,     0.001243072175946,     0.003849850118306 ]
    - [     0.001243077481071,     0.009831250245609,    -0.006712124419955 ]
    - [     0.003849857238566,    -0.006712120248260,     0.004864083178917 ]
  - # (3, 13)
    - [     0.036152347503006,     0.007784855057693,     0.001340394509201 ]
    - [    -0.014213792887255,    -0.410885887946888,    -0.027788594655508 ]
    - [     0.003111774471037,     0.026342681626596,    -0.009787989009923 ]
  - # (3, 14)
    - [    -0.034253553067620,    -0.006910355615435,    -0.000369264219829 ]
    - [    -0.006910355817536,    -0.026169096086599,     0.000643791067508 ]
    - [    -0.000369263255556,     0.000643791449023,    -0.021797503522715 ]
  - # (3, 15)
    - [    -0.206356770544881,    -0.139989913859975,     0.005245442505659 ]
    - [    -0.139989961744162,    -0.042582816862640,    -0.009145364900842 ]
    - [     0.005245422023373,    -0.009145376818896,     0.031914786941917 ]
  - # (3, 16)
    - [    -0.299721955410822,     0.182255564960651,     0.023309493448272 ]
    - [     0.204254244593416,    -0.075011609626039,    -0.015187719950266 ]
    - [    -0.024309439859551,     0.010614752479727,    -0.009787983311251 ]
  - # (3, 17)
    - [     0.011285515021139,     0.001243072175946,     0.003849850118306 ]
    - [     0.001243077481072,     0.009831250245609,    -0.006712124419955 ]
    - [     0.003849857238566,    -0.006712120248260,     0.004864083178917 ]
  - # (3, 18)
    - [    -0.019537766247377,    -0.030952933046004,     0.109143515336997 ]
    - [    -0.064234600597841,    -0.086858126245626,     0.172196201331789 ]
    - [     0.143921542356989,     0.139028556377818,    -0.278125624872422 ]
  - # (3, 19)
    - [    -0.111180856695529,    -0.010628011511758,    -0.203742576755575 ]
    - [     0.022653648786871,     0.004785000481762,    -0.007265716203500 ]
    - [    -0.192673058629483,    -0.054031827115315,    -0.278125717178020 ]
  - # (3, 20)
    - [    -0.027712520548290,    -0.006591498016681,     0.003911393084054 ]
    - [    -0.006591497484971,    -0.020001117012729,    -0.006819379484337 ]
    - [     0.003911393449858,    -0.006819379182241,    -0.020542602207077 ]
  - # (3, 21)
    - [    -0.299721955410822,     0.182255564960651,     0.023309493448272 ]
    - [     0.204254244593416,    -0.075011609626039,    -0.015187719950266 ]
    - [    -0.024309439859551,     0.010614752479727,    -0.009787983311251 ]
  - # (3, 22)
    - [    -0.206356770544881,    -0.139989913859975,     0.005245442505659 ]
    - [    -0.139989961744162,    -0.042582816862640,    -0.009145364900842 ]
    - [     0.005245422023373,    -0.009145376818896,     0.031914786941917 ]
  - # (3, 23)
    - [    -0.034253553067620,    -0.006910355615435,    -0.000369264219829 ]
    - [    -0.006910355817535,    -0.026169096086599,     0.000643791067507 ]
    - [    -0.000369263255556,     0.000643791449023,    -0.021797503522715 ]
  - # (3, 24)
    - [     0.036152347503005,     0.007784855057693,     0.001340394509201 ]
    - [    -0.014213792887255,    -0.410885887946888,    -0.027788594655508 ]
    - [     0.003111774471037,     0.026342681626596,    -0.009787989009923 ]
  - # (4, 1)
    - [    -0.004820269665373,     0.039133173592431,    -0.011191069486371 ]
    - [     0.039133173592431,    -0.050602102461070,     0.019511297962735 ]
    - [    -0.011191069486371,     0.019511297962735,    -0.060681336391139 ]
  - # (4, 2)
    - [    -0.008670940130631,    -0.011384594778006,    -0.008679706170638 ]
    - [    -0.011384592682599,    -0.029167972094565,    -0.007422746803306 ]
    - [    -0.008679710136093,    -0.007422750534536,     0.001363792001291 ]
  - # (4, 3)
    - [    -0.033865932335928,     0.003353193119619,     0.010789580184480 ]
    - [     0.003353192971458,    -0.003972980633419,     0.003744246594630 ]
    - [     0.010789574945817,     0.003744244697245,     0.001363798341996 ]
  - # (4, 4)
    - [     1.426940291557251,    -0.001898231897551,     0.082048314262807 ]
    - [    -0.001898231897551,     1.429161067708693,    -0.143048559746154 ]