# Thermal properties / unit cell (natom)

unit:
  temperature:   K
  free_energy:   kJ/mol
  entropy:       J/K/mol
  heat_capacity: J/K/mol

natom: 3    
cutoff_frequency: 0.00000
num_modes: 258075
num_integrated_modes: 258072

zero_point_energy:       6.3928828

thermal_properties:
- temperature:         0.0000000
  free_energy:         6.3928828
  entropy:             0.0000000
  heat_capacity:       0.0000000
  energy:              6.3928828

- temperature:        10.0000000
  free_energy:         6.3909879
  entropy:             0.8397068
  heat_capacity:       2.8298931
  energy:              6.3993849

- temperature:        20.0000000
  free_energy:         6.3591485
  entropy:             6.3246765
  heat_capacity:      15.0941287
  energy:              6.4856420

- temperature:        30.0000000
  free_energy:         6.2549181
  entropy:            14.7294001
  heat_capacity:      26.5105901
  energy:              6.6968001

- temperature:        40.0000000
  free_energy:         6.0635414
  entropy:            23.5011537
  heat_capacity:      34.3473671
  energy:              7.0035876

- temperature:        50.0000000
  free_energy:         5.7865477
  entropy:            31.7980169
  heat_capacity:      39.9713292
  energy:              7.3764486

- temperature:        60.0000000
  free_energy:         5.4295920
  entropy:            39.4960851
  heat_capacity:      44.4757101
  energy:              7.7993571

- temperature:        70.0000000
  free_energy:         4.9984486
  entropy:            46.6475262
  heat_capacity:      48.3147348
  energy:              8.2637755

- temperature:        80.0000000
  free_energy:         4.4982311
  entropy:            53.3215491
  heat_capacity:      51.6422502
  energy:              8.7639550

- temperature:        90.0000000
  free_energy:         3.9334198
  entropy:            59.5745185
  heat_capacity:      54.5212083
  energy:              9.2951264

- temperature:       100.0000000
  free_energy:         3.3079967
  entropy:            65.4504234
  heat_capacity:      56.9982003
  energy:              9.8530391

- temperature:       110.0000000
  free_energy:         2.6255482
  entropy:            70.9850853
  heat_capacity:      59.1203592
  energy:             10.4339076

- temperature:       120.0000000
  free_energy:         1.8893301
  entropy:            76.2091005
  heat_capacity:      60.9352045
  energy:             11.0344222

- temperature:       130.0000000
  free_energy:         1.1023115
  entropy:            81.1494332
  heat_capacity:      62.4877318
  energy:             11.6517378

- temperature:       140.0000000
  free_energy:         0.2672063
  entropy:            85.8302253
  heat_capacity:      63.8183956
  energy:             12.2834379

- temperature:       150.0000000
  free_energy:        -0.6135006
  entropy:            90.2732298
  heat_capacity:      64.9623198
  energy:             12.9274839

- temperature:       160.0000000
  free_energy:        -1.5375313
  entropy:            94.4980818
  heat_capacity:      65.9493357
  energy:             13.5821618

- temperature:       170.0000000
  free_energy:        -2.5027943
  entropy:            98.5225041
  heat_capacity:      66.8044456
  energy:             14.2460314

- temperature:       180.0000000
  free_energy:        -3.5073667
  entropy:           102.3624861
  heat_capacity:      67.5484513
  energy:             14.9178807

- temperature:       190.0000000
  free_energy:        -4.5494775
  entropy:           106.0324492
  heat_capacity:      68.1986007
  energy:             15.5966879

- temperature:       200.0000000
  free_energy:        -5.6274925
  entropy:           109.5454016
  heat_capacity:      68.7691839
  energy:             16.2815878

- temperature:       210.0000000
  free_energy:        -6.7399014
  entropy:           112.9130831
  heat_capacity:      69.2720518
  energy:             16.9718460

- temperature:       220.0000000
  free_energy:        -7.8853054
  entropy:           116.1460979
  heat_capacity:      69.7170543
  energy:             17.6668361

- temperature:       230.0000000
  free_energy:        -9.0624065
  entropy:           119.2540361
  heat_capacity:      70.1124019
  energy:             18.3660218

- temperature:       240.0000000
  free_energy:       -10.2699982
  entropy:           122.2455830
  heat_capacity:      70.4649621
  energy:             19.0689417

- temperature:       250.0000000
  free_energy:       -11.5069566
  entropy:           125.1286171
  heat_capacity:      70.7805009
  energy:             19.7751977

- temperature:       260.0000000
  free_energy:       -12.7722328
  entropy:           127.9102976
  heat_capacity:      71.0638781
  energy:             20.4844446

- temperature:       270.0000000
  free_energy:       -14.0648465
  entropy:           130.5971418
  heat_capacity:      71.3192065
  energy:             21.1963818

- temperature:       280.0000000
  free_energy:       -15.3838794
  entropy:           133.1950939
  heat_capacity:      71.5499803
  energy:             21.9107469

- temperature:       290.0000000
  free_energy:       -16.7284702
  entropy:           135.7095854
  heat_capacity:      71.7591800
  energy:             22.6273096

- temperature:       300.0000000
  free_energy:       -18.0978095
  entropy:           138.1455889
  heat_capacity:      71.9493582
  energy:             23.3458672

- temperature:       310.0000000
  free_energy:       -19.4911356
  entropy:           140.5076654
  heat_capacity:      72.1227086
  energy:             24.0662407

- temperature:       320.0000000
  free_energy:       -20.9077304
  entropy:           142.8000061
  heat_capacity:      72.2811242
  energy:             24.7882716

- temperature:       330.0000000
  free_energy:       -22.3469161
  entropy:           145.0264697
  heat_capacity:      72.4262440
  energy:             25.5118189

- temperature:       340.0000000
  free_energy:       -23.8080521
  entropy:           147.1906147
  heat_capacity:      72.5594920
  energy:             26.2367569

- temperature:       350.0000000
  free_energy:       -25.2905317
  entropy:           149.2957285
  heat_capacity:      72.6821097
  energy:             26.9629733

- temperature:       360.0000000
  free_energy:       -26.7937801
  entropy:           151.3448537
  heat_capacity:      72.7951828
  energy:             27.6903673

- temperature:       370.0000000
  free_energy:       -28.3172516
  entropy:           153.3408105
  heat_capacity:      72.8996640
  energy:             28.4188483

- temperature:       380.0000000
  free_energy:       -29.8604278
  entropy:           155.2862172
  heat_capacity:      72.9963914
  energy:             29.1483347

- temperature:       390.0000000
  free_energy:       -31.4228155
  entropy:           157.1835085
  heat_capacity:      73.0861048
  energy:             29.8787528

- temperature:       400.0000000
  free_energy:       -33.0039452
  entropy:           159.0349520
  heat_capacity:      73.1694589
  energy:             30.6100356

- temperature:       410.0000000
  free_energy:       -34.6033688
  entropy:           160.8426622
  heat_capacity:      73.2470343
  energy:             31.3421227

- temperature:       420.0000000
  free_energy:       -36.2206592
  entropy:           162.6086143
  heat_capacity:      73.3193479
  energy:             32.0749588

- temperature:       430.0000000
  free_energy:       -37.8554081
  entropy:           164.3346552
  heat_capacity:      73.3868605
  energy:             32.8084937

- temperature:       440.0000000
  free_energy:       -39.5072251
  entropy:           166.0225146
  heat_capacity:      73.4499840
  energy:             33.5426814

- temperature:       450.0000000
  free_energy:       -41.1757365
  entropy:           167.6738144
  heat_capacity:      73.5090875
  energy:             34.2774799

- temperature:       460.0000000
  free_energy:       -42.8605846
  entropy:           169.2900770
  heat_capacity:      73.5645024
  energy:             35.0128508

- temperature:       470.0000000
  free_energy:       -44.5614261
  entropy:           170.8727335
  heat_capacity:      73.6165270
  energy:             35.7487587

- temperature:       480.0000000
  free_energy:       -46.2779317
  entropy:           172.4231306
  heat_capacity:      73.6654301
  energy:             36.4851710

- temperature:       490.0000000
  free_energy:       -48.0097854
  entropy:           173.9425369
  heat_capacity:      73.7114549
  energy:             37.2220577

- temperature:       500.0000000
  free_energy:       -49.7566831
  entropy:           175.4321487
  heat_capacity:      73.7548212
  energy:             37.9593912

- temperature:       510.0000000
  free_energy:       -51.5183328
  entropy:           176.8930956
  heat_capacity:      73.7957286
  energy:             38.6971459

- temperature:       520.0000000
  free_energy:       -53.2944531
  entropy:           178.3264447
  heat_capacity:      73.8343583
  energy:             39.4352982

- temperature:       530.0000000
  free_energy:       -55.0847731
  entropy:           179.7332059
  heat_capacity:      73.8708753
  energy:             40.1738261

- temperature:       540.0000000
  free_energy:       -56.8890318
  entropy:           181.1143350
  heat_capacity:      73.9054299
  energy:             40.9127092

- temperature:       550.0000000
  free_energy:       -58.7069774
  entropy:           182.4707381
  heat_capacity:      73.9381595
  energy:             41.6519286

- temperature:       560.0000000
  free_energy:       -60.5383670
  entropy:           183.8032744
  heat_capacity:      73.9691898
  energy:             42.3914667

- temperature:       570.0000000
  free_energy:       -62.3829660
  entropy:           185.1127598
  heat_capacity:      73.9986356
  energy:             43.1313071

- temperature:       580.0000000
  free_energy:       -64.2405479
  entropy:           186.3999696
  heat_capacity:      74.0266025
  energy:             43.8714345

- temperature:       590.0000000
  free_energy:       -66.1108936
  entropy:           187.6656409
  heat_capacity:      74.0531874
  energy:             44.6118345

- temperature:       600.0000000
  free_energy:       -67.9937913
  entropy:           188.9104753
  heat_capacity:      74.0784794
  energy:             45.3524939

- temperature:       610.0000000
  free_energy:       -69.8890359
  entropy:           190.1351410
  heat_capacity:      74.1025608
  energy:             46.0934001

- temperature:       620.0000000
  free_energy:       -71.7964290
  entropy:           191.3402747
  heat_capacity:      74.1255070
  energy:             46.8345413

- temperature:       630.0000000
  free_energy:       -73.7157783
  entropy:           192.5264841
  heat_capacity:      74.1473882
  energy:             47.5759067

- temperature:       640.0000000
  free_energy:       -75.6468975
  entropy:           193.6943489
  heat_capacity:      74.1682689
  energy:             48.3174858

- temperature:       650.0000000
  free_energy:       -77.5896060
  entropy:           194.8444229
  heat_capacity:      74.1882090
  energy:             49.0592689

- temperature:       660.0000000
  free_energy:       -79.5437285
  entropy:           195.9772355
  heat_capacity:      74.2072638
  energy:             49.8012470

- temperature:       670.0000000
  free_energy:       -81.5090949
  entropy:           197.0932929
  heat_capacity:      74.2254849
  energy:             50.5434114

- temperature:       680.0000000
  free_energy:       -83.4855401
  entropy:           198.1930796
  heat_capacity:      74.2429200
  energy:             51.2857541

- temperature:       690.0000000
  free_energy:       -85.4729038
  entropy:           199.2770596
  heat_capacity:      74.2596134
  energy:             52.0282673

- temperature:       700.0000000
  free_energy:       -87.4710301
  entropy:           200.3456773
  heat_capacity:      74.2756066
  energy:             52.7709440

- temperature:       710.0000000
  free_energy:       -89.4797675
  entropy:           201.3993589
  heat_capacity:      74.2909380
  energy:             53.5137773

- temperature:       720.0000000
  free_energy:       -91.4989688
  entropy:           202.4385132
  heat_capacity:      74.3056435
  energy:             54.2567607

- temperature:       730.0000000
  free_energy:       -93.5284907
  entropy:           203.4635327
  heat_capacity:      74.3197566
  energy:             54.9998882

- temperature:       740.0000000
  free_energy:       -95.5681936
  entropy:           204.4747940
  heat_capacity:      74.3333085
  energy:             55.7431539

- temperature:       750.0000000
  free_energy:       -97.6179419
  entropy:           205.4726593
  heat_capacity:      74.3463287
  energy:             56.4865526

- temperature:       760.0000000
  free_energy:       -99.6776033
  entropy:           206.4574765
  heat_capacity:      74.3588444
  energy:             57.2300788

- temperature:       770.0000000
  free_energy:      -101.7470491
  entropy:           207.4295804
  heat_capacity:      74.3708813
  energy:             57.9737279

- temperature:       780.0000000
  free_energy:      -103.8261536
  entropy:           208.3892930
  heat_capacity:      74.3824635
  energy:             58.7174949

- temperature:       790.0000000
  free_energy:      -105.9147946
  entropy:           209.3369245
  heat_capacity:      74.3936134
  energy:             59.4613757

- temperature:       800.0000000
  free_energy:      -108.0128528
  entropy:           210.2727734
  heat_capacity:      74.4043524
  energy:             60.2053658

- temperature:       810.0000000
  free_energy:      -110.1202118
  entropy:           211.1971274
  heat_capacity:      74.4147002
  energy:             60.9494614

- temperature:       820.0000000
  free_energy:      -112.2367580
  entropy:           212.1102642
  heat_capacity:      74.4246757
  energy:             61.6936586

- temperature:       830.0000000
  free_energy:      -114.3623806
  entropy:           213.0124510
  heat_capacity:      74.4342964
  energy:             62.4379538

- temperature:       840.0000000
  free_energy:      -116.4969714
  entropy:           213.9039462
  heat_capacity:      74.4435789
  energy:             63.1823434

- temperature:       850.0000000
  free_energy:      -118.6404247
  entropy:           214.7849988
  heat_capacity:      74.4525388
  energy:             63.9268243

- temperature:       860.0000000
  free_energy:      -120.7926373
  entropy:           215.6558494
  heat_capacity:      74.4611909
  energy:             64.6713932

- temperature:       870.0000000
  free_energy:      -122.9535085
  entropy:           216.5167305
  heat_capacity:      74.4695490
  energy:             65.4160471

- temperature:       880.0000000
  free_energy:      -125.1229395
  entropy:           217.3678667
  heat_capacity:      74.4776264
  energy:             66.1607832

- temperature:       890.0000000
  free_energy:      -127.3008340
  entropy:           218.2094750
  heat_capacity:      74.4854354
  energy:             66.9055987

- temperature:       900.0000000
  free_energy:      -129.4870979
  entropy:           219.0417655
  heat_capacity:      74.4929878
  energy:             67.6504911

- temperature:       910.0000000
  free_energy:      -131.6816390
  entropy:           219.8649414
  heat_capacity:      74.5002946
  energy:             68.3954577

- temperature:       920.0000000
  free_energy:      -133.8843670
  entropy:           220.6791991
  heat_capacity:      74.5073665
  energy:             69.1404962

- temperature:       930.0000000
  free_energy:      -136.0951939
  entropy:           221.4847291
  heat_capacity:      74.5142132
  energy:             69.8856043

- temperature:       940.0000000
  free_energy:      -138.3140331
  entropy:           222.2817158
  heat_capacity:      74.5208443
  energy:             70.6307797

- temperature:       950.0000000
  free_energy:      -140.5408003
  entropy:           223.0703376
  heat_capacity:      74.5272687
  energy:             71.3760204

- temperature:       960.0000000
  free_energy:      -142.7754126
  entropy:           223.8507677
  heat_capacity:      74.5334948
  energy:             72.1213244

- temperature:       970.0000000
  free_energy:      -145.0177889
  entropy:           224.6231738
  heat_capacity:      74.5395308
  energy:             72.8666897

- temperature:       980.0000000
  free_energy:      -147.2678498
  entropy:           225.3877186
  heat_capacity:      74.5453844
  energy:             73.6121144

- temperature:       990.0000000
  free_energy:      -149.5255176
  entropy:           226.1445600
  heat_capacity:      74.5510626
  energy:             74.3575968

- temperature:      1000.0000000
  free_energy:      -151.7907159
  entropy:           226.8938510
  heat_capacity:      74.5565726
  energy:             75.1031351
