# Thermal properties / unit cell (natom)

unit:
  temperature:   K
  free_energy:   kJ/mol
  entropy:       J/K/mol
  heat_capacity: J/K/mol

natom: 6    
cutoff_frequency: 0.00000
num_modes: 174240
num_integrated_modes: 174238

zero_point_energy:      22.8545146

thermal_properties:
- temperature:         0.0000000
  free_energy:        22.8545146
  entropy:             0.0000000
  heat_capacity:       0.0000000
  energy:             22.8545146

- temperature:        10.0000000
  free_energy:        22.8533605
  entropy:             0.4417997
  heat_capacity:       1.3689836
  energy:             22.8577785

- temperature:        20.0000000
  free_energy:        22.8363058
  entropy:             3.5615995
  heat_capacity:       9.6613952
  energy:             22.9075378

- temperature:        30.0000000
  free_energy:        22.7724655
  entropy:             9.5313274
  heat_capacity:      20.3830312
  energy:             23.0584054

- temperature:        40.0000000
  free_energy:        22.6418005
  entropy:            16.7023917
  heat_capacity:      29.6568996
  energy:             23.3098962

- temperature:        50.0000000
  free_energy:        22.4373478
  entropy:            24.2144572
  heat_capacity:      37.8873263
  energy:             23.6480707

- temperature:        60.0000000
  free_energy:        22.1571877
  entropy:            31.8289752
  heat_capacity:      45.8810530
  energy:             24.0669262

- temperature:        70.0000000
  free_energy:        21.8005710
  entropy:            39.5030519
  heat_capacity:      53.8912268
  energy:             24.5657846

- temperature:        80.0000000
  free_energy:        21.3669860
  entropy:            47.2187797
  heat_capacity:      61.8200735
  energy:             25.1444884

- temperature:        90.0000000
  free_energy:        20.8561572
  entropy:            54.9456244
  heat_capacity:      69.4733913
  energy:             25.8012634

- temperature:       100.0000000
  free_energy:        20.2681715
  entropy:            62.6430501
  heat_capacity:      76.6850439
  energy:             26.5324765

- temperature:       110.0000000
  free_energy:        19.6035344
  entropy:            70.2691631
  heat_capacity:      83.3521390
  energy:             27.3331424

- temperature:       120.0000000
  free_energy:        18.8631510
  entropy:            77.7866831
  heat_capacity:      89.4307840
  energy:             28.1975530

- temperature:       130.0000000
  free_energy:        18.0482637
  entropy:            85.1655943
  heat_capacity:      94.9201839
  energy:             29.1197909

- temperature:       140.0000000
  free_energy:        17.1603763
  entropy:            92.3835902
  heat_capacity:      99.8467454
  energy:             30.0940789

- temperature:       150.0000000
  free_energy:        16.2011799
  entropy:            99.4253791
  heat_capacity:     104.2517798
  energy:             31.1149867

- temperature:       160.0000000
  free_energy:        15.1724880
  entropy:           106.2815461
  heat_capacity:     108.1830922
  energy:             32.1775353

- temperature:       170.0000000
  free_energy:        14.0761839
  entropy:           112.9473483
  heat_capacity:     111.6896955
  energy:             33.2772331

- temperature:       180.0000000
  free_energy:        12.9141797
  entropy:           119.4216188
  heat_capacity:     114.8187411
  energy:             34.4100711

- temperature:       190.0000000
  free_energy:        11.6883852
  entropy:           125.7058435
  heat_capacity:     117.6139132
  energy:             35.5724955

- temperature:       200.0000000
  free_energy:        10.4006852
  entropy:           131.8034177
  heat_capacity:     120.1147390
  energy:             36.7613687

- temperature:       210.0000000
  free_energy:         9.0529234
  entropy:           137.7190648
  heat_capacity:     122.3564428
  energy:             37.9739270

- temperature:       220.0000000
  free_energy:         7.6468917
  entropy:           143.4583918
  heat_capacity:     124.3701060
  energy:             39.2077379

- temperature:       230.0000000
  free_energy:         6.1843228
  entropy:           149.0275539
  heat_capacity:     126.1829810
  energy:             40.4606602

- temperature:       240.0000000
  free_energy:         4.6668863
  entropy:           154.4330065
  heat_capacity:     127.8188716
  energy:             41.7308079

- temperature:       250.0000000
  free_energy:         3.0961865
  entropy:           159.6813227
  heat_capacity:     129.2985248
  energy:             43.0165171

- temperature:       260.0000000
  free_energy:         1.4737618
  entropy:           164.7790627
  heat_capacity:     130.6400080
  energy:             44.3163181

- temperature:       270.0000000
  free_energy:        -0.1989144
  entropy:           169.7326808
  heat_capacity:     131.8590548
  energy:             45.6289094

- temperature:       280.0000000
  free_energy:        -1.9204324
  entropy:           174.5484620
  heat_capacity:     132.9693762
  energy:             46.9531369

- temperature:       290.0000000
  free_energy:        -3.6894445
  entropy:           179.2324794
  heat_capacity:     133.9829341
  energy:             48.2879746

- temperature:       300.0000000
  free_energy:        -5.5046623
  entropy:           183.7905678
  heat_capacity:     134.9101801
  energy:             49.6325081

- temperature:       310.0000000
  free_energy:        -7.3648547
  entropy:           188.2283089
  heat_capacity:     135.7602618
  energy:             50.9859211

- temperature:       320.0000000
  free_energy:        -9.2688451
  entropy:           192.5510250
  heat_capacity:     136.5412011
  energy:             52.3474829

- temperature:       330.0000000
  free_energy:       -11.2155087
  entropy:           196.7637784
  heat_capacity:     137.2600472
  energy:             53.7165382

- temperature:       340.0000000
  free_energy:       -13.2037701
  entropy:           200.8713759
  heat_capacity:     137.9230071
  energy:             55.0924977

- temperature:       350.0000000
  free_energy:       -15.2326009
  entropy:           204.8783751
  heat_capacity:     138.5355584
  energy:             56.4748304

- temperature:       360.0000000
  free_energy:       -17.3010167
  entropy:           208.7890937
  heat_capacity:     139.1025453
  energy:             57.8630570

- temperature:       370.0000000
  free_energy:       -19.4080755
  entropy:           212.6076196
  heat_capacity:     139.6282614
  energy:             59.2567438

- temperature:       380.0000000
  free_energy:       -21.5528747
  entropy:           216.3378215
  heat_capacity:     140.1165204
  energy:             60.6554974

- temperature:       390.0000000
  free_energy:       -23.7345497
  entropy:           219.9833600
  heat_capacity:     140.5707169
  energy:             62.0589607

- temperature:       400.0000000
  free_energy:       -25.9522713
  entropy:           223.5476991
  heat_capacity:     140.9938790
  energy:             63.4668084

- temperature:       410.0000000
  free_energy:       -28.2052440
  entropy:           227.0341167
  heat_capacity:     141.3887133
  energy:             64.8787439

- temperature:       420.0000000
  free_energy:       -30.4927042
  entropy:           230.4457156
  heat_capacity:     141.7576442
  energy:             66.2944963

- temperature:       430.0000000
  free_energy:       -32.8139187
  entropy:           233.7854335
  heat_capacity:     142.1028474
  energy:             67.7138177

- temperature:       440.0000000
  free_energy:       -35.1681826
  entropy:           237.0560530
  heat_capacity:     142.4262793
  energy:             69.1364807

- temperature:       450.0000000
  free_energy:       -37.5548182
  entropy:           240.2602107
  heat_capacity:     142.7297026
  energy:             70.5622766

- temperature:       460.0000000
  free_energy:       -39.9731736
  entropy:           243.4004065
  heat_capacity:     143.0147081
  energy:             71.9910134

- temperature:       470.0000000
  free_energy:       -42.4226211
  entropy:           246.4790112
  heat_capacity:     143.2827343
  energy:             73.4225142

- temperature:       480.0000000
  free_energy:       -44.9025561
  entropy:           249.4982747
  heat_capacity:     143.5350840
  energy:             74.8566158

- temperature:       490.0000000
  free_energy:       -47.4123959
  entropy:           252.4603336
  heat_capacity:     143.7729395
  energy:             76.2931676

- temperature:       500.0000000
  free_energy:       -49.9515788
  entropy:           255.3672174
  heat_capacity:     143.9973752
  energy:             77.7320299

- temperature:       510.0000000
  free_energy:       -52.5195628
  entropy:           258.2208556
  heat_capacity:     144.2093691
  energy:             79.1730736

- temperature:       520.0000000
  free_energy:       -55.1158246
  entropy:           261.0230834
  heat_capacity:     144.4098130
  energy:             80.6161788

- temperature:       530.0000000
  free_energy:       -57.7398589
  entropy:           263.7756471
  heat_capacity:     144.5995210
  energy:             82.0612341

- temperature:       540.0000000
  free_energy:       -60.3911775
  entropy:           266.4802100
  heat_capacity:     144.7792378
  energy:             83.5081359

- temperature:       550.0000000
  free_energy:       -63.0693084
  entropy:           269.1383567
  heat_capacity:     144.9496451
  energy:             84.9567878

- temperature:       560.0000000
  free_energy:       -65.7737950
  entropy:           271.7515979
  heat_capacity:     145.1113685
  energy:             86.4070999

- temperature:       570.0000000
  free_energy:       -68.5041955
  entropy:           274.3213748
  heat_capacity:     145.2649821
  energy:             87.8589882

- temperature:       580.0000000
  free_energy:       -71.2600822
  entropy:           276.8490628
  heat_capacity:     145.4110139
  energy:             89.3123742

- temperature:       590.0000000
  free_energy:       -74.0410408
  entropy:           279.3359756
  heat_capacity:     145.5499502
  energy:             90.7671848

- temperature:       600.0000000
  free_energy:       -76.8466700
  entropy:           281.7833684
  heat_capacity:     145.6822392
  energy:             92.2233511

- temperature:       610.0000000
  free_energy:       -79.6765805
  entropy:           284.1924414
  heat_capacity:     145.8082945
  energy:             93.6808088

- temperature:       620.0000000
  free_energy:       -82.5303949
  entropy:           286.5643425
  heat_capacity:     145.9284984
  energy:             95.1394975

- temperature:       630.0000000
  free_energy:       -85.4077471
  entropy:           288.9001707
  heat_capacity:     146.0432046
  energy:             96.5993604

- temperature:       640.0000000
  free_energy:       -88.3082816
  entropy:           291.2009780
  heat_capacity:     146.1527407
  energy:             98.0603443

- temperature:       650.0000000
  free_energy:       -91.2316533
  entropy:           293.4677728
  heat_capacity:     146.2574104
  energy:             99.5223990

- temperature:       660.0000000
  free_energy:       -94.1775269
  entropy:           295.7015215
  heat_capacity:     146.3574956
  energy:            100.9854773

- temperature:       670.0000000
  free_energy:       -97.1455766
  entropy:           297.9031510
  heat_capacity:     146.4532583
  energy:            102.4495345

- temperature:       680.0000000
  free_energy:      -100.1354858
  entropy:           300.0735510
  heat_capacity:     146.5449421
  energy:            103.9145288

- temperature:       690.0000000
  free_energy:      -103.1469464
  entropy:           302.2135753
  heat_capacity:     146.6327738
  energy:            105.3804205

- temperature:       700.0000000
  free_energy:      -106.1796588
  entropy:           304.3240443
  heat_capacity:     146.7169648
  energy:            106.8471722

- temperature:       710.0000000
  free_energy:      -109.2333314
  entropy:           306.4057462
  heat_capacity:     146.7977123
  energy:            108.3147484

- temperature:       720.0000000
  free_energy:      -112.3076804
  entropy:           308.4594388
  heat_capacity:     146.8752005
  energy:            109.7831156

- temperature:       730.0000000
  free_energy:      -115.4024293
  entropy:           310.4858511
  heat_capacity:     146.9496013
  energy:            111.2522421

- temperature:       740.0000000
  free_energy:      -118.5173088
  entropy:           312.4856846
  heat_capacity:     147.0210756
  energy:            112.7220978

- temperature:       750.0000000
  free_energy:      -121.6520566
  entropy:           314.4596146
  heat_capacity:     147.0897741
  energy:            114.1926543

- temperature:       760.0000000
  free_energy:      -124.8064169
  entropy:           316.4082914
  heat_capacity:     147.1558378
  energy:            115.6638845

- temperature:       770.0000000
  free_energy:      -127.9801403
  entropy:           318.3323417
  heat_capacity:     147.2193991
  energy:            117.1357628

- temperature:       780.0000000
  free_energy:      -131.1729837
  entropy:           320.2323696
  heat_capacity:     147.2805821
  energy:            118.6082646

- temperature:       790.0000000
  free_energy:      -134.3847096
  entropy:           322.1089576
  heat_capacity:     147.3395034
  energy:            120.0813669

- temperature:       800.0000000
  free_energy:      -137.6150866
  entropy:           323.9626676
  heat_capacity:     147.3962725
  energy:            121.5550475

- temperature:       810.0000000
  free_energy:      -140.8638885
  entropy:           325.7940420
  heat_capacity:     147.4509925
  energy:            123.0292855

- temperature:       820.0000000
  free_energy:      -144.1308947
  entropy:           327.6036043
  heat_capacity:     147.5037603
  energy:            124.5040608

- temperature:       830.0000000
  free_energy:      -147.4158896
  entropy:           329.3918603
  heat_capacity:     147.5546674
  energy:            125.9793545

- temperature:       840.0000000
  free_energy:      -150.7186625
  entropy:           331.1592985
  heat_capacity:     147.6037997
  energy:            127.4551483

- temperature:       850.0000000
  free_energy:      -154.0390077
  entropy:           332.9063912
  heat_capacity:     147.6512385
  energy:            128.9314248

- temperature:       860.0000000
  free_energy:      -157.3767240
  entropy:           334.6335950
  heat_capacity:     147.6970603
  energy:            130.4081676

- temperature:       870.0000000
  free_energy:      -160.7316148
  entropy:           336.3413514
  heat_capacity:     147.7413375
  energy:            131.8853609

- temperature:       880.0000000
  free_energy:      -164.1034877
  entropy:           338.0300877
  heat_capacity:     147.7841386
  energy:            133.3629895

- temperature:       890.0000000
  free_energy:      -167.4921545
  entropy:           339.7002174
  heat_capacity:     147.8255280
  energy:            134.8410390

- temperature:       900.0000000
  free_energy:      -170.8974313
  entropy:           341.3521410
  heat_capacity:     147.8655670
  energy:            136.3194955

- temperature:       910.0000000
  free_energy:      -174.3191380
  entropy:           342.9862461
  heat_capacity:     147.9043135
  energy:            137.7983460

- temperature:       920.0000000
  free_energy:      -177.7570981
  entropy:           344.6029085
  heat_capacity:     147.9418222
  energy:            139.2775777

- temperature:       930.0000000
  free_energy:      -181.2111392
  entropy:           346.2024921
  heat_capacity:     147.9781452
  energy:            140.7571785

- temperature:       940.0000000
  free_energy:      -184.6810922
  entropy:           347.7853500
  heat_capacity:     148.0133318
  energy:            142.2371368

- temperature:       950.0000000
  free_energy:      -188.1667916
  entropy:           349.3518243
  heat_capacity:     148.0474286
  energy:            143.7174415

- temperature:       960.0000000
  free_energy:      -191.6680752
  entropy:           350.9022470
  heat_capacity:     148.0804801
  energy:            145.1980819

- temperature:       970.0000000
  free_energy:      -195.1847841
  entropy:           352.4369400
  heat_capacity:     148.1125284
  energy:            146.6790477

- temperature:       980.0000000
  free_energy:      -198.7167626
  entropy:           353.9562162
  heat_capacity:     148.1436136
  energy:            148.1603292

- temperature:       990.0000000
  free_energy:      -202.2638580
  entropy:           355.4603788
  heat_capacity:     148.1737737
  energy:            149.6419169

- temperature:      1000.0000000
  free_energy:      -205.8259208
  entropy:           356.9497225
  heat_capacity:     148.2030451
  energy:            151.1238018
