4
Lattice="4.3531506719183435 0.005202250547855589 -0.002391065966266776 -0.0049205162128406945 4.285370723519917 -0.0042672702609478355 0.0024495539653062682 0.0038666104682036884 4.285398324437937" Properties=species:S:1:pos:R:3:forces:R:3 structure_index=0 total_energy=-12.158600807189941 stress="0.0660610944032669 0.0009701421950012445 0.0005119185079820454 0.0009701801463961601 0.09871148318052292 -0.0011787819676101208 0.0005118711851537228 -0.0011788251576945186 0.09890002012252808" pbc="T T T"
Li       1.69969810       2.95218967       3.99258246       0.00018711       0.00070074      -0.00072736
Ga       3.87544683       2.95326340       1.84817312      -0.00066625       0.00002707       0.00039582
Ga       3.87873852       0.81266745       3.99308988       0.00033259      -0.00046379      -0.00001958
Sn       1.70111320       0.80788392       1.85165332       0.00014656      -0.00026402       0.00035114
10
Lattice="3.3000033887118376 0.00026142587582694203 -0.0005560751943092557 -0.00037924383720394514 3.300144835757819 6.615608966432335e-05 0.0022148393403584135 3.7499391208051e-05 17.910939379367033" Properties=species:S:1:pos:R:3:forces:R:3 structure_index=1 total_energy=-30.93763542175293 stress="-0.009162787348031998 -0.0004028090334031731 -0.0005570760695263743 -0.0004027921240776777 -0.007761545013636351 4.3561252823565155e-05 -0.0005571198416873813 4.3686992285074666e-05 -0.02155996859073639" pbc="T T T"
Li       2.53341349       0.53312653       6.66619514       0.00003540       0.00133764      -0.04305147
Li       2.53448146       0.53519799      14.15162125       0.00063177      -0.00056680      -0.00627100
Li       2.53494218       0.53464337      17.89171520      -0.00014938      -0.00028206       0.00084029
Li       2.53300978       0.53414913       3.68998386      -0.00026374      -0.00084923       0.04520902
Li       2.53355685       0.53503703      10.38528866       0.00109998      -0.00044254       0.00440544
Ga       0.88288922       2.18343432       5.18011112       0.00032975       0.00042840      -0.00201190
Sn       0.88462126       2.18474119      15.99438051      -0.00026103       0.00020115       0.03136221
Sn       0.88368039       2.18440529       8.49616499      -0.00057011      -0.00068075       0.03154792
Sn       0.88244906       2.18400412       1.86120050       0.00034022       0.00044006      -0.02079070
Sn       0.88472370       2.18477642      12.30083169      -0.00119287       0.00041412      -0.04123983
4
Lattice="4.327662655051789 0.0008977521508120928 2.496289374140814 1.4452854667618988 4.079121574123928 2.4975149580980194 -0.0003129635140685169 2.103614616725045e-05 4.992613044104355" Properties=species:S:1:pos:R:3:forces:R:3 structure_index=2 total_energy=-11.803937911987305 stress="0.02947637252509594 -0.010177538730204105 0.0028335386887192726 -0.010178185999393463 0.03338567912578583 -0.0005561320576816797 0.002833235077559948 -0.0005557513795793056 0.03368658199906349" pbc="T T T"
Li       4.72741233       3.46232332       4.26774057      -0.00013245      -0.00021067       0.00009866
Ga       0.39753324       0.40192417       1.77064460       0.00059851       0.00073859       0.00084081
Ga       3.28368754       2.44215085       6.76393120       0.00180171       0.00091232       0.00026703
Sn       1.84176001       1.42276677       4.26790140      -0.00226779      -0.00144023      -0.00120649
8
Lattice="5.67358911986437 0.7920385639948626 -2.4977765870466357 -1.998317390457911 5.3734819734967045 -2.4889181472482957 -0.5265053855895273 -0.8972648123490142 6.160123866857422" Properties=species:S:1:pos:R:3:forces:R:3 structure_index=3 total_energy=-25.843412399291992 stress="0.020613715052604675 -0.014599902555346489 0.010723298415541649 -0.014599873684346676 0.0008218209259212017 0.011153037659823895 0.010723285377025604 0.01115297619253397 0.0013263389701023698" pbc="T T T"
Li       3.68008143       2.54609757      -1.30968019      -0.00403957      -0.01829440      -0.00095049
Li       2.42132803       4.76861661       0.52832745      -0.01013295       0.00318607      -0.00282769
Li       0.56601875       1.71202637       3.03347975       0.01581337      -0.03262356      -0.02050672
Ga      -0.15819958       4.79206313      -1.32147011      -0.00302811       0.04672544       0.02727664
Sn      -0.42097539       4.38232123       1.76666183       0.00382122       0.00292951      -0.00261288
Sn       3.40553190       2.07380441       1.76945448      -0.00039933      -0.00149759       0.00446039
Sn       0.84522965       2.12898329      -0.05486308      -0.00527395       0.00099711       0.00024620
Sn       2.67991687       5.22680745      -2.55360656       0.00323930      -0.00142258      -0.00508545
16
Lattice="6.041290480560536 -0.1010173713014954 0.0809643486077589 -0.17813062792238818 6.040854703956755 -0.039921609529001714 0.017141951744409026 -0.07352191812497266 8.216733471448546" Properties=species:S:1:pos:R:3:forces:R:3 structure_index=4 total_energy=-46.60079574584961 stress="0.005717623978853226 -0.004474072717130184 0.00417951587587595 -0.004473929293453693 0.01096340361982584 -0.008218441158533096 0.004179421346634626 -0.008218491449952126 -0.009583740495145321" pbc="T T T"
Li       3.19603507       2.64111491       7.48150393       0.00201372      -0.00279722      -0.01076381
Li       3.09444664       5.70672909       3.32200067       0.00714928       0.01528047      -0.02807102
Li       0.16927590       2.72123472       7.43013110      -0.02653664      -0.01652779       0.01895226
Li       3.08046246       5.66759146       7.44344408       0.01697388       0.03075635       0.02690854
Li       0.15706234       2.73524112       3.29876939      -0.01414121      -0.00544010      -0.02683990
Li       4.74289699       1.15948125       1.35658644       0.00468564      -0.01128129       0.01937069
Ga       1.67427237       1.16089701       5.37616357      -0.00068410      -0.00568630      -0.00026542
Ga       4.68429836       4.19777730       1.31913276      -0.01708371       0.00743509      -0.00160507
Ga       4.67660132       4.19652706       5.40179199      -0.00229411       0.01069845      -0.00444255
Ga       0.02279542       5.78106140       7.49719426       0.00573747      -0.01174684      -0.01225512
Ga       3.22969431       2.63368345       3.25187073       0.00909562      -0.00281342      -0.00602016
Ga       1.70243626       1.17606164       1.30070719      -0.00483214       0.01863900      -0.00357523
Ga       0.02841097       5.79788142       3.21496309       0.01843804      -0.01633296       0.00387456
Sn       1.63148500       4.20204785       5.35758406       0.01079292      -0.01037307       0.04064256
Sn       1.66956925       4.19405901       1.24616049       0.00832364      -0.00578391      -0.02278727
Sn       4.70633276       1.17005400       5.46686408      -0.01763829       0.00597356       0.00687695
4
Lattice="4.055612878552243 0.004421839957315451 -0.0010938959618284065 -0.004806183567476715 4.055860215626064 -0.0024421108928377286 0.0012902801776243189 0.0029014289324210945 4.448294328231024" Properties=species:S:1:pos:R:3:forces:R:3 structure_index=5 total_energy=-11.800260543823242 stress="0.02526945434510708 -0.0035960962995886803 0.00030821337713859975 -0.003596074180677533 0.026525596156716347 0.0007182062254287302 0.00030826948932372034 0.0007182724657468498 0.09507203102111816" pbc="T T T"
Li       0.74505351       3.63603464       2.70315561       0.00017749       0.00005613      -0.00052031
Li       2.77530237       1.61057528       2.70422665       0.00003534      -0.00068478      -0.00123449
Ga       0.74697920       1.60632329       0.48037653      -0.00025318       0.00089437       0.00001936
Sn       2.77232745       3.63667800       0.47807445       0.00004036      -0.00026572       0.00173545
9
Lattice="3.3022661050001725 0.0003033785141465369 -0.00011710706744652039 -0.0006873027954030637 6.807052731152281 -3.9158734950078014 0.0007788933301579234 -0.005375716034225579 7.856054546192103" Properties=species:S:1:pos:R:3:forces:R:3 structure_index=6 total_energy=-26.841785430908203 stress="0.040987778455019 0.00012351169425528497 0.00013156625209376216 0.00012362960842438042 0.022212184965610504 0.0014383458765223622 0.00013154048065189272 0.0014383322559297085 0.023002250120043755" pbc="T T T"
Li       2.89326725       6.79328267       0.27706363       0.00008713       0.04223461      -0.02085219
Li       2.89365109       2.45260139      -0.06415188      -0.00011126       0.00200078       0.04778208
Li       2.89390451       4.91163295       4.20194166      -0.00012522      -0.04131491      -0.02347582
Ga       1.24289853       0.58696935       1.69687062      -0.00034343      -0.03666989      -0.01825983
Ga       1.24232166       4.32167150       1.70183771       0.00009411       0.02933949      -0.01769318
Ga       2.89360545       2.45190018       2.77929912       0.00010276       0.00433661      -0.00175099
Ga       1.24234583       2.44924026       4.93547262       0.00046733       0.00124164       0.03655630
Sn       1.24204981       4.72230251      -1.14805195       0.00022546       0.00029319       0.00026621
Sn       1.24342354       0.18090631       6.70309744      -0.00039684      -0.00146150      -0.00257259
9
Lattice="4.645284575780578 0.003655539754110332 0.0010698362536690524 -2.326393456325415 4.020555158258583 -7.09354969704572e-05 -0.0018006381735053564 -0.0001534299488296028 11.578559881188507" Properties=species:S:1:pos:R:3:forces:R:3 structure_index=7 total_energy=-28.734941482543945 stress="-0.024625638499855995 -0.00019487462122924626 0.0002624910557642579 -0.0001949630823219195 -0.02462727576494217 -5.453385892906226e-05 0.0002625141351018101 -5.470145333674736e-05 -0.026514822617173195" pbc="T T T"
Li       1.32304254       3.23212193       2.69450369      -0.00078761      -0.00045111      -0.00561763
Li       1.32031433       3.23099711       8.34208703       0.00041415       0.00012476       0.00781995
Ga      -0.99900328       1.88916204       1.58826237       0.00054937       0.00053253      -0.03093079
Ga       1.32298758       3.23341661       5.51735162      -0.00034806      -0.00060094       0.00771529
Ga       1.32199592       0.54792347       9.45398476       0.00035267       0.00063189       0.01754224
Sn       1.32519362       0.55114031       6.61942832      -0.00081673      -0.00056085      -0.03514838
Sn      -0.99850748       1.89087202       4.41999459      -0.00024642      -0.00076521       0.03368141
Sn      -1.00188424       1.88677182      10.22736733       0.00054695       0.00044913       0.00121023
Sn       1.32478542       0.55020997       0.81204936       0.00033567       0.00063977       0.00372766
9
Lattice="4.462097830441852 0.003228960331836615 -0.004037055379002829 -2.236999192506358 3.8598119975107736 -0.0054371982711261145 -0.007220878066526226 0.02703767715606936 10.107271005631913" Properties=species:S:1:pos:R:3:forces:R:3 structure_index=8 total_energy=-26.24662971496582 stress="0.043890006840229034 0.003682293463498354 -0.0035407834220677614 0.0036823945119976997 0.038657937198877335 0.006779895629733801 -0.0035407680552452803 0.006779894232749939 -0.011031274683773518" pbc="T T T"
Li       2.46412724       1.18848636       8.83233239       0.00013229       0.00196713       0.00752877
Li       0.23996340       2.46770587       4.91741834       0.00048421      -0.00174681      -0.00947199
Li      -1.99649476       3.75580985       6.87306868      -0.00105187       0.00044958       0.00276134
Ga       0.23340614       2.47197142       7.80030864       0.00057346       0.00036573       0.01685263
Ga      -2.00425556       3.76265407       9.51577150       0.00742680      -0.00047941      -0.00320582
Ga      -1.99097753       3.75078725       4.23221636      -0.00932703      -0.00045473      -0.00159466
Ga       2.47166453       1.18352846       5.94767209      -0.00045755       0.00002981      -0.01726024
Sn       2.47140218       1.17632154       2.79992325       0.00671832      -0.00443832       0.00755689
Sn       0.23842614       2.45364866       0.83967321      -0.00449864       0.00430703      -0.00316697
5
Lattice="3.137227657621413 0.0007190548751895974 -0.9965327823858505 -0.47233758346326726 4.569929638081974 -1.4836959700682357 0.671063615822101 -0.02969493427007447 7.54997071857349" Properties=species:S:1:pos:R:3:forces:R:3 structure_index=9 total_energy=-15.703720092773438 stress="0.009779897518455982 -0.0009853524388745427 -0.0006776284426450729 -0.0009853256633505225 0.016102397814393044 -0.0030954594258219004 -0.0006775935762561858 -0.0030956098344177008 0.007905163802206516" pbc="T T T"
Li       0.30586404       2.81804142       0.63190760      -0.00890451      -0.01010520      -0.02843340
Ga       2.31129843       0.75913119       1.50671832       0.01212133       0.01386440       0.03860549
Ga       0.09951205       0.03488134      -0.02018409       0.00143191       0.00153789       0.00430899
Sn       2.58918641       3.62301529       2.38421533       0.00058177       0.00061606       0.00182604
Sn       1.79428458       1.94297338       5.31735299      -0.00523051      -0.00591315      -0.01630711
4
Lattice="4.286239657532941 0.000640389580242017 -0.0008288173284313206 -0.0020080708767845523 4.2863819697202 -0.0006481259284832774 0.0004991316540217057 0.00039021721199177797 4.347944417631111" Properties=species:S:1:pos:R:3:forces:R:3 structure_index=10 total_energy=-12.158598899841309 stress="0.0733807235956192 -0.003962602466344833 -0.0016892139101400971 -0.003962568938732147 0.07440391927957535 -0.0013224277645349503 -0.0016891694394871593 -0.001322505995631218 0.0009320613462477922" pbc="T T T"
Li       3.79742824       2.43184423       0.62289184       0.00007625      -0.00029214       0.00064488
Ga       3.79813984       0.28969548       2.79710939       0.00113713      -0.00150894      -0.00003111
Ga       1.65484397       2.43099377       2.79825136      -0.00073628       0.00091636      -0.00262398
Sn       1.65514836       0.28754337       0.62343726      -0.00047710       0.00088471       0.00201020
12
Lattice="4.15023492224292 -0.003505854434675116 0.000801243174691505 0.005060801072764548 6.087996536215789 0.06329642357620635 -0.0018438709369625885 -0.04481128595964541 9.251372657988554" Properties=species:S:1:pos:R:3:forces:R:3 structure_index=11 total_energy=-35.941383361816406 stress="0.0008949296316131949 -0.0006961714243516326 -4.806832293979824e-06 -0.0006961337639950216 -0.01893230527639389 0.009506605565547943 -4.760554475069512e-06 0.009506605565547943 -0.018827594816684723" pbc="T T T"
Li       4.03576060       1.30561400       3.72159813       0.00064061       0.02300544      -0.00616506
Li       4.03861245       4.30238819       3.82288021      -0.00026832      -0.01545561       0.01050576
Li       4.03853336       4.35403002       0.75192184       0.00090709       0.00343973       0.01621630
Li       1.96087727       2.70878384       8.36499137       0.00001609      -0.00792211      -0.03830747
Ga       1.96452665       5.87761570       2.22202610       0.00013157      -0.00544120       0.01121752
Ga       1.96180961       2.78558554       5.32648361      -0.00010658       0.02171786      -0.00186926
Ga       4.03491522       1.33096883       6.80661506       0.00108636       0.00396939       0.01782633
Ga       4.03815771       4.18434070       6.83991660      -0.00096151      -0.00273488       0.00308292
Ga       4.03621450       1.31410552       0.74916998       0.00069674       0.01469807      -0.03727371
Sn       1.96449118       5.84896585       5.25584059      -0.00053131      -0.00766878       0.00493959
Sn       1.96254931       2.85410156       2.25530215      -0.00123978      -0.00369445      -0.01146047
Sn       1.96352354       5.80091260       8.45231597      -0.00037096      -0.02391343       0.03128756
12
Lattice="4.300466405618098 0.00021277613615359423 -0.7349018938558153 -0.1174414630487285 4.109656607752796 -0.6861840832005268 0.011074940280397795 0.057128346718121295 13.019151707261123" Properties=species:S:1:pos:R:3:forces:R:3 structure_index=12 total_energy=-35.55208969116211 stress="0.027628093957901 -4.885382077191025e-05 -0.004495939239859581 -4.884345253231004e-05 0.0036583063192665577 -0.0009150849073193967 -0.004496200010180473 -0.0009151102276518941 0.0027861723210662603" pbc="T T T"
Li       0.73346914       2.85855192       5.48164400      -0.00252006      -0.00355225      -0.01794408
Li       1.09140544       1.10419538       7.57116505      -0.00157083      -0.00173373      -0.00739093
Li       2.55707326       2.52971595       3.20392874      -0.00139020      -0.00157751      -0.01216875
Li       3.84105591       3.82125645      10.71566742      -0.00167618      -0.00122297      -0.01053461
Li       1.33604702       3.46338962       9.00043459      -0.00206816      -0.00047603      -0.00679420
Ga       3.18162314       3.15798131       6.85351871       0.00053647       0.00079264       0.00405897
Ga       0.50172914       0.51065067       4.12167149      -0.00019205       0.00238454       0.00143559
Ga       2.92836819       0.78913678       5.37192777       0.00378368       0.00357196       0.02196372
Ga       3.54730304       1.41242491       8.99389618       0.00256792       0.00095088       0.01205381
Sn       2.16828719       0.02704150       0.92744397       0.00339953       0.00235381       0.01241327
Sn       0.08363625       2.20646915       1.67830276      -0.00118830      -0.00134259      -0.00150348
Sn       1.71915498       1.73556462      11.24662337       0.00031818      -0.00014874       0.00441074
16
Lattice="4.529213937842271 0.002215624442473217 -0.000187843474080654 -2.2660283412344397 3.922059547553552 -0.001966777811609692 -3.692693475168961e-05 0.010062990088599922 18.946635439379207" Properties=species:S:1:pos:R:3:forces:R:3 structure_index=13 total_energy=-48.352779388427734 stress="0.0050238496623933315 -2.874872052416322e-06 1.6266145053123182e-07 -2.8411875518941088e-06 0.004995238967239857 -8.861724381858949e-06 2.9784331445625867e-07 -8.538174370187335e-06 0.003349744249135256" pbc="T T T"
Li       1.02808829       1.36176263      16.96574038       0.00062338      -0.00059675       0.01349512
Li       1.03071794       1.35100519       1.36013716      -0.00067543       0.00017571       0.00014171
Li       3.29430778       0.04971023       8.79816409       0.00023519      -0.00050489      -0.04976285
Li       3.29581335       0.05158960      12.50094821      -0.00044895      -0.00000203       0.00727445
Li       3.29500777       0.04449820       5.08531002      -0.00000187       0.00085204      -0.03578068
Ga       1.02926362       1.35908037      14.13541958      -0.00002729       0.00010595       0.01215545
Ga       1.02976769       1.35116240       4.15962628       0.00016554       0.00032061      -0.00223110
Ga      -1.23517042       2.65779859       0.42078607      -0.00016921      -0.00027520       0.00913002
Ga       1.03028718       1.35780833      11.52400363      -0.00009778      -0.00040113       0.00264710
Ga      -1.23630857       2.66626104      15.00271415       0.00045369       0.00008904       0.02332232
Ga       3.29362701       0.05359550      15.64467048       0.00017159      -0.00010804       0.02031494
Ga      -1.23567287       2.66164941       7.86364781       0.00004308       0.00010444      -0.00152491
Sn      -1.23493419       2.66404543      10.67106428      -0.00025308      -0.00007774      -0.00430094
Sn       1.02947890       1.35421573       6.96393009       0.00022074      -0.00006555      -0.00819493
Sn       3.29466696       0.05449052      18.51263803      -0.00017583      -0.00007914       0.01285055
Sn      -1.23531021       2.65760658       3.23550674      -0.00006379       0.00046271       0.00046363
12
Lattice="5.34805216048144 -0.5021938634263188 -0.6704628865855065 -3.1062054717997887 4.382187163777685 0.6691642978732392 -1.6549207081604351 0.9593738075441467 12.374597806099207" Properties=species:S:1:pos:R:3:forces:R:3 structure_index=14 total_energy=-38.92579650878906 stress="0.004604929592460394 0.007818239741027355 -0.008699635975062847 0.007817848585546017 0.010901465080678463 0.00448256591334939 -0.008699699304997921 0.004482749849557877 -0.0057804458774626255" pbc="T T T"
Li       0.23348297       2.38374777       2.90487482      -0.02126523       0.01340675      -0.00427816
Li      -0.59321023       2.86337741       9.09179043      -0.02177397       0.01353271      -0.00382563
Li      -2.83130183       4.15603843       5.46185844       0.02180895      -0.01349438       0.00474740
Li      -3.65872627       4.63564624      11.64915127       0.02198181      -0.01369943       0.00451598
Ga       2.51502575       1.06755263       6.60770123      -0.00012959      -0.00001564      -0.00078606
Ga       3.34213288       0.58760568       0.42007057       0.00004840       0.00011937      -0.00006842
Sn      -0.14996626       2.60605572       6.00467744      -0.00110312       0.00362978      -0.00503541
Sn       2.92839826       0.82773551       3.51410911      -0.00007225      -0.00011616      -0.00066039
Sn       2.10135828       1.30720924       9.70066729      -0.00025476       0.00007076       0.00111589
Sn      -2.44722874       3.93361352       2.36231814       0.00107338      -0.00375896       0.00517343
Sn      -3.27435976       4.41337011       8.54974076       0.00098058      -0.00369676       0.00446879
Sn      -0.97748801       3.08550158      12.19196789      -0.00129419       0.00402198      -0.00536744
8
Lattice="4.288938061450039 -0.002915110317906792 0.00106198860504932 -2.1417097381818495 4.7576643401429575 -0.5762714779426769 -0.0024108605407327276 -0.23294267037164337 8.945368335209839" Properties=species:S:1:pos:R:3:forces:R:3 structure_index=15 total_energy=-25.808378219604492 stress="0.033092133700847626 -0.001801230013370514 -0.0017628916539251804 -0.00180120172444731 -0.019540566951036453 2.2217005607672036e-05 -0.001762910163961351 2.2069350961828604e-05 -0.03566599637269974" pbc="T T T"
Li      -0.96093257       2.15220732       4.75756696      -0.00085014       0.03651967      -0.00542230
Li       1.18356153       3.15407318       0.27969585       0.00083422      -0.03685887       0.00620317
Ga       1.18323739       3.34514284       6.35101739      -0.00019561       0.01770519       0.00421548
Ga       3.32593911       1.72530102       7.63259557       0.00014540      -0.01784221      -0.00453378
Sn       1.18255648       0.20003572      -0.05153947      -0.00031580      -0.02419872       0.00997475
Sn       1.18176742       0.34860902       5.66402617       0.00035391       0.02349561      -0.00929861
Sn       1.18417530       3.71803268       3.16290707       0.00020580      -0.00074290      -0.01943360
Sn       3.32736509       1.58189244       1.87634126      -0.00017779       0.00192224       0.01829490
12
Lattice="4.237039358211518 -0.0008162482268044761 -1.2730235504781404 -0.8786429976088229 6.326387792907897 -2.9279405516920978 0.04561343048413192 -0.21223239962257168 7.83920626997271" Properties=species:S:1:pos:R:3:forces:R:3 structure_index=16 total_energy=-33.66154479980469 stress="0.016719471663236618 -0.0015704171964898705 -0.013756706379354 -0.0015703394310548902 -0.01840367168188095 -0.005641709081828594 -0.013756806030869484 -0.005641761235892773 -0.02607782557606697" pbc="T T T"
Li       0.81107965       3.72009846       3.97826002      -0.00432920       0.00157553      -0.01435252
Li       2.66967869       5.17588755       2.47585900       0.00430466      -0.04020361       0.01390112
Li       1.27397600       0.48684509       5.51895462      -0.00426283      -0.01163878      -0.01144968
Li       0.48001533       1.15771418       2.87968056       0.00281234       0.02440090       0.00952113
Li       2.33056240       2.50308998       1.34937558      -0.00475548      -0.00235113      -0.01289436
Li       3.43243217       5.01207536      -2.67016930       0.00202563       0.02662305       0.00500838
Li       1.54515360       3.23565747      -1.26416388      -0.00105252       0.01252572      -0.00352402
Ga       1.84498722       5.90450920      -0.26561470       0.01217016       0.01897675       0.03673885
Ga       1.97717621       0.05443342       0.17614922       0.00057448      -0.01603520       0.00094617
Ga       3.91896471       1.43951945      -1.05024539      -0.00253984      -0.01866966      -0.00730281
Sn       3.14615676       2.12120515       4.06255197       0.00830572       0.00275179       0.03067236
Sn       0.00526165       4.24215077       1.29901050      -0.01325307       0.00204461      -0.04726462
8
Lattice="4.653234944331862 -0.0008760759932577397 -0.0009196947942703871 -2.320992430012825 4.03398133266052 0.0007304074850843272 0.0037449493090732032 -0.001793021232658318 9.957832057393725" Properties=species:S:1:pos:R:3:forces:R:3 structure_index=17 total_energy=-25.434036254882812 stress="0.008831440471112728 -0.000233850150834769 0.00013627325824927539 -0.00023395533207803965 0.008384235203266144 -0.00014211732195690274 0.000136295217089355 -0.0001419500622432679 0.011484510265290737" pbc="T T T"
Li       0.32742865       0.03619357       5.17155539      -0.00110112       0.00094679       0.01195084
Li       2.65325513       1.38150976       0.47612611      -0.00078145       0.00092278      -0.00901936
Li       2.65828496       1.37832098       6.70051592       0.00034528       0.00016714      -0.03717555
Ga       0.32814037       0.03599532       9.32490382       0.00126264      -0.00165472      -0.01607355
Sn       0.33297527       2.72396874       8.57090124      -0.00081916       0.00124274       0.00457583
Sn       0.32604201       0.03705548       2.16135527      -0.00024336      -0.00033696       0.02674283
Sn       0.33223406       2.72450796       5.55530410       0.00107998      -0.00144263      -0.02095420
Sn       2.65311096       1.38224677       3.54660237       0.00025719       0.00015486       0.03995318
9
Lattice="4.82505625397723 -0.0009188957579648758 0.000884741382125059 -2.415332403258864 4.18069531907209 -0.001604076175318135 -0.0009725179518915128 0.002822050613563806 8.748721098340749" Properties=species:S:1:pos:R:3:forces:R:3 structure_index=18 total_energy=-25.686771392822266 stress="-0.03398950770497322 0.00018578162416815758 -4.2886716983048245e-05 0.00018624246877152473 -0.03387216478586197 0.00012620612687896937 -4.2479350668145344e-05 0.00012643686204683036 0.03574252128601074" pbc="T T T"
Li      -0.29655260       2.58724795       1.12715526      -0.00063638       0.00109178      -0.00342766
Li       2.11548095       1.19531932       5.49162607      -0.00049835      -0.00154024       0.02634253
Li      -0.29694290       2.58798479       6.85883098       0.00006526      -0.00002012      -0.01530848
Li       2.11547072       1.19410545       2.50639444      -0.00050923      -0.00054367      -0.03648764
Ga      -0.30142831       2.58670430       3.97624764       0.00095849       0.00050400       0.01339470
Ga       2.11524677       3.98069737       6.95011933       0.00011275       0.00113517      -0.02777138
Ga       2.11508246       3.98115639       1.04479248       0.00088857      -0.00107886       0.04819126
Sn       2.11695112       1.19546916       8.37228182      -0.00063395      -0.00008100      -0.00295422
Sn       2.11130396       3.98021977       4.00461770       0.00025286       0.00053297      -0.00197920
10
Lattice="4.26937476137792 -0.002952657161146333 -1.229806209050694 -0.6335504511755392 5.572110390616246 -2.2092558870569428 0.02750530147962934 -0.04043652051330247 8.130236363271234" Properties=species:S:1:pos:R:3:forces:R:3 structure_index=19 total_energy=-29.629634857177734 stress="-0.02160010114312172 -0.0005022999248467386 -0.0023480975069105625 -0.0005021902616135776 -0.03809646889567375 0.00273779034614563 -0.002348085166886449 0.002737785689532757 -0.029649024829268456" pbc="T T T"
Li       3.33926636       2.09414148       2.76693567      -0.00773886      -0.01129944      -0.02541918
Li       3.03661486       4.90176567       1.70987765       0.00149280       0.00260733       0.00990503
Li      -0.07718561       3.44280508      -1.07570858      -0.00185912      -0.00140245      -0.00271741
Ga       1.05218331       0.29117817       2.85463975       0.00452359       0.02924202       0.02598609
Ga       2.22083156       5.22861779      -1.12066456       0.00365280      -0.02191258      -0.00378873
Ga       0.23970095       0.65472792       0.02426628      -0.01043511      -0.00526297      -0.02062250
Ga       0.74571905       2.98624873       1.78648492       0.01122236      -0.00200244       0.03268865
Ga       2.52115010       2.59519211      -0.07684354      -0.00539644       0.01121517      -0.01614693
Sn       1.48919126       4.14935036       4.37001187       0.00176656       0.00005255      -0.00177358
Sn       1.80583479       1.36109347       5.47467701       0.00277141      -0.00123721       0.00188854
6
Lattice="4.493251374294482 0.011716818191809959 -0.0025407354095630004 -2.097796541719963 3.9723607482978815 -0.006263413422339661 0.0050742934509976695 0.010541964496348252 7.321921949642049" Properties=species:S:1:pos:R:3:forces:R:3 structure_index=20 total_energy=-18.396474838256836 stress="0.029579661786556244 -0.003955408930778503 0.003470002906396985 -0.003955484367907047 0.025582285597920418 -0.00291312369517982 0.0034701477270573378 -0.002913043135777116 0.04107765480875969" pbc="T T T"
Li       2.55617112       2.65221279       1.84168819      -0.01032463       0.00492910       0.00110151
Li       2.73905550       2.55105139       5.48733624       0.02280531      -0.01457481       0.00070924
Ga       0.50845224       3.89178487       6.80727740      -0.00915410       0.00846028       0.03577689