phonopy:
  version: "2.37.1"
  frequency_unit_conversion_factor: 15.633302
  symmetry_tolerance: 1.00000e-05

space_group:
  type: "Fm-3m"
  number: 225
  Hall_symbol: "-F 4 2 3"

primitive_matrix:
- [ -1.000000000000000,  0.000000000000000,  0.000000000000000 ]
- [  0.000000000000000, -1.000000000000000,  0.000000000000000 ]
- [  1.000000000000000,  1.000000000000000,  1.000000000000000 ]

supercell_matrix:
- [   2,   0,   0 ]
- [   0,   2,   0 ]
- [   0,   0,   2 ]

primitive_cell:
  lattice:
  - [    -2.966769040473500,     1.712865171161790,     4.844713855310894 ] # a
  - [     0.000000362625779,    -3.425729814797593,     4.844713855310894 ] # b
  - [     2.966769368008364,     1.712865171161790,     4.844713855310894 ] # c
  points:
  - symbol: Li # 1
    coordinates: [  0.500000000210625,  0.000000000274745,  0.500000000299134 ]
    mass: 6.940000
  - symbol: Li # 2
    coordinates: [  0.999999999851657,  0.499999998944056,  0.500000001235310 ]
    mass: 6.940000
  - symbol: Li # 3
    coordinates: [  0.999999999465056,  0.000000000074085,  0.500000000862034 ]
    mass: 6.940000
  - symbol: Li # 4
    coordinates: [  0.000000000609673,  0.500000000252004,  0.999999999571364 ]
    mass: 6.940000
  - symbol: Li # 5
    coordinates: [  0.499999999868991,  0.000000000344234,  0.999999999901258 ]
    mass: 6.940000
  - symbol: Li # 6
    coordinates: [  0.499999999851809,  0.499999999662536,  0.999999999176828 ]
    mass: 6.940000
  - symbol: Li # 7
    coordinates: [  0.499999999756390,  0.499999999939855,  0.500000000701520 ]
    mass: 6.940000
  - symbol: Sn # 8
    coordinates: [  0.000000000397685,  0.000000000461474,  0.999999998422217 ]
    mass: 118.710000
  reciprocal_lattice: # without 2pi
  - [    -0.168533500781005,     0.097302855712875,     0.068803517596757 ] # a*
  - [     0.000000000000000,    -0.194605724469896,     0.068803520188872 ] # b*
  - [     0.168533500781005,     0.097302868757021,     0.068803501590969 ] # c*

unit_cell:
  lattice:
  - [     5.933538408481863,     0.000000000000000,     0.000000000000000 ] # a
  - [     2.966769005382584,     5.138594985959382,     0.000000000000000 ] # b
  - [     2.966769368008363,     1.712865171161790,     4.844713855310894 ] # c
  points:
  - symbol: Li # 1
    coordinates: [  0.499999999789375,  0.999999999725256,  0.000000000784503 ]
    mass: 6.940000
    reduced_to: 1
  - symbol: Li # 2
    coordinates: [  0.000000000148343,  0.500000001055945,  0.000000000031023 ]
    mass: 6.940000
    reduced_to: 2
  - symbol: Li # 3
    coordinates: [  0.000000000534944,  0.999999999925915,  0.500000000401174 ]
    mass: 6.940000
    reduced_to: 3
  - symbol: Li # 4
    coordinates: [  0.999999999390327,  0.499999999747996,  0.500000000433040 ]
    mass: 6.940000
    reduced_to: 4
  - symbol: Li # 5
    coordinates: [  0.500000000131010,  0.999999999655767,  0.500000000114482 ]
    mass: 6.940000
    reduced_to: 5
  - symbol: Li # 6
    coordinates: [  0.500000000148191,  0.500000000337464,  0.999999998691173 ]
    mass: 6.940000
    reduced_to: 6
  - symbol: Li # 7
    coordinates: [  0.500000000243611,  0.500000000060145,  0.500000000397764 ]
    mass: 6.940000
    reduced_to: 7
  - symbol: Sn # 8
    coordinates: [  0.999999999602315,  0.999999999538526,  0.999999999281376 ]
    mass: 118.710000
    reduced_to: 8

supercell:
  lattice:
  - [    11.867076816963726,     0.000000000000000,     0.000000000000000 ] # a
  - [     5.933538010765168,    10.277189971918764,     0.000000000000000 ] # b
  - [     5.933538736016726,     3.425730342323579,     9.689427710621787 ] # c
  points:
  - symbol: Li # 1
    coordinates: [  0.249999999894688,  0.499999999862628,  0.000000000392252 ]
    mass: 6.940000
    reduced_to: 1
  - symbol: Li # 2
    coordinates: [  0.749999999894688,  0.499999999862628,  0.000000000392252 ]
    mass: 6.940000
    reduced_to: 1
  - symbol: Li # 3
    coordinates: [  0.249999999894688,  0.999999999862628,  0.000000000392252 ]
    mass: 6.940000
    reduced_to: 1
  - symbol: Li # 4
    coordinates: [  0.749999999894688,  0.999999999862628,  0.000000000392252 ]
    mass: 6.940000
    reduced_to: 1
  - symbol: Li # 5
    coordinates: [  0.249999999894688,  0.499999999862628,  0.500000000392252 ]
    mass: 6.940000
    reduced_to: 1
  - symbol: Li # 6
    coordinates: [  0.749999999894688,  0.499999999862628,  0.500000000392252 ]
    mass: 6.940000
    reduced_to: 1
  - symbol: Li # 7
    coordinates: [  0.249999999894688,  0.999999999862628,  0.500000000392252 ]
    mass: 6.940000
    reduced_to: 1
  - symbol: Li # 8
    coordinates: [  0.749999999894688,  0.999999999862628,  0.500000000392252 ]
    mass: 6.940000
    reduced_to: 1
  - symbol: Li # 9
    coordinates: [  0.000000000074172,  0.250000000527972,  0.000000000015511 ]
    mass: 6.940000
    reduced_to: 9
  - symbol: Li # 10
    coordinates: [  0.500000000074172,  0.250000000527972,  0.000000000015511 ]
    mass: 6.940000
    reduced_to: 9
  - symbol: Li # 11
    coordinates: [  0.000000000074172,  0.750000000527972,  0.000000000015511 ]
    mass: 6.940000
    reduced_to: 9
  - symbol: Li # 12
    coordinates: [  0.500000000074172,  0.750000000527972,  0.000000000015511 ]
    mass: 6.940000
    reduced_to: 9
  - symbol: Li # 13
    coordinates: [  0.000000000074172,  0.250000000527972,  0.500000000015511 ]
    mass: 6.940000
    reduced_to: 9
  - symbol: Li # 14
    coordinates: [  0.500000000074172,  0.250000000527972,  0.500000000015511 ]
    mass: 6.940000
    reduced_to: 9
  - symbol: Li # 15
    coordinates: [  0.000000000074172,  0.750000000527972,  0.500000000015511 ]
    mass: 6.940000
    reduced_to: 9
  - symbol: Li # 16
    coordinates: [  0.500000000074172,  0.750000000527972,  0.500000000015511 ]
    mass: 6.940000
    reduced_to: 9
  - symbol: Li # 17
    coordinates: [  0.000000000267472,  0.499999999962958,  0.250000000200587 ]
    mass: 6.940000
    reduced_to: 17
  - symbol: Li # 18
    coordinates: [  0.500000000267472,  0.499999999962958,  0.250000000200587 ]
    mass: 6.940000
    reduced_to: 17
  - symbol: Li # 19
    coordinates: [  0.000000000267472,  0.999999999962958,  0.250000000200587 ]
    mass: 6.940000
    reduced_to: 17
  - symbol: Li # 20
    coordinates: [  0.500000000267472,  0.999999999962958,  0.250000000200587 ]
    mass: 6.940000
    reduced_to: 17
  - symbol: Li # 21
    coordinates: [  0.000000000267472,  0.499999999962958,  0.750000000200587 ]
    mass: 6.940000
    reduced_to: 17
  - symbol: Li # 22
    coordinates: [  0.500000000267472,  0.499999999962958,  0.750000000200587 ]
    mass: 6.940000
    reduced_to: 17
  - symbol: Li # 23
    coordinates: [  0.000000000267472,  0.999999999962958,  0.750000000200587 ]
    mass: 6.940000
    reduced_to: 17
  - symbol: Li # 24
    coordinates: [  0.500000000267472,  0.999999999962958,  0.750000000200587 ]
    mass: 6.940000
    reduced_to: 17
  - symbol: Li # 25
    coordinates: [  0.499999999695164,  0.249999999873998,  0.250000000216520 ]
    mass: 6.940000
    reduced_to: 25
  - symbol: Li # 26
    coordinates: [  0.999999999695164,  0.249999999873998,  0.250000000216520 ]
    mass: 6.940000
    reduced_to: 25
  - symbol: Li # 27
    coordinates: [  0.499999999695164,  0.749999999873998,  0.250000000216520 ]
    mass: 6.940000
    reduced_to: 25
  - symbol: Li # 28
    coordinates: [  0.999999999695164,  0.749999999873998,  0.250000000216520 ]
    mass: 6.940000
    reduced_to: 25
  - symbol: Li # 29
    coordinates: [  0.499999999695164,  0.249999999873998,  0.750000000216520 ]
    mass: 6.940000
    reduced_to: 25
  - symbol: Li # 30
    coordinates: [  0.999999999695164,  0.249999999873998,  0.750000000216520 ]
    mass: 6.940000
    reduced_to: 25
  - symbol: Li # 31
    coordinates: [  0.499999999695164,  0.749999999873998,  0.750000000216520 ]
    mass: 6.940000
    reduced_to: 25
  - symbol: Li # 32
    coordinates: [  0.999999999695164,  0.749999999873998,  0.750000000216520 ]
    mass: 6.940000
    reduced_to: 25
  - symbol: Li # 33
    coordinates: [  0.250000000065505,  0.499999999827883,  0.250000000057241 ]
    mass: 6.940000
    reduced_to: 33
  - symbol: Li # 34
    coordinates: [  0.750000000065505,  0.499999999827883,  0.250000000057241 ]
    mass: 6.940000
    reduced_to: 33
  - symbol: Li # 35
    coordinates: [  0.250000000065505,  0.999999999827883,  0.250000000057241 ]
    mass: 6.940000
    reduced_to: 33
  - symbol: Li # 36
    coordinates: [  0.750000000065505,  0.999999999827883,  0.250000000057241 ]
    mass: 6.940000
    reduced_to: 33
  - symbol: Li # 37
    coordinates: [  0.250000000065505,  0.499999999827883,  0.750000000057241 ]
    mass: 6.940000
    reduced_to: 33
  - symbol: Li # 38
    coordinates: [  0.750000000065505,  0.499999999827883,  0.750000000057241 ]
    mass: 6.940000
    reduced_to: 33
  - symbol: Li # 39
    coordinates: [  0.250000000065505,  0.999999999827883,  0.750000000057241 ]
    mass: 6.940000
    reduced_to: 33
  - symbol: Li # 40
    coordinates: [  0.750000000065505,  0.999999999827883,  0.750000000057241 ]
    mass: 6.940000
    reduced_to: 33
  - symbol: Li # 41
    coordinates: [  0.250000000074095,  0.250000000168732,  0.499999999345587 ]
    mass: 6.940000
    reduced_to: 41
  - symbol: Li # 42
    coordinates: [  0.750000000074095,  0.250000000168732,  0.499999999345587 ]
    mass: 6.940000
    reduced_to: 41
  - symbol: Li # 43
    coordinates: [  0.250000000074095,  0.750000000168732,  0.499999999345587 ]
    mass: 6.940000
    reduced_to: 41
  - symbol: Li # 44
    coordinates: [  0.750000000074095,  0.750000000168732,  0.499999999345587 ]
    mass: 6.940000
    reduced_to: 41
  - symbol: Li # 45
    coordinates: [  0.250000000074095,  0.250000000168732,  0.999999999345587 ]
    mass: 6.940000
    reduced_to: 41
  - symbol: Li # 46
    coordinates: [  0.750000000074095,  0.250000000168732,  0.999999999345587 ]
    mass: 6.940000
    reduced_to: 41
  - symbol: Li # 47
    coordinates: [  0.250000000074095,  0.750000000168732,  0.999999999345587 ]
    mass: 6.940000
    reduced_to: 41
  - symbol: Li # 48
    coordinates: [  0.750000000074095,  0.750000000168732,  0.999999999345587 ]
    mass: 6.940000
    reduced_to: 41
  - symbol: Li # 49
    coordinates: [  0.250000000121805,  0.250000000030073,  0.250000000198882 ]
    mass: 6.940000
    reduced_to: 49
  - symbol: Li # 50
    coordinates: [  0.750000000121805,  0.250000000030073,  0.250000000198882 ]
    mass: 6.940000
    reduced_to: 49
  - symbol: Li # 51
    coordinates: [  0.250000000121805,  0.750000000030073,  0.250000000198882 ]
    mass: 6.940000
    reduced_to: 49
  - symbol: Li # 52
    coordinates: [  0.750000000121805,  0.750000000030073,  0.250000000198882 ]
    mass: 6.940000
    reduced_to: 49
  - symbol: Li # 53
    coordinates: [  0.250000000121805,  0.250000000030073,  0.750000000198882 ]
    mass: 6.940000
    reduced_to: 49
  - symbol: Li # 54
    coordinates: [  0.750000000121805,  0.250000000030073,  0.750000000198882 ]
    mass: 6.940000
    reduced_to: 49
  - symbol: Li # 55
    coordinates: [  0.250000000121805,  0.750000000030073,  0.750000000198882 ]
    mass: 6.940000
    reduced_to: 49
  - symbol: Li # 56
    coordinates: [  0.750000000121805,  0.750000000030073,  0.750000000198882 ]
    mass: 6.940000
    reduced_to: 49
  - symbol: Sn # 57
    coordinates: [  0.499999999801157,  0.499999999769263,  0.499999999640688 ]
    mass: 118.710000
    reduced_to: 57
  - symbol: Sn # 58
    coordinates: [  0.999999999801158,  0.499999999769263,  0.499999999640688 ]
    mass: 118.710000
    reduced_to: 57
  - symbol: Sn # 59
    coordinates: [  0.499999999801157,  0.999999999769263,  0.499999999640688 ]
    mass: 118.710000
    reduced_to: 57
  - symbol: Sn # 60
    coordinates: [  0.999999999801158,  0.999999999769263,  0.499999999640688 ]
    mass: 118.710000
    reduced_to: 57
  - symbol: Sn # 61
    coordinates: [  0.499999999801157,  0.499999999769263,  0.999999999640688 ]
    mass: 118.710000
    reduced_to: 57
  - symbol: Sn # 62
    coordinates: [  0.999999999801158,  0.499999999769263,  0.999999999640688 ]
    mass: 118.710000
    reduced_to: 57
  - symbol: Sn # 63
    coordinates: [  0.499999999801157,  0.999999999769263,  0.999999999640688 ]
    mass: 118.710000
    reduced_to: 57
  - symbol: Sn # 64
    coordinates: [  0.999999999801158,  0.999999999769263,  0.999999999640688 ]
    mass: 118.710000
    reduced_to: 57

displacements:
- atom:    1
  displacement:
    [   0.0049999997560256,  0.0086602541787031,  0.0000000000000000 ]
  forces:
  - [  -0.0092201549559832, -0.0138766895979643,  0.0004627023008652 ]
  - [  -0.0008388184942305, -0.0002312310971320, -0.0000146528473124 ]
  - [   0.0002427473664284,  0.0003202946681995,  0.0000017140612272 ]
  - [  -0.0001230603083968,  0.0001093674363801, -0.0000179294311238 ]
  - [   0.0001385007053614,  0.0000200847862288,  0.0001731798984110 ]
  - [  -0.0000165100209415, -0.0000692787580192, -0.0000195167958736 ]
  - [  -0.0000439765863121,  0.0000390707282349, -0.0000701942481101 ]
  - [   0.0000392301008105,  0.0000407561892644, -0.0000016470439732 ]
  - [   0.0000049341470003, -0.0000226516276598,  0.0000027976284400 ]
  - [  -0.0013571884483099,  0.0017090654000640,  0.0000198252964765 ]
  - [  -0.0013733655214310,  0.0017134640365839,  0.0000183033989742 ]
  - [   0.0000042561441660, -0.0000199833884835,  0.0000023309839889 ]
  - [   0.0000065770000219, -0.0000006873160601,  0.0000140308402479 ]
  - [  -0.0000154674053192,  0.0000020237639546, -0.0000089523382485 ]
  - [  -0.0000157647864398,  0.0000019827857614, -0.0000092824921012 ]
  - [   0.0000074747949839,  0.0000007618218660,  0.0000125491060317 ]
  - [  -0.0001692846417427, -0.0000335266813636, -0.0000376929529011 ]
  - [  -0.0000014668330550, -0.0000644894316792, -0.0001002023927867 ]
  - [  -0.0000141374766827, -0.0000176997855306, -0.0000000945292413 ]
  - [   0.0000141821801662, -0.0001046052202582,  0.0000526355579495 ]
  - [  -0.0000016856938601, -0.0000652428716421, -0.0001018154434860 ]
  - [  -0.0001760087907314, -0.0000302270054817, -0.0000289464369416 ]
  - [   0.0000147055834532, -0.0001059100031853,  0.0000527240335941 ]
  - [  -0.0000133235007524, -0.0000183414667845, -0.0000000954605639 ]
  - [   0.0001625983568374,  0.0001235993113369,  0.0000619590282440 ]
  - [  -0.0005738614127040, -0.0001385556533933,  0.0004308079369366 ]
  - [  -0.0000031909439713,  0.0000177056062967,  0.0000162874348462 ]
  - [   0.0000816914543975, -0.0006649894639850, -0.0005698869936168 ]
  - [   0.0000802935101092, -0.0006647636182606, -0.0005698562599719 ]
  - [  -0.0000035013654269,  0.0000181393697858,  0.0000166753306985 ]
  - [  -0.0005753868026659, -0.0001382327754982,  0.0004349105001893 ]
  - [   0.0001614904758753,  0.0001237397082150,  0.0000631641596556 ]
  - [   0.0009735594503582,  0.0005702702328563,  0.0016673128120601 ]
  - [  -0.0000125211663544,  0.0000445451587439,  0.0003227805718780 ]
  - [  -0.0000103479251266, -0.0001247087493539,  0.0000461554154754 ]
  - [   0.0000096317380667, -0.0000064829364419, -0.0000155636225827 ]
  - [   0.0009716600179672,  0.0005739047192037,  0.0016565569676459 ]
  - [  -0.0000140611082315,  0.0000436231493950,  0.0003259328659624 ]
  - [  -0.0000101104378700, -0.0001274701207876,  0.0000451868399978 ]
  - [   0.0000075977295637, -0.0000071860849857, -0.0000150483101606 ]
  - [  -0.0000027632340789, -0.0000145845115185, -0.0000030804658309 ]
  - [   0.0000103223137558, -0.0000084163621068,  0.0000065573258325 ]
  - [  -0.0000027632340789, -0.0000136392191052, -0.0000051427632570 ]
  - [   0.0000101849436760, -0.0000083185732365,  0.0000069332309067 ]
  - [   0.0021431278437376,  0.0034786351025105,  0.0000233046011999 ]
  - [  -0.0000199526548386,  0.0004183584824204, -0.0000374062219635 ]
  - [   0.0021879873238504,  0.0035439329221845,  0.0000226805568673 ]
  - [  -0.0000198287889361,  0.0004134038463235, -0.0000363382860087 ]
  - [  -0.0001918375492096,  0.0014130771160126, -0.0019845701754093 ]
  - [   0.0000275336205959, -0.0000220891088247, -0.0000205207616091 ]
  - [  -0.0001543369144201, -0.0000970046967268, -0.0000931322574615 ]
  - [   0.0001268479973078, -0.0000905040651560, -0.0000888779759407 ]
  - [  -0.0001528095453978, -0.0000955825671554, -0.0000928631052375 ]
  - [   0.0001274589449167, -0.0000907834619284, -0.0000889617949724 ]
  - [  -0.0002014059573412,  0.0014111530035734, -0.0019944515079260 ]
  - [   0.0000272784382105, -0.0000207722187042, -0.0000209850531974 ]
  - [   0.0000265380367637, -0.0000221971422434,  0.0001617120578885 ]
  - [   0.0000269950833172, -0.0000225640833378,  0.0001597264781594 ]
  - [   0.0000002067536116,  0.0000401772558689, -0.0000651739537716 ]
  - [   0.0000026244670153,  0.0000404184684157, -0.0000651432201266 ]
  - [   0.0038506630808115,  0.0000585271045566, -0.0000042384490371 ]
  - [   0.0037844944745302,  0.0000756336376071, -0.0000052200630307 ]
  - [   0.0000277375802398,  0.0003356412053108, -0.0000467943027616 ]
  - [   0.0000276844948530,  0.0003380525158718, -0.0000472390092909 ]
- atom:   49
  displacement:
    [   0.0100000000000000,  0.0000000000000000,  0.0000000000000000 ]
  forces:
  - [  -0.0003918702714145, -0.0000054931733757,  0.0000072496768553 ]
  - [   0.0000555431470275,  0.0000003727618605,  0.0000003851600923 ]
  - [  -0.0000275066122413, -0.0001618718233658, -0.0001146996291936 ]
  - [  -0.0000275108031929,  0.0001631420600461,  0.0001152257755166 ]
  - [  -0.0000259778462350, -0.0001626068260521, -0.0001150066964328 ]
  - [  -0.0000264537520707,  0.0001619557151571,  0.0001145470887423 ]
  - [  -0.0003927061334252,  0.0000051917741075, -0.0000070985406637 ]
  - [   0.0000541424378753, -0.0000005053589121, -0.0000000046566129 ]
  - [  -0.0001598745584488,  0.0000710049644113, -0.0001468225382268 ]
  - [   0.0011208597570658, -0.0008798567578197, -0.0019944908563048 ]
  - [  -0.0000147372484207, -0.0000006314367056, -0.0000337084638886 ]
  - [  -0.0000042654573917,  0.0000336570665240, -0.0000205558608286 ]
  - [   0.0011277040466666, -0.0008738916367292, -0.0019833031110466 ]
  - [  -0.0001624971628189,  0.0000710114836693, -0.0001490018330514 ]
  - [  -0.0000056766998568,  0.0000342950224876, -0.0000207228586078 ]
  - [  -0.0000139405019581, -0.0000003678724170, -0.0000325851142406 ]
  - [   0.0011279620230198, -0.0021607242524624, -0.0001613670028746 ]
  - [  -0.0001608580350876, -0.0001164218410850,  0.0001171100884676 ]
  - [  -0.0001593064516783, -0.0001143319532275,  0.0001167953014374 ]
  - [   0.0011217212304473, -0.0021733194589615, -0.0001640883274376 ]
  - [  -0.0000047124922276, -0.0000083362683654,  0.0000396762043238 ]
  - [  -0.0000134427100420, -0.0000317301601171,  0.0000103823840618 ]
  - [  -0.0000149998813868, -0.0000328840687871,  0.0000094883143902 ]
  - [  -0.0000041369348764, -0.0000085774809122,  0.0000387239269912 ]
  - [   0.0049240756779909, -0.0000001676380634,  0.0000007580965757 ]
  - [   0.0048345406539738, -0.0000001392327249,  0.0000003688037395 ]
  - [   0.0000398447737098, -0.0000014605466276, -0.0000001271255314 ]
  - [   0.0000397495168727,  0.0000005331821740,  0.0000003348104656 ]
  - [   0.0000399590935558,  0.0000001296866685, -0.0000012973323464 ]
  - [   0.0000397152616642,  0.0000004267785698,  0.0000008977949619 ]
  - [   0.0000089317327365,  0.0000001140870154, -0.0000004875473678 ]
  - [   0.0000105609678940,  0.0000002731103450, -0.0000004610046744 ]
  - [   0.0011212876997888,  0.0021744286641479,  0.0001643989235163 ]
  - [  -0.0001584724523127,  0.0001151096075773, -0.0001170621253550 ]
  - [   0.0011280514299870,  0.0021621016785502,  0.0001621348783374 ]
  - [  -0.0001607723534107,  0.0001173485070467, -0.0001174118951894 ]
  - [  -0.0000148899853230,  0.0000314991921186, -0.0000108778476715 ]
  - [  -0.0000045392662287,  0.0000078296288848, -0.0000396277173422 ]
  - [  -0.0000138524919748,  0.0000305501744151, -0.0000106878578663 ]
  - [  -0.0000057779252529,  0.0000076354481280, -0.0000395691022277 ]
  - [   0.0011221524327993,  0.0008782306686044,  0.0019952002912760 ]
  - [  -0.0001581073738635, -0.0000718850642443,  0.0001473421580158 ]
  - [  -0.0000148350372910,  0.0000012116506696,  0.0000340153346770 ]
  - [  -0.0000043306499720, -0.0000339420512319,  0.0000213448074646 ]
  - [   0.0011284127831459,  0.0008724238723516,  0.0019834421109408 ]
  - [  -0.0001598382368684, -0.0000728406012058,  0.0001487474655733 ]
  - [  -0.0000132477089210,  0.0000005457550287,  0.0000329025788233 ]
  - [  -0.0000054705888033, -0.0000355048105121,  0.0000211911974475 ]
  - [  -0.0121082002297044, -0.0000005271285772, -0.0000005466863513 ]
  - [   0.0001377556473017, -0.0000006388872862, -0.0000000102445483 ]
  - [  -0.0000287406146526,  0.0000959634780884,  0.0000448664650321 ]
  - [  -0.0000291988253593, -0.0000965371727943, -0.0000451831147075 ]
  - [  -0.0000283494591713,  0.0000748485326767,  0.0000753430649638 ]
  - [  -0.0000290498137474, -0.0000742198899388, -0.0000760843977332 ]
  - [  -0.0001585055142641,  0.0000002682209015, -0.0000000800937414 ]
  - [   0.0001246575266123,  0.0000006724148989, -0.0000000929121597 ]
  - [   0.0000123325735331,  0.0000001285225153, -0.0000001238659024 ]
  - [  -0.0000350573100150,  0.0000047236680984,  0.0000018225982785 ]
  - [  -0.0011461582034826,  0.0006441548466682, -0.0009099636226892 ]
  - [  -0.0011301934719086, -0.0006304886192083,  0.0008935877121985 ]
  - [  -0.0011460129171610, -0.0006430447101593,  0.0009100446477532 ]
  - [  -0.0011347755789757,  0.0006318585947156, -0.0008924594148993 ]
  - [  -0.0000333169009537, -0.0000027921050787, -0.0000027846544981 ]
  - [   0.0000122953206301,  0.0000021004887003,  0.0000000698491931 ]
- atom:   57
  displacement:
    [   0.0100000000000000,  0.0000000000000000,  0.0000000000000000 ]
  forces:
  - [   0.0000549778342247, -0.0000011437805369, -0.0000013409007806 ]
  - [   0.0000546365045011,  0.0000012404052541,  0.0000014525139704 ]
  - [   0.0000002328306437,  0.0000000184070039, -0.0000001867099400 ]
  - [  -0.0000000852160156,  0.0000002886590948, -0.0000000124152564 ]
  - [   0.0074685364961624,  0.0000001662410796,  0.0000001336447895 ]
  - [   0.0078111034817994,  0.0000001903390512,  0.0000001003500074 ]
  - [   0.0000540651381016, -0.0000014661345631, -0.0000001708976924 ]
  - [   0.0000532879494131,  0.0000009386567399,  0.0000003832392395 ]
  - [   0.0000339355319738, -0.0000197999179363, -0.0000652241360513 ]
  - [  -0.0000075586140156,  0.0000343974679708,  0.0000787247554399 ]
  - [   0.0000346880406141, -0.0000190874561667, -0.0000652434537187 ]
  - [  -0.0000053867697716,  0.0000341506674886,  0.0000804979354143 ]
  - [   0.0003014942631125, -0.0001441044732928,  0.0000349464826286 ]
  - [   0.0019681314006448,  0.0032484000548720, -0.0000052675604820 ]
  - [   0.0003045617486350, -0.0001453487202525,  0.0000345720909536 ]
  - [   0.0019658212549984,  0.0032989447936416, -0.0000043665058911 ]
  - [   0.0003018276765943, -0.0000147102400661, -0.0001459517516196 ]
  - [   0.0019700005650520,  0.0010782871395350,  0.0030650896951556 ]
  - [   0.0000344589352608, -0.0000676410272717,  0.0000038510188460 ]
  - [  -0.0000065900385380,  0.0000860309228301,  0.0000066948123276 ]
  - [   0.0003054682165384, -0.0000159824267030, -0.0001480202190578 ]
  - [   0.0019658524543047,  0.0010944101959467,  0.0031112504657358 ]
  - [   0.0000345055013895, -0.0000687865540385,  0.0000027320347726 ]
  - [  -0.0000051390379667,  0.0000869515351951,  0.0000055655837059 ]
  - [   0.0000875564874150,  0.0002182230819017,  0.0001550032757223 ]
  - [   0.0000865862239152, -0.0002169730141759, -0.0001529399305582 ]
  - [   0.0000853528035805, -0.0000182681251317,  0.0000246167182922 ]
  - [   0.0001519168436062, -0.0000006048940122,  0.0000006053596735 ]
  - [   0.0000854898244143,  0.0000178834889084, -0.0000249943695962 ]
  - [   0.0001518639619462,  0.0000003320164979, -0.0000003026798368 ]
  - [   0.0000863134628162,  0.0002169891959056,  0.0001528362045065 ]
  - [   0.0000890407318366, -0.0002180533483624, -0.0001548705622554 ]
  - [   0.0003051795065403,  0.0000162171199918,  0.0001486157998443 ]
  - [   0.0019660028629005, -0.0010944884270430, -0.0031116292811930 ]
  - [  -0.0000057267025113, -0.0000863689929247, -0.0000058300793171 ]
  - [   0.0000348873436451,  0.0000687902793288, -0.0000035201956052 ]
  - [   0.0019699446856976, -0.0010787067003548, -0.0030656713061035 ]
  - [   0.0003020949661732,  0.0000146757811308,  0.0001461479696445 ]
  - [   0.0000351704657078,  0.0000673225149512, -0.0000047557987273 ]
  - [  -0.0000079907476902, -0.0000858739949763, -0.0000067404471338 ]
  - [   0.0003060866147280,  0.0001439377665520, -0.0000342593411915 ]
  - [   0.0019665281288326, -0.0032985387369990,  0.0000048976507969 ]
  - [   0.0019695693627000, -0.0032484000548720,  0.0000056572025642 ]
  - [   0.0003022123128176,  0.0001436369493604, -0.0000341012491845 ]
  - [  -0.0000053811818361, -0.0000355215743184, -0.0000805866438895 ]
  - [   0.0000357320532203,  0.0000182855874300,  0.0000649470603094 ]
  - [   0.0000356839773303,  0.0000183880329132,  0.0000655924668536 ]
  - [  -0.0000076256692410, -0.0000357357785106, -0.0000778463436291 ]
  - [   0.0000125542283058, -0.0000008009374142, -0.0000006370246410 ]
  - [  -0.0000347960740328,  0.0000002216547728,  0.0000006211921573 ]
  - [  -0.0011284947395325,  0.0006276117637753, -0.0008880598470569 ]
  - [  -0.0011501051485538, -0.0006479592993855,  0.0009157275781035 ]
  - [  -0.0011280197650194, -0.0006277663633227,  0.0008875736966729 ]
  - [  -0.0011499729007483,  0.0006479611620307, -0.0009161895141006 ]
  - [  -0.0000352561473846, -0.0000005234032869, -0.0000007534399629 ]
  - [   0.0000122655183077,  0.0000010095536709,  0.0000002376200428 ]
  - [  -0.0276255495846272, -0.0000000037252903, -0.0000002048909664 ]
  - [  -0.0011704328935593,  0.0000007953494787, -0.0000010114163160 ]
  - [  -0.0003066230565310, -0.0004981486126781, -0.0000040112063289 ]
  - [  -0.0003045294433832,  0.0005000429227948,  0.0000042775645852 ]
  - [  -0.0003064237535000, -0.0001697596162558, -0.0004686759784818 ]
  - [  -0.0003089793026447,  0.0001702001318336,  0.0004694536328316 ]
  - [  -0.0000103767961264,  0.0000013578683138,  0.0000003781169653 ]
  - [  -0.0000846069306135,  0.0000023406541914,  0.0000000982545316 ]

force_constants:
  format: "full"
  shape: [ 64, 64 ]
  elements:
  - # (1, 1)
    - [     1.843997017271751,     0.000000004361784,    -0.000000004495217 ]
    - [     0.000000004361784,     1.602354708551438,    -0.053422835318417 ]
    - [    -0.000000004495217,    -0.053422835318417,     1.640130360495445 ]
  - # (1, 2)
    - [     0.167729645339257,     0.000000003723436,    -0.000000004098032 ]
    - [     0.000000003723436,     0.026712906444908,     0.001697387265214 ]
    - [    -0.000000004098032,     0.001697387265214,     0.025512670718114 ]
  - # (1, 3)
    - [    -0.012117939187117,    -0.021119738594365,    -0.002004305604921 ]
    - [    -0.021119737977872,    -0.024793913957165,     0.000924953275193 ]
    - [    -0.002004305929645,     0.000924953265370,     0.005654659671507 ]
  - # (1, 4)
    - [    -0.012117940633381,     0.021119740167392,     0.002004305381902 ]
    - [     0.021119740783885,    -0.024793912322554,     0.000924952349068 ]
    - [     0.002004305057178,     0.000924952339245,     0.005654659483161 ]
  - # (1, 5)
    - [    -0.012117940104234,    -0.008929591054370,    -0.019243779628231 ]
    - [    -0.008929590516443,     0.002852854669241,    -0.008849656913967 ]
    - [    -0.019243779982989,    -0.008849656993892,    -0.021992107430817 ]
  - # (1, 6)
    - [    -0.012117938965569,     0.008929591279893,     0.019243778549576 ]
    - [     0.008929591817820,     0.002852855358829,    -0.008849656592064 ]
    - [     0.019243778194817,    -0.008849656671990,    -0.021992109259069 ]
  - # (1, 7)
    - [     0.008761263689296,     0.000000001481816,    -0.000000001618537 ]
    - [     0.000000001350843,    -0.004498859966199,     0.008110756004578 ]
    - [    -0.000000001343044,     0.008110755534749,    -0.010234031267854 ]
  - # (1, 8)
    - [    -0.007880072793833,     0.000000000955878,    -0.000000000955991 ]
    - [     0.000000000787859,    -0.004693480189305,     0.000195606763683 ]
    - [    -0.000000000706694,     0.000195606632664,    -0.004831795373471 ]
  - # (1, 9)
    - [     0.001544746522960,     0.043686909427132,    -0.003927214299045 ]
    - [    -0.001454480474932,    -0.022838155427878,     0.002001724995257 ]
    - [    -0.000230061965017,    -0.004401929931872,     0.005067414166166 ]
  - # (1, 10)
    - [    -0.079992958314921,     0.179951334125254,     0.000394908916171 ]
    - [     0.203822073528724,    -0.301564627881925,    -0.002440412976937 ]
    - [    -0.001916007433142,     0.001562213082007,     0.002922183925274 ]
  - # (1, 11)
    - [    -0.079992961642303,     0.179951339433550,     0.000394909403264 ]
    - [     0.203822074340765,    -0.301564629970274,    -0.002440412465490 ]
    - [    -0.001916005988118,     0.001562210124389,     0.002922184270830 ]
  - # (1, 12)
    - [     0.001544747112480,     0.043686908258844,    -0.003927214672837 ]
    - [    -0.001454480394018,    -0.022838154698413,     0.002001724435940 ]
    - [    -0.000230061882424,    -0.004401929237056,     0.005067413817130 ]
  - # (1, 13)
    - [    -0.000398970994533,    -0.001419078221998,    -0.001731407816467 ]
    - [    -0.000599208775154,     0.000766288631017,    -0.000520510795101 ]
    - [    -0.001316478532423,    -0.001239187903056,     0.015560564769412 ]
  - # (1, 14)
    - [     0.000544913240716,    -0.001080938985369,     0.001547868619003 ]
    - [     0.001461804324710,     0.000325021319236,     0.000117036820029 ]
    - [     0.000875291593639,     0.001281974502181,     0.001081024818547 ]
  - # (1, 15)