phonopy:
  version: "2.37.1"
  frequency_unit_conversion_factor: 15.633302
  symmetry_tolerance: 1.00000e-05

space_group:
  type: "Cm"
  number: 8
  Hall_symbol: "C -2y"

primitive_matrix:
- [ -1.000000000000000,  0.000000000000000,  0.000000000000000 ]
- [  0.000000000000000, -1.000000000000000, -0.000000000000000 ]
- [  0.000000000000000,  0.000000000000000,  1.000000000000000 ]

supercell_matrix:
- [   3,   0,   0 ]
- [   0,   3,   0 ]
- [   0,   0,   2 ]

primitive_cell:
  lattice:
  - [    -4.720257548460395,     0.000000000000000,     0.000000000000000 ] # a
  - [    -2.358502339060076,    -4.088802112295260,     0.000000000000000 ] # b
  - [     0.000505133459018,     0.000291868809538,     5.712731900670547 ] # c
  points:
  - symbol: Li # 1
    coordinates: [  0.971543365268196,  0.971543339243042,  0.927552092702123 ]
    mass: 6.940000
  - symbol: Li # 2
    coordinates: [  0.305729524058976,  0.305729510823709,  0.610833543652254 ]
    mass: 6.940000
  - symbol: Li # 3
    coordinates: [  0.639226117259152,  0.639226099127025,  0.295074898808473 ]
    mass: 6.940000
  - symbol: Li # 4
    coordinates: [  0.639295597736078,  0.639295628116181,  0.841824469005012 ]
    mass: 6.940000
  - symbol: Li # 5
    coordinates: [  0.972095546796913,  0.972095541594128,  0.380389754517392 ]
    mass: 6.940000
  - symbol: Sn # 6
    coordinates: [  0.305443185092977,  0.305443212633105,  0.110991907640313 ]
    mass: 118.710000
  reciprocal_lattice: # without 2pi
  - [    -0.211852846954542,     0.122200933514569,     0.000012489177094 ] # a*
  - [    -0.000000000000000,    -0.244570407795707,     0.000012495330608 ] # b*
  - [    -0.000000000000000,    -0.000000000000000,     0.175047598484820 ] # c*

unit_cell:
  lattice:
  - [     4.720257548460394,     0.000000000000000,     0.000000000000000 ] # a
  - [     2.358502339060077,     4.088802112295260,     0.000000000000000 ] # b
  - [     0.000505133459018,     0.000291868809538,     5.712731900670547 ] # c
  points:
  - symbol: Li # 1
    coordinates: [  0.028456634731804,  0.028456660756958,  0.927552092702123 ]
    mass: 6.940000
    reduced_to: 1
  - symbol: Li # 2
    coordinates: [  0.694270475941024,  0.694270489176291,  0.610833543652254 ]
    mass: 6.940000
    reduced_to: 2
  - symbol: Li # 3
    coordinates: [  0.360773882740848,  0.360773900872975,  0.295074898808473 ]
    mass: 6.940000
    reduced_to: 3
  - symbol: Li # 4
    coordinates: [  0.360704402263922,  0.360704371883819,  0.841824469005012 ]
    mass: 6.940000
    reduced_to: 4
  - symbol: Li # 5
    coordinates: [  0.027904453203087,  0.027904458405872,  0.380389754517392 ]
    mass: 6.940000
    reduced_to: 5
  - symbol: Sn # 6
    coordinates: [  0.694556814907023,  0.694556787366895,  0.110991907640313 ]
    mass: 118.710000
    reduced_to: 6

supercell:
  lattice:
  - [    14.160772645381181,     0.000000000000000,     0.000000000000000 ] # a
  - [     7.075507017180230,    12.266406336885780,     0.000000000000000 ] # b
  - [     0.001010266918036,     0.000583737619076,    11.425463801341094 ] # c
  points:
  - symbol: Li # 1
    coordinates: [  0.009485544910601,  0.009485553585653,  0.463776046351061 ]
    mass: 6.940000
    reduced_to: 1
  - symbol: Li # 2
    coordinates: [  0.342818878243935,  0.009485553585653,  0.463776046351061 ]
    mass: 6.940000
    reduced_to: 1
  - symbol: Li # 3
    coordinates: [  0.676152211577268,  0.009485553585653,  0.463776046351061 ]
    mass: 6.940000
    reduced_to: 1
  - symbol: Li # 4
    coordinates: [  0.009485544910601,  0.342818886918986,  0.463776046351061 ]
    mass: 6.940000
    reduced_to: 1
  - symbol: Li # 5
    coordinates: [  0.342818878243935,  0.342818886918986,  0.463776046351061 ]
    mass: 6.940000
    reduced_to: 1
  - symbol: Li # 6
    coordinates: [  0.676152211577268,  0.342818886918986,  0.463776046351061 ]
    mass: 6.940000
    reduced_to: 1
  - symbol: Li # 7
    coordinates: [  0.009485544910601,  0.676152220252319,  0.463776046351061 ]
    mass: 6.940000
    reduced_to: 1
  - symbol: Li # 8
    coordinates: [  0.342818878243935,  0.676152220252319,  0.463776046351061 ]
    mass: 6.940000
    reduced_to: 1
  - symbol: Li # 9
    coordinates: [  0.676152211577268,  0.676152220252319,  0.463776046351061 ]
    mass: 6.940000
    reduced_to: 1
  - symbol: Li # 10
    coordinates: [  0.009485544910601,  0.009485553585653,  0.963776046351061 ]
    mass: 6.940000
    reduced_to: 1
  - symbol: Li # 11
    coordinates: [  0.342818878243935,  0.009485553585653,  0.963776046351061 ]
    mass: 6.940000
    reduced_to: 1
  - symbol: Li # 12
    coordinates: [  0.676152211577268,  0.009485553585653,  0.963776046351061 ]
    mass: 6.940000
    reduced_to: 1
  - symbol: Li # 13
    coordinates: [  0.009485544910601,  0.342818886918986,  0.963776046351061 ]
    mass: 6.940000
    reduced_to: 1
  - symbol: Li # 14
    coordinates: [  0.342818878243935,  0.342818886918986,  0.963776046351061 ]
    mass: 6.940000
    reduced_to: 1
  - symbol: Li # 15
    coordinates: [  0.676152211577268,  0.342818886918986,  0.963776046351061 ]
    mass: 6.940000
    reduced_to: 1
  - symbol: Li # 16
    coordinates: [  0.009485544910601,  0.676152220252319,  0.963776046351061 ]
    mass: 6.940000
    reduced_to: 1
  - symbol: Li # 17
    coordinates: [  0.342818878243935,  0.676152220252319,  0.963776046351061 ]
    mass: 6.940000
    reduced_to: 1
  - symbol: Li # 18
    coordinates: [  0.676152211577268,  0.676152220252319,  0.963776046351061 ]
    mass: 6.940000
    reduced_to: 1
  - symbol: Li # 19
    coordinates: [  0.231423491980341,  0.231423496392097,  0.305416771826127 ]
    mass: 6.940000
    reduced_to: 19
  - symbol: Li # 20
    coordinates: [  0.564756825313675,  0.231423496392097,  0.305416771826127 ]
    mass: 6.940000
    reduced_to: 19
  - symbol: Li # 21
    coordinates: [  0.898090158647008,  0.231423496392097,  0.305416771826127 ]
    mass: 6.940000
    reduced_to: 19
  - symbol: Li # 22
    coordinates: [  0.231423491980341,  0.564756829725430,  0.305416771826127 ]
    mass: 6.940000
    reduced_to: 19
  - symbol: Li # 23
    coordinates: [  0.564756825313675,  0.564756829725430,  0.305416771826127 ]
    mass: 6.940000
    reduced_to: 19
  - symbol: Li # 24
    coordinates: [  0.898090158647008,  0.564756829725430,  0.305416771826127 ]
    mass: 6.940000
    reduced_to: 19
  - symbol: Li # 25
    coordinates: [  0.231423491980341,  0.898090163058764,  0.305416771826127 ]
    mass: 6.940000
    reduced_to: 19
  - symbol: Li # 26
    coordinates: [  0.564756825313675,  0.898090163058764,  0.305416771826127 ]
    mass: 6.940000
    reduced_to: 19
  - symbol: Li # 27
    coordinates: [  0.898090158647008,  0.898090163058764,  0.305416771826127 ]
    mass: 6.940000
    reduced_to: 19
  - symbol: Li # 28
    coordinates: [  0.231423491980341,  0.231423496392097,  0.805416771826127 ]
    mass: 6.940000
    reduced_to: 19
  - symbol: Li # 29
    coordinates: [  0.564756825313675,  0.231423496392097,  0.805416771826127 ]
    mass: 6.940000
    reduced_to: 19
  - symbol: Li # 30
    coordinates: [  0.898090158647008,  0.231423496392097,  0.805416771826127 ]
    mass: 6.940000
    reduced_to: 19
  - symbol: Li # 31
    coordinates: [  0.231423491980341,  0.564756829725430,  0.805416771826127 ]
    mass: 6.940000
    reduced_to: 19
  - symbol: Li # 32
    coordinates: [  0.564756825313675,  0.564756829725430,  0.805416771826127 ]
    mass: 6.940000
    reduced_to: 19
  - symbol: Li # 33
    coordinates: [  0.898090158647008,  0.564756829725430,  0.805416771826127 ]
    mass: 6.940000
    reduced_to: 19
  - symbol: Li # 34
    coordinates: [  0.231423491980341,  0.898090163058764,  0.805416771826127 ]
    mass: 6.940000
    reduced_to: 19
  - symbol: Li # 35
    coordinates: [  0.564756825313675,  0.898090163058764,  0.805416771826127 ]
    mass: 6.940000
    reduced_to: 19
  - symbol: Li # 36
    coordinates: [  0.898090158647008,  0.898090163058764,  0.805416771826127 ]
    mass: 6.940000
    reduced_to: 19
  - symbol: Li # 37
    coordinates: [  0.120257960913616,  0.120257966957658,  0.147537449404236 ]
    mass: 6.940000
    reduced_to: 37
  - symbol: Li # 38
    coordinates: [  0.453591294246949,  0.120257966957658,  0.147537449404236 ]
    mass: 6.940000
    reduced_to: 37
  - symbol: Li # 39
    coordinates: [  0.786924627580283,  0.120257966957658,  0.147537449404236 ]
    mass: 6.940000
    reduced_to: 37
  - symbol: Li # 40
    coordinates: [  0.120257960913616,  0.453591300290992,  0.147537449404236 ]
    mass: 6.940000
    reduced_to: 37
  - symbol: Li # 41
    coordinates: [  0.453591294246949,  0.453591300290992,  0.147537449404236 ]
    mass: 6.940000
    reduced_to: 37
  - symbol: Li # 42
    coordinates: [  0.786924627580283,  0.453591300290992,  0.147537449404236 ]
    mass: 6.940000
    reduced_to: 37
  - symbol: Li # 43
    coordinates: [  0.120257960913616,  0.786924633624325,  0.147537449404236 ]
    mass: 6.940000
    reduced_to: 37
  - symbol: Li # 44
    coordinates: [  0.453591294246949,  0.786924633624325,  0.147537449404236 ]
    mass: 6.940000
    reduced_to: 37
  - symbol: Li # 45
    coordinates: [  0.786924627580283,  0.786924633624325,  0.147537449404236 ]
    mass: 6.940000
    reduced_to: 37
  - symbol: Li # 46
    coordinates: [  0.120257960913616,  0.120257966957658,  0.647537449404236 ]
    mass: 6.940000
    reduced_to: 37
  - symbol: Li # 47
    coordinates: [  0.453591294246949,  0.120257966957658,  0.647537449404236 ]
    mass: 6.940000
    reduced_to: 37
  - symbol: Li # 48
    coordinates: [  0.786924627580283,  0.120257966957658,  0.647537449404236 ]
    mass: 6.940000
    reduced_to: 37
  - symbol: Li # 49
    coordinates: [  0.120257960913616,  0.453591300290992,  0.647537449404236 ]
    mass: 6.940000
    reduced_to: 37
  - symbol: Li # 50
    coordinates: [  0.453591294246949,  0.453591300290992,  0.647537449404236 ]
    mass: 6.940000
    reduced_to: 37
  - symbol: Li # 51
    coordinates: [  0.786924627580283,  0.453591300290992,  0.647537449404236 ]
    mass: 6.940000
    reduced_to: 37
  - symbol: Li # 52
    coordinates: [  0.120257960913616,  0.786924633624325,  0.647537449404236 ]
    mass: 6.940000
    reduced_to: 37
  - symbol: Li # 53
    coordinates: [  0.453591294246949,  0.786924633624325,  0.647537449404236 ]
    mass: 6.940000
    reduced_to: 37
  - symbol: Li # 54
    coordinates: [  0.786924627580283,  0.786924633624325,  0.647537449404236 ]
    mass: 6.940000
    reduced_to: 37
  - symbol: Li # 55
    coordinates: [  0.120234800754641,  0.120234790627940,  0.420912234502506 ]
    mass: 6.940000
    reduced_to: 55
  - symbol: Li # 56
    coordinates: [  0.453568134087974,  0.120234790627940,  0.420912234502506 ]
    mass: 6.940000
    reduced_to: 55
  - symbol: Li # 57
    coordinates: [  0.786901467421307,  0.120234790627940,  0.420912234502506 ]
    mass: 6.940000
    reduced_to: 55
  - symbol: Li # 58
    coordinates: [  0.120234800754641,  0.453568123961273,  0.420912234502506 ]
    mass: 6.940000
    reduced_to: 55
  - symbol: Li # 59
    coordinates: [  0.453568134087974,  0.453568123961273,  0.420912234502506 ]
    mass: 6.940000
    reduced_to: 55
  - symbol: Li # 60
    coordinates: [  0.786901467421307,  0.453568123961273,  0.420912234502506 ]
    mass: 6.940000
    reduced_to: 55
  - symbol: Li # 61
    coordinates: [  0.120234800754641,  0.786901457294606,  0.420912234502506 ]
    mass: 6.940000
    reduced_to: 55
  - symbol: Li # 62
    coordinates: [  0.453568134087974,  0.786901457294606,  0.420912234502506 ]
    mass: 6.940000
    reduced_to: 55
  - symbol: Li # 63
    coordinates: [  0.786901467421307,  0.786901457294606,  0.420912234502506 ]
    mass: 6.940000
    reduced_to: 55
  - symbol: Li # 64
    coordinates: [  0.120234800754641,  0.120234790627940,  0.920912234502506 ]
    mass: 6.940000
    reduced_to: 55
  - symbol: Li # 65
    coordinates: [  0.453568134087974,  0.120234790627940,  0.920912234502506 ]
    mass: 6.940000
    reduced_to: 55
  - symbol: Li # 66
    coordinates: [  0.786901467421307,  0.120234790627940,  0.920912234502506 ]
    mass: 6.940000
    reduced_to: 55
  - symbol: Li # 67
    coordinates: [  0.120234800754641,  0.453568123961273,  0.920912234502506 ]
    mass: 6.940000
    reduced_to: 55
  - symbol: Li # 68
    coordinates: [  0.453568134087974,  0.453568123961273,  0.920912234502506 ]
    mass: 6.940000
    reduced_to: 55
  - symbol: Li # 69
    coordinates: [  0.786901467421307,  0.453568123961273,  0.920912234502506 ]
    mass: 6.940000
    reduced_to: 55
  - symbol: Li # 70
    coordinates: [  0.120234800754641,  0.786901457294606,  0.920912234502506 ]
    mass: 6.940000
    reduced_to: 55
  - symbol: Li # 71
    coordinates: [  0.453568134087974,  0.786901457294606,  0.920912234502506 ]
    mass: 6.940000
    reduced_to: 55
  - symbol: Li # 72
    coordinates: [  0.786901467421307,  0.786901457294606,  0.920912234502506 ]
    mass: 6.940000
    reduced_to: 55
  - symbol: Li # 73
    coordinates: [  0.009301484401029,  0.009301486135291,  0.190194877258696 ]
    mass: 6.940000
    reduced_to: 73
  - symbol: Li # 74
    coordinates: [  0.342634817734362,  0.009301486135291,  0.190194877258696 ]
    mass: 6.940000
    reduced_to: 73
  - symbol: Li # 75
    coordinates: [  0.675968151067696,  0.009301486135291,  0.190194877258696 ]
    mass: 6.940000
    reduced_to: 73
  - symbol: Li # 76
    coordinates: [  0.009301484401029,  0.342634819468624,  0.190194877258696 ]
    mass: 6.940000
    reduced_to: 73
  - symbol: Li # 77
    coordinates: [  0.342634817734362,  0.342634819468624,  0.190194877258696 ]
    mass: 6.940000
    reduced_to: 73
  - symbol: Li # 78
    coordinates: [  0.675968151067696,  0.342634819468624,  0.190194877258696 ]
    mass: 6.940000
    reduced_to: 73
  - symbol: Li # 79
    coordinates: [  0.009301484401029,  0.675968152801957,  0.190194877258696 ]
    mass: 6.940000
    reduced_to: 73
  - symbol: Li # 80
    coordinates: [  0.342634817734362,  0.675968152801957,  0.190194877258696 ]
    mass: 6.940000
    reduced_to: 73
  - symbol: Li # 81
    coordinates: [  0.675968151067696,  0.675968152801957,  0.190194877258696 ]
    mass: 6.940000
    reduced_to: 73
  - symbol: Li # 82
    coordinates: [  0.009301484401029,  0.009301486135291,  0.690194877258696 ]
    mass: 6.940000
    reduced_to: 73
  - symbol: Li # 83
    coordinates: [  0.342634817734362,  0.009301486135291,  0.690194877258696 ]
    mass: 6.940000
    reduced_to: 73
  - symbol: Li # 84
    coordinates: [  0.675968151067696,  0.009301486135291,  0.690194877258696 ]
    mass: 6.940000
    reduced_to: 73
  - symbol: Li # 85
    coordinates: [  0.009301484401029,  0.342634819468624,  0.690194877258696 ]
    mass: 6.940000
    reduced_to: 73
  - symbol: Li # 86
    coordinates: [  0.342634817734362,  0.342634819468624,  0.690194877258696 ]
    mass: 6.940000
    reduced_to: 73
  - symbol: Li # 87
    coordinates: [  0.675968151067696,  0.342634819468624,  0.690194877258696 ]
    mass: 6.940000
    reduced_to: 73
  - symbol: Li # 88
    coordinates: [  0.009301484401029,  0.675968152801957,  0.690194877258696 ]
    mass: 6.940000
    reduced_to: 73
  - symbol: Li # 89
    coordinates: [  0.342634817734362,  0.675968152801957,  0.690194877258696 ]
    mass: 6.940000
    reduced_to: 73
  - symbol: Li # 90
    coordinates: [  0.675968151067696,  0.675968152801957,  0.690194877258696 ]
    mass: 6.940000
    reduced_to: 73
  - symbol: Sn # 91
    coordinates: [  0.231518938302341,  0.231518929122298,  0.055495953820157 ]
    mass: 118.710000
    reduced_to: 91
  - symbol: Sn # 92
    coordinates: [  0.564852271635674,  0.231518929122298,  0.055495953820157 ]
    mass: 118.710000
    reduced_to: 91
  - symbol: Sn # 93
    coordinates: [  0.898185604969008,  0.231518929122298,  0.055495953820157 ]
    mass: 118.710000
    reduced_to: 91
  - symbol: Sn # 94
    coordinates: [  0.231518938302341,  0.564852262455632,  0.055495953820157 ]
    mass: 118.710000
    reduced_to: 91
  - symbol: Sn # 95
    coordinates: [  0.564852271635674,  0.564852262455632,  0.055495953820157 ]
    mass: 118.710000
    reduced_to: 91
  - symbol: Sn # 96
    coordinates: [  0.898185604969008,  0.564852262455632,  0.055495953820157 ]
    mass: 118.710000
    reduced_to: 91
  - symbol: Sn # 97
    coordinates: [  0.231518938302341,  0.898185595788965,  0.055495953820157 ]
    mass: 118.710000
    reduced_to: 91
  - symbol: Sn # 98
    coordinates: [  0.564852271635674,  0.898185595788965,  0.055495953820157 ]
    mass: 118.710000
    reduced_to: 91
  - symbol: Sn # 99
    coordinates: [  0.898185604969008,  0.898185595788965,  0.055495953820157 ]
    mass: 118.710000
    reduced_to: 91
  - symbol: Sn # 100
    coordinates: [  0.231518938302341,  0.231518929122298,  0.555495953820157 ]
    mass: 118.710000
    reduced_to: 91
  - symbol: Sn # 101
    coordinates: [  0.564852271635674,  0.231518929122298,  0.555495953820157 ]
    mass: 118.710000
    reduced_to: 91
  - symbol: Sn # 102
    coordinates: [  0.898185604969008,  0.231518929122298,  0.555495953820157 ]
    mass: 118.710000
    reduced_to: 91
  - symbol: Sn # 103
    coordinates: [  0.231518938302341,  0.564852262455632,  0.555495953820157 ]
    mass: 118.710000
    reduced_to: 91
  - symbol: Sn # 104
    coordinates: [  0.564852271635674,  0.564852262455632,  0.555495953820157 ]
    mass: 118.710000
    reduced_to: 91
  - symbol: Sn # 105
    coordinates: [  0.898185604969008,  0.564852262455632,  0.555495953820157 ]
    mass: 118.710000
    reduced_to: 91
  - symbol: Sn # 106
    coordinates: [  0.231518938302341,  0.898185595788965,  0.555495953820157 ]
    mass: 118.710000
    reduced_to: 91
  - symbol: Sn # 107
    coordinates: [  0.564852271635674,  0.898185595788965,  0.555495953820157 ]
    mass: 118.710000
    reduced_to: 91
  - symbol: Sn # 108
    coordinates: [  0.898185604969008,  0.898185595788965,  0.555495953820157 ]
    mass: 118.710000
    reduced_to: 91

displacements:
- atom:    1
  displacement:
    [   0.0100000000000000,  0.0000000000000000,  0.0000000000000000 ]
  forces:
  - [  -0.0314052961766720, -0.0063942195847631, -0.0366352945566177 ]
  - [  -0.0113964201882482, -0.0064595211297274, -0.0366107895970345 ]
  - [  -0.0113906692713499, -0.0064525688067079, -0.0365875288844109 ]
  - [  -0.0111230816692114, -0.0066083036363125, -0.0367185920476913 ]
  - [  -0.0111962370574474, -0.0064575173892081, -0.0365980193018913 ]
  - [  -0.0111262071877718, -0.0063031897880137, -0.0364773347973824 ]
  - [  -0.0111241387203336, -0.0066108005121350, -0.0367029681801796 ]
  - [  -0.0111255813390017, -0.0062856674194336, -0.0364824607968330 ]
  - [  -0.0111968256533146, -0.0064566861838102, -0.0365981832146645 ]
  - [  -0.0112113710492849, -0.0064555341377854, -0.0365988127887249 ]
  - [  -0.0111776255071163, -0.0064620110206306, -0.0366094037890434 ]
  - [  -0.0111768525093794, -0.0064504295587540, -0.0365873649716377 ]
  - [  -0.0111756669357419, -0.0064524197950959, -0.0365896746516228 ]
  - [  -0.0111807612702250, -0.0064562773332000, -0.0365983434021473 ]
  - [  -0.0111751388758421, -0.0064608897082508, -0.0366063602268696 ]
  - [  -0.0111751705408096, -0.0064632389694452, -0.0365785919129848 ]
  - [  -0.0111747356131673, -0.0064490772783756, -0.0366181582212448 ]
  - [  -0.0111808218061924, -0.0064559364691377, -0.0365986675024033 ]
  - [   0.0015056137926877,  0.0008743879152462,  0.0031472465489060 ]
  - [   0.0014989731134847,  0.0007999357767403,  0.0031907563097775 ]
  - [   0.0016619592206553,  0.0008227695361711,  0.0031754139345139 ]
  - [   0.0014376095496118,  0.0008352060685866,  0.0031712921336293 ]
  - [   0.0014443460386246,  0.0008443939150311,  0.0031739394180477 ]
  - [   0.0014451170573011,  0.0008260583854280,  0.0031684928108007 ]
  - [   0.0021848403848708,  0.0005292571149766,  0.0026376610621810 ]
  - [   0.0014283366035670,  0.0008363135857508,  0.0031713393982500 ]
  - [   0.0021601910702884,  0.0011231249663979,  0.0036794077605009 ]
  - [   0.0014363531954587,  0.0008227477082983,  0.0031546810641885 ]
  - [   0.0014376784674823,  0.0008476718794554,  0.0031845711637288 ]
  - [   0.0014038325753063,  0.0008352193399332,  0.0031731526833028 ]
  - [   0.0014583052834496,  0.0008353416924365,  0.0031698704697192 ]
  - [   0.0014398461207747,  0.0008477000519633,  0.0031641358509660 ]
  - [   0.0014400297077373,  0.0008230663370341,  0.0031762311700732 ]
  - [   0.0014630989171565,  0.0008009531884454,  0.0029091830365360 ]
  - [   0.0014187155757099,  0.0008347643888555,  0.0031703137792647 ]
  - [   0.0014571194769815,  0.0008659599698149,  0.0034199364017695 ]
  - [   0.0061105871573091,  0.0035027731209993,  0.0313584096729755 ]
  - [   0.0062705548480153,  0.0036161700263619,  0.0310524068772793 ]
  - [   0.0061083640903234,  0.0037280619144440,  0.0307558868080378 ]
  - [   0.0062585053965449,  0.0036226166412234,  0.0310516711324453 ]
  - [   0.0062584457919002,  0.0036098496057093,  0.0310532525181770 ]
  - [   0.0062621282413602,  0.0036158587317914,  0.0310520492494106 ]
  - [   0.0063042794354260,  0.0036147581413388,  0.0310521908104420 ]
  - [   0.0062636532820761,  0.0036142780445516,  0.0310643613338470 ]
  - [   0.0062645566649735,  0.0036161362659186,  0.0310393422842026 ]
  - [   0.0065585374832153,  0.0037076629232615,  0.0308581143617630 ]
  - [   0.0062484364025295,  0.0036168450023979,  0.0310523007065058 ]
  - [   0.0065367538481951,  0.0035242615267634,  0.0312654562294483 ]
  - [   0.0062628118321300,  0.0036077024415135,  0.0310529004782438 ]
  - [   0.0062639829702675,  0.0036237917374820,  0.0310524646192789 ]
  - [   0.0061576925218105,  0.0036132931709290,  0.0310515556484461 ]
  - [   0.0063883117400110,  0.0036088803317398,  0.0310556571930647 ]
  - [   0.0059822546318173,  0.0037153558805585,  0.0310069695115089 ]
  - [   0.0059403376653790,  0.0034870514646173,  0.0311210677027702 ]
  - [   0.0119823440909386,  0.0074182706885040,  0.0105745960026979 ]
  - [   0.0077522709034383,  0.0044516716152430,  0.0111095532774925 ]
  - [   0.0117569658905268,  0.0016695586964488,  0.0115925818681717 ]
  - [   0.0077060461044312,  0.0044784303754568,  0.0111102163791656 ]
  - [   0.0077054649591446,  0.0044227335602045,  0.0111093707382679 ]
  - [   0.0076609626412392,  0.0044502299278975,  0.0111086983233690 ]
  - [   0.0069041140377522,  0.0044741202145815,  0.0110984500497580 ]
  - [   0.0076958723366261,  0.0044308546930552,  0.0113793890923262 ]
  - [   0.0076986439526081,  0.0044721402227879,  0.0108427908271551 ]
  - [   0.0077131730504334,  0.0044440128840506,  0.0110808573663235 ]
  - [   0.0076993154361844,  0.0044509889557958,  0.0111091928556561 ]
  - [   0.0077122822403908,  0.0044586504809558,  0.0111383553594351 ]
  - [   0.0077057736925781,  0.0044466936960816,  0.0111148338764906 ]
  - [   0.0077053960412741,  0.0044541610404849,  0.0111035425215960 ]
  - [   0.0077021173201501,  0.0044492976740003,  0.0111089982092381 ]
  - [   0.0077250143513083,  0.0044503146782517,  0.0111093446612358 ]
  - [   0.0076924012973905,  0.0044554886408150,  0.0110837128013372 ]
  - [   0.0076932138763368,  0.0044456911273301,  0.0111339585855603 ]
  - [  -0.0033593426924199, -0.0019932980649173, -0.0091118821874261 ]
  - [  -0.0034654261544347, -0.0019760744180530, -0.0090986974537373 ]
  - [  -0.0034614875912666, -0.0020078865345567, -0.0091858990490437 ]
  - [  -0.0034593923483044, -0.0020217122510076, -0.0091171972453594 ]
  - [  -0.0034419714938849, -0.0019935637246817, -0.0091442940756679 ]
  - [  -0.0034591113217175, -0.0019687616731972, -0.0091702491044998 ]
  - [  -0.0034535161685199, -0.0019767936319113, -0.0091629847884178 ]
  - [  -0.0034524849615991, -0.0020118532702327, -0.0091276410967112 ]
  - [  -0.0034504651557654, -0.0019940715283155, -0.0091447904706001 ]
  - [  -0.0048247454687953, -0.0019661120604724, -0.0091954059898853 ]
  - [  -0.0034063048660755, -0.0021536517888308, -0.0091260205954313 ]
  - [  -0.0034025572240353, -0.0018327198922634, -0.0091650746762753 ]
  - [  -0.0032515909988433, -0.0018909935606644, -0.0090098762884736 ]
  - [  -0.0034813806414604, -0.0019941530190408, -0.0091447755694389 ]
  - [  -0.0032536359503865, -0.0020970655605197, -0.0092806117609143 ]
  - [  -0.0032787725795060, -0.0022461945191026, -0.0090352026745677 ]
  - [  -0.0032779024913907, -0.0017186703626066, -0.0092669548466802 ]
  - [  -0.0034631004091352, -0.0019928032997996, -0.0091450270265341 ]
  - [  -0.0007590129971504, -0.0004374310374260,  0.0004100146470591 ]
  - [  -0.0007579773664474, -0.0004681535065174,  0.0004119399236515 ]
  - [  -0.0008448921144009, -0.0004519596695900,  0.0004102746606804 ]
  - [  -0.0007864832878113, -0.0004519037902355,  0.0004113118629903 ]
  - [  -0.0007816627621651, -0.0004488527774811,  0.0004130228771828 ]
  - [  -0.0007782168686390, -0.0004536211490631,  0.0004091649316251 ]
  - [  -0.0006987974047661, -0.0005369689315557,  0.0002956986427307 ]
  - [  -0.0007862970232964, -0.0004526879638433,  0.0004106414271519 ]
  - [  -0.0007040575146675, -0.0003721863031387,  0.0005240178434178 ]
  - [  -0.0008693970739841, -0.0006005726754665,  0.0003400463610888 ]
  - [  -0.0008678510785103, -0.0003043264150620,  0.0004725987091660 ]
  - [  -0.0001646615564823, -0.0005210973322392,  0.0003887163475156 ]
  - [  -0.0006135515868664, -0.0004496350884438,  0.0004101470112801 ]
  - [  -0.0008880458772182, -0.0003458298742771,  0.0003739334642887 ]
  - [  -0.0008817575871944, -0.0005536563694477,  0.0004458986222744 ]
  - [   0.0052411109209061, -0.0036075077950954,  0.0025836415588856 ]
  - [  -0.0010662376880646, -0.0004530139267445,  0.0004090890288353 ]
  - [   0.0049900859594345,  0.0025065056979656, -0.0016329586505890 ]
- atom:    1
  displacement:
    [  -0.0100000000000000,  0.0000000000000000,  0.0000000000000000 ]
  forces:
  - [   0.0090465229004622, -0.0063716303557158, -0.0366484448313713 ]
  - [  -0.0109646748751402, -0.0064545087516308, -0.0365860685706139 ]
  - [  -0.0109588950872421, -0.0064619835466146, -0.0366094000637531 ]
  - [  -0.0112290494143963, -0.0063077309168875, -0.0364782363176346 ]
  - [  -0.0111589776352048, -0.0064567811787128, -0.0365977659821510 ]
  - [  -0.0112294452264905, -0.0066114841029048, -0.0367189571261406 ]
  - [  -0.0112300198525190, -0.0062958779744804, -0.0364887118339539 ]
  - [  -0.0112288920208812, -0.0066210487857461, -0.0367093086242676 ]
  - [  -0.0111596751958132, -0.0064558796584606, -0.0365983247756958 ]
  - [  -0.0111425127834082, -0.0064562000334263, -0.0365974307060242 ]
  - [  -0.0111766587942839, -0.0064507229253650, -0.0365865603089333 ]
  - [  -0.0111757349222898, -0.0064614294096828, -0.0366100594401360 ]
  - [  -0.0111789666116238, -0.0064608925022185, -0.0366063192486763 ]
  - [  -0.0111737139523029, -0.0064562810584903, -0.0365984290838242 ]
  - [  -0.0111788697540760, -0.0064518908038735, -0.0365897938609123 ]
  - [  -0.0111785214394331, -0.0064494861289859, -0.0366178676486015 ]
  - [  -0.0111784469336271, -0.0064630960114300, -0.0365781486034393 ]
  - [  -0.0111739011481404, -0.0064559374004602, -0.0365987420082092 ]
  - [   0.0013882613275200,  0.0007973101455718,  0.0031932785641402 ]
  - [   0.0013910282868892,  0.0008716918528080,  0.0031495867297053 ]
  - [   0.0012312779435888,  0.0008356904145330,  0.0031718709506094 ]
  - [   0.0014544200384989,  0.0008360809879377,  0.0031715417280793 ]
  - [   0.0014467245200649,  0.0008259494206868,  0.0031683540437371 ]
  - [   0.0014472544426098,  0.0008445631829090,  0.0031737161334604 ]
  - [   0.0007185598369688,  0.0011328642722219,  0.0036922625731677 ]
  - [   0.0014633924001828,  0.0008358375634998,  0.0031708849128336 ]
  - [   0.0007185157737695,  0.0005377812194638,  0.0026513063348830 ]
  - [   0.0014556720852852,  0.0008478189120069,  0.0031866326462477 ]
  - [   0.0014561549760401,  0.0008229800732806,  0.0031555225141346 ]
  - [   0.0014885750133544,  0.0008357955375686,  0.0031706634908915 ]
  - [   0.0014342307113111,  0.0008352237055078,  0.0031703466083854 ]
  - [   0.0014536178205162,  0.0008229571394622,  0.0031768805347383 ]
  - [   0.0014534344663844,  0.0008471824112348,  0.0031642327085137 ]
  - [   0.0014323067152873,  0.0008676057332195,  0.0034255450591445 ]
  - [   0.0014746534870937,  0.0008350176503882,  0.0031707496382296 ]
  - [   0.0014312519924715,  0.0008022316033021,  0.0029153327923268 ]
  - [   0.0064119934104383,  0.0037291259504855,  0.0307492557913065 ]
  - [   0.0062512541189790,  0.0036162119358778,  0.0310526732355356 ]
  - [   0.0064091878011823,  0.0035043978132308,  0.0313514247536659 ]
  - [   0.0062616057693958,  0.0036095371469855,  0.0310528334230185 ]
  - [   0.0062615592032671,  0.0036227554082870,  0.0310519561171532 ]
  - [   0.0062584644183517,  0.0036157164722681,  0.0310524497181177 ]
  - [   0.0062155378982425,  0.0036152792163193,  0.0310519598424435 ]
  - [   0.0062554776668549,  0.0036166307982057,  0.0310402363538742 ]
  - [   0.0062584206461906,  0.0036147623322904,  0.0310648400336504 ]
  - [   0.0059721604920924,  0.0035265106707811,  0.0312557443976402 ]
  - [   0.0062722023576498,  0.0036162962205708,  0.0310531221330166 ]
  - [   0.0059761572629213,  0.0037112864665687,  0.0308486521244049 ]
  - [   0.0062577649950981,  0.0036244404036552,  0.0310530979186296 ]
  - [   0.0062589226290584,  0.0036078039556742,  0.0310526788234711 ]
  - [   0.0063634738326073,  0.0036181567702442,  0.0310531780123711 ]
  - [   0.0061337351799011,  0.0036210394464433,  0.0310528073459864 ]
  - [   0.0065563707612455,  0.0035051596350968,  0.0311077330261469 ]
  - [   0.0065654907375574,  0.0037333727814257,  0.0309937987476587 ]
  - [   0.0035155187360942,  0.0015590088441968,  0.0116238743066788 ]
  - [   0.0076565928757191,  0.0044504683464766,  0.0111094918102026 ]
  - [   0.0035701105371118,  0.0073032658547163,  0.0106078758835793 ]