# Thermal properties / unit cell (natom)

unit:
  temperature:   K
  free_energy:   kJ/mol
  entropy:       J/K/mol
  heat_capacity: J/K/mol

natom: 8    
cutoff_frequency: 0.00000
num_modes: 147744
num_integrated_modes: 147742

zero_point_energy:      13.5823543

thermal_properties:
- temperature:         0.0000000
  free_energy:        13.5823543
  entropy:             0.0000000
  heat_capacity:       0.0000000
  energy:             13.5823543

- temperature:        10.0000000
  free_energy:        13.5740861
  entropy:             3.4365017
  heat_capacity:      10.8347279
  energy:             13.6084511

- temperature:        20.0000000
  free_energy:        13.4545250
  entropy:            23.0157829
  heat_capacity:      51.8676402
  energy:             13.9148406

- temperature:        30.0000000
  free_energy:        13.0864151
  entropy:            51.0611781
  heat_capacity:      86.4687996
  energy:             14.6182505

- temperature:        40.0000000
  free_energy:        12.4335351
  entropy:            79.2417606
  heat_capacity:     108.9566212
  energy:             15.6032055

- temperature:        50.0000000
  free_energy:        11.5087819
  entropy:           105.3182755
  heat_capacity:     124.5368843
  energy:             16.7746956

- temperature:        60.0000000
  free_energy:        10.3347941
  entropy:           129.1174701
  heat_capacity:     136.4260654
  energy:             18.0818423

- temperature:        70.0000000
  free_energy:         8.9331862
  entropy:           150.8903647
  heat_capacity:     145.9814599
  energy:             19.4955117

- temperature:        80.0000000
  free_energy:         7.3228209
  entropy:           170.9114125
  heat_capacity:     153.8083601
  energy:             20.9957339

- temperature:        90.0000000
  free_energy:         5.5200215
  entropy:           189.4119875
  heat_capacity:     160.2589577
  energy:             22.5671004

- temperature:       100.0000000
  free_energy:         3.5390135
  entropy:           206.5817920
  heat_capacity:     165.5918794
  energy:             24.1971927

- temperature:       110.0000000
  free_energy:         1.3922938
  entropy:           222.5783467
  heat_capacity:     170.0157509
  energy:             25.8759119

- temperature:       120.0000000
  free_energy:        -0.9090875
  entropy:           237.5344878
  heat_capacity:     173.7015465
  energy:             27.5950510

- temperature:       130.0000000
  free_energy:        -3.3553074
  entropy:           251.5635134
  heat_capacity:     176.7884081
  energy:             29.3479494

- temperature:       140.0000000
  free_energy:        -5.9375935
  entropy:           264.7628049
  heat_capacity:     179.3885420
  energy:             31.1291992

- temperature:       150.0000000
  free_energy:        -8.6480795
  entropy:           277.2165270
  heat_capacity:     181.5918870
  energy:             32.9343996

- temperature:       160.0000000
  free_energy:       -11.4796834
  entropy:           288.9977436
  heat_capacity:     183.4703514
  energy:             34.7599556

- temperature:       170.0000000
  free_energy:       -14.4260058
  entropy:           300.1701319
  heat_capacity:     185.0814458
  energy:             36.6029166

- temperature:       180.0000000
  free_energy:       -17.4812430
  entropy:           310.7893943
  heat_capacity:     186.4712738
  energy:             38.4608479

- temperature:       190.0000000
  free_energy:       -20.6401136
  entropy:           320.9044346
  heat_capacity:     187.6769317
  energy:             40.3317290

- temperature:       200.0000000
  free_energy:       -23.8977952
  entropy:           330.5583421
  heat_capacity:     188.7284060
  energy:             42.2138733

- temperature:       210.0000000
  free_energy:       -27.2498708
  entropy:           339.7892174
  heat_capacity:     189.6500601
  energy:             44.1058649

- temperature:       220.0000000
  free_energy:       -30.6922825
  entropy:           348.6308680
  heat_capacity:     190.4617962
  energy:             46.0065085

- temperature:       230.0000000
  free_energy:       -34.2212914
  entropy:           357.1133941
  heat_capacity:     191.1799621
  energy:             47.9147892

- temperature:       240.0000000
  free_energy:       -37.8334432
  entropy:           365.2636846
  heat_capacity:     191.8180599
  energy:             49.8298411

- temperature:       250.0000000
  free_energy:       -41.5255383
  entropy:           373.1058374
  heat_capacity:     192.3873029
  energy:             51.7509211

- temperature:       260.0000000
  free_energy:       -45.2946053
  entropy:           380.6615165
  heat_capacity:     192.8970525
  energy:             53.6773890

- temperature:       270.0000000
  free_energy:       -49.1378790
  entropy:           387.9502561
  heat_capacity:     193.3551649
  energy:             55.6086902

- temperature:       280.0000000
  free_energy:       -53.0527797
  entropy:           394.9897216
  heat_capacity:     193.7682659
  energy:             57.5443423

- temperature:       290.0000000
  free_energy:       -57.0368961
  entropy:           401.7959322
  heat_capacity:     194.1419702
  energy:             59.4839242

- temperature:       300.0000000
  free_energy:       -61.0879695
  entropy:           408.3834532
  heat_capacity:     194.4810581
  energy:             61.4270664

- temperature:       310.0000000
  free_energy:       -65.2038806
  entropy:           414.7655622
  heat_capacity:     194.7896169
  energy:             63.3734437

- temperature:       320.0000000
  free_energy:       -69.3826366
  entropy:           420.9543918
  heat_capacity:     195.0711569
  energy:             65.3227688

- temperature:       330.0000000
  free_energy:       -73.6223613
  entropy:           426.9610551
  heat_capacity:     195.3287042
  energy:             67.2747869

- temperature:       340.0000000
  free_energy:       -77.9212846
  entropy:           432.7957537
  heat_capacity:     195.5648783
  energy:             69.2292716

- temperature:       350.0000000
  free_energy:       -82.2777345
  entropy:           438.4678724
  heat_capacity:     195.7819546
  energy:             71.1860209

- temperature:       360.0000000
  free_energy:       -86.6901290
  entropy:           443.9860632
  heat_capacity:     195.9819172
  energy:             73.1448537

- temperature:       370.0000000
  free_energy:       -91.1569694
  entropy:           449.3583171
  heat_capacity:     196.1665013
  energy:             75.1056080

- temperature:       380.0000000
  free_energy:       -95.6768336
  entropy:           454.5920295
  heat_capacity:     196.3372301
  energy:             77.0681376

- temperature:       390.0000000
  free_energy:      -100.2483711
  entropy:           459.6940562
  heat_capacity:     196.4954442
  energy:             79.0323109

- temperature:       400.0000000
  free_energy:      -104.8702971
  entropy:           464.6707644
  heat_capacity:     196.6423275
  energy:             80.9980087

- temperature:       410.0000000
  free_energy:      -109.5413884
  entropy:           469.5280770
  heat_capacity:     196.7789282
  energy:             82.9651232

- temperature:       420.0000000
  free_energy:      -114.2604791
  entropy:           474.2715123
  heat_capacity:     196.9061770
  energy:             84.9335561

- temperature:       430.0000000
  free_energy:      -119.0264563
  entropy:           478.9062199
  heat_capacity:     197.0249024
  energy:             86.9032183

- temperature:       440.0000000
  free_energy:      -123.8382571
  entropy:           483.4370121
  heat_capacity:     197.1358439
  energy:             88.8740282

- temperature:       450.0000000
  free_energy:      -128.6948652
  entropy:           487.8683925
  heat_capacity:     197.2396628
  energy:             90.8459114

- temperature:       460.0000000
  free_energy:      -133.5953077
  entropy:           492.2045813
  heat_capacity:     197.3369523
  energy:             92.8187997

- temperature:       470.0000000
  free_energy:      -138.5386527
  entropy:           496.4495388
  heat_capacity:     197.4282454
  energy:             94.7926305

- temperature:       480.0000000
  free_energy:      -143.5240068
  entropy:           500.6069855
  heat_capacity:     197.5140222
  energy:             96.7673462

- temperature:       490.0000000
  free_energy:      -148.5505124
  entropy:           504.6804213
  heat_capacity:     197.5947158
  energy:             98.7428940

- temperature:       500.0000000
  free_energy:      -153.6173462
  entropy:           508.6731422
  heat_capacity:     197.6707180
  energy:            100.7192249

- temperature:       510.0000000
  free_energy:      -158.7237166
  entropy:           512.5882559
  heat_capacity:     197.7423838
  energy:            102.6962939

- temperature:       520.0000000
  free_energy:      -163.8688624
  entropy:           516.4286954
  heat_capacity:     197.8100352
  energy:            104.6740592

- temperature:       530.0000000
  free_energy:      -169.0520508
  entropy:           520.1972322
  heat_capacity:     197.8739652
  energy:            106.6524822

- temperature:       540.0000000
  free_energy:      -174.2725761
  entropy:           523.8964873
  heat_capacity:     197.9344406
  energy:            108.6315270

- temperature:       550.0000000
  free_energy:      -179.5297579
  entropy:           527.5289423
  heat_capacity:     197.9917047
  energy:            110.6111603

- temperature:       560.0000000
  free_energy:      -184.8229401
  entropy:           531.0969487
  heat_capacity:     198.0459801
  energy:            112.5913512

- temperature:       570.0000000
  free_energy:      -190.1514895
  entropy:           534.6027371
  heat_capacity:     198.0974703
  energy:            114.5720706

- temperature:       580.0000000
  free_energy:      -195.5147946
  entropy:           538.0484249
  heat_capacity:     198.1463619
  energy:            116.5532919

- temperature:       590.0000000
  free_energy:      -200.9122644
  entropy:           541.4360241
  heat_capacity:     198.1928263
  energy:            118.5349898

- temperature:       600.0000000
  free_energy:      -206.3433278
  entropy:           544.7674478
  heat_capacity:     198.2370209
  energy:            120.5171409

- temperature:       610.0000000
  free_energy:      -211.8074322
  entropy:           548.0445169
  heat_capacity:     198.2790906
  energy:            122.4997231

- temperature:       620.0000000
  free_energy:      -217.3040428
  entropy:           551.2689658
  heat_capacity:     198.3191691
  energy:            124.4827160

- temperature:       630.0000000
  free_energy:      -222.8326416
  entropy:           554.4424475
  heat_capacity:     198.3573797
  energy:            126.4661003

- temperature:       640.0000000
  free_energy:      -228.3927271
  entropy:           557.5665388
  heat_capacity:     198.3938362
  energy:            128.4498578

- temperature:       650.0000000
  free_energy:      -233.9838128
  entropy:           560.6427451
  heat_capacity:     198.4286441
  energy:            130.4339715

- temperature:       660.0000000
  free_energy:      -239.6054272
  entropy:           563.6725040
  heat_capacity:     198.4619010
  energy:            132.4184255

- temperature:       670.0000000
  free_energy:      -245.2571126
  entropy:           566.6571900
  heat_capacity:     198.4936975
  energy:            134.4032047

- temperature:       680.0000000
  free_energy:      -250.9384251
  entropy:           569.5981176
  heat_capacity:     198.5241176
  energy:            136.3882949

- temperature:       690.0000000
  free_energy:      -256.6489333
  entropy:           572.4965450
  heat_capacity:     198.5532393
  energy:            138.3736827

- temperature:       700.0000000
  free_energy:      -262.3882184
  entropy:           575.3536770
  heat_capacity:     198.5811353
  energy:            140.3593556

- temperature:       710.0000000
  free_energy:      -268.1558731
  entropy:           578.1706685
  heat_capacity:     198.6078733
  energy:            142.3453015

- temperature:       720.0000000
  free_energy:      -273.9515016
  entropy:           580.9486264
  heat_capacity:     198.6335163
  energy:            144.3315094

- temperature:       730.0000000
  free_energy:      -279.7747190
  entropy:           583.6886129
  heat_capacity:     198.6581232
  energy:            146.3179684

- temperature:       740.0000000
  free_energy:      -285.6251507
  entropy:           586.3916477
  heat_capacity:     198.6817490
  energy:            148.3046686

- temperature:       750.0000000
  free_energy:      -291.5024321
  entropy:           589.0587098
  heat_capacity:     198.7044448
  energy:            150.2916003

- temperature:       760.0000000
  free_energy:      -297.4062081
  entropy:           591.6907403
  heat_capacity:     198.7262589
  energy:            152.2787545

- temperature:       770.0000000
  free_energy:      -303.3361331
  entropy:           594.2886439
  heat_capacity:     198.7472362
  energy:            154.2661227

- temperature:       780.0000000
  free_energy:      -309.2918702
  entropy:           596.8532907
  heat_capacity:     198.7674189
  energy:            156.2536966

- temperature:       790.0000000
  free_energy:      -315.2730909
  entropy:           599.3855183
  heat_capacity:     198.7868466
  energy:            158.2414685

- temperature:       800.0000000
  free_energy:      -321.2794752
  entropy:           601.8861329
  heat_capacity:     198.8055562
  energy:            160.2294311

- temperature:       810.0000000
  free_energy:      -327.3107108
  entropy:           604.3559113
  heat_capacity:     198.8235828
  energy:            162.2175774

- temperature:       820.0000000
  free_energy:      -333.3664931
  entropy:           606.7956021
  heat_capacity:     198.8409591
  energy:            164.2059006

- temperature:       830.0000000
  free_energy:      -339.4465249
  entropy:           609.2059270
  heat_capacity:     198.8577160
  energy:            166.1943945

- temperature:       840.0000000
  free_energy:      -345.5505161
  entropy:           611.5875822
  heat_capacity:     198.8738825
  energy:            168.1830530

- temperature:       850.0000000
  free_energy:      -351.6781832
  entropy:           613.9412394
  heat_capacity:     198.8894859
  energy:            170.1718703

- temperature:       860.0000000
  free_energy:      -357.8292497
  entropy:           616.2675472
  heat_capacity:     198.9045521
  energy:            172.1608409

- temperature:       870.0000000
  free_energy:      -364.0034451
  entropy:           618.5671319
  heat_capacity:     198.9191054
  energy:            174.1499596

- temperature:       880.0000000
  free_energy:      -370.2005053
  entropy:           620.8405985
  heat_capacity:     198.9331688
  energy:            176.1392214

- temperature:       890.0000000
  free_energy:      -376.4201720
  entropy:           623.0885319
  heat_capacity:     198.9467640
  energy:            178.1286214

- temperature:       900.0000000
  free_energy:      -382.6621927
  entropy:           625.3114976
  heat_capacity:     198.9599114
  energy:            180.1181552

- temperature:       910.0000000
  free_energy:      -388.9263205
  entropy:           627.5100426
  heat_capacity:     198.9726307
  energy:            182.1078182

- temperature:       920.0000000
  free_energy:      -395.2123139
  entropy:           629.6846960
  heat_capacity:     198.9849400
  energy:            184.0976064

- temperature:       930.0000000
  free_energy:      -401.5199365
  entropy:           631.8359701
  heat_capacity:     198.9968568
  energy:            186.0875157

- temperature:       940.0000000
  free_energy:      -407.8489570
  entropy:           633.9643610
  heat_capacity:     199.0083976
  energy:            188.0775423

- temperature:       950.0000000
  free_energy:      -414.1991491
  entropy:           636.0703490
  heat_capacity:     199.0195780
  energy:            190.0676825

- temperature:       960.0000000
  free_energy:      -420.5702909
  entropy:           638.1543996
  heat_capacity:     199.0304128
  energy:            192.0579327

- temperature:       970.0000000
  free_energy:      -426.9621654
  entropy:           640.2169640
  heat_capacity:     199.0409162
  energy:            194.0482896

- temperature:       980.0000000
  free_energy:      -433.3745600
  entropy:           642.2584796
  heat_capacity:     199.0511015
  energy:            196.0387500

- temperature:       990.0000000
  free_energy:      -439.8072663
  entropy:           644.2793706
  heat_capacity:     199.0609813
  energy:            198.0293106

- temperature:      1000.0000000
  free_energy:      -446.2600800
  entropy:           646.2800487
  heat_capacity:     199.0705678
  energy:            200.0199686
