# Tetrahedron method
       -0.6690931144        0.0000000000
       -0.6289475305        0.0000000000
       -0.5888019465        0.0000000000
       -0.5486563626        0.0000000000
       -0.5085107787        0.0000000000
       -0.4683651947        0.0000000000
       -0.4282196108        0.0000000000
       -0.3880740268        0.0000000000
       -0.3479284429        0.0000000000
       -0.3077828590        0.0000000000
       -0.2676372750        0.0000000000
       -0.2274916911        0.0000000000
       -0.1873461071        0.0000000000
       -0.1472005232        0.0000000000
       -0.1070549393        0.0000000000
       -0.0669093553        0.0000000000
       -0.0267637714        0.0000000000
        0.0133818125        0.0001142019
        0.0535273965        0.0017965635
        0.0936729804        0.0054080542
        0.1338185644        0.0123798104
        0.1739641483        0.0343558265
        0.2141097322        0.0502070352
        0.2542553162        0.0720877258
        0.2944009001        0.1014309260
        0.3345464841        0.1337283789
        0.3746920680        0.1709750097
        0.4148376519        0.2138462081
        0.4549832359        0.2635026926
        0.4951288198        0.3215667354
        0.5352744037        0.3868655306
        0.5754199877        0.4597098539
        0.6155655716        0.5506297326
        0.6557111556        0.6499528212
        0.6958567395        0.7708450480
        0.7360023234        0.9202803614
        0.7761479074        1.1168148486
        0.8162934913        1.3690084402
        0.8564390752        1.5513754911
        0.8965846592        1.8594061545
        0.9367302431        2.2122726924
        0.9768758271        2.7417888723
        1.0170214110        2.9981026917
        1.0571669949        3.3588814018
        1.0973125789        3.9435141057
        1.1374581628        4.4269204274
        1.1776037468        4.2416228381
        1.2177493307        4.2938359836
        1.2578949146        4.7858418122
        1.2980404986        4.8884651490
        1.3381860825        7.6643831998
        1.3783316664        7.8811435011
        1.4184772504        6.3981134290
        1.4586228343        6.5347757935
        1.4987684183        5.8870097565
        1.5389140022        4.4504089302
        1.5790595861        4.6258064485
        1.6192051701        7.2453691356
        1.6593507540        6.0609767880
        1.6994963379        6.0213760371
        1.7396419219        6.4240563371
        1.7797875058        5.9499160902
        1.8199330898        5.0932401915
        1.8600786737        4.9521285774
        1.9002242576        4.8501096375
        1.9403698416        4.1634450334
        1.9805154255        3.1271839820
        2.0206610095        3.9020950257
        2.0608065934        4.3964029607
        2.1009521773        5.0587505840
        2.1410977613        4.6279200098
        2.1812433452        3.9604874699
        2.2213889291        3.5781229142
        2.2615345131        3.4084952299
        2.3016800970        2.9392290799
        2.3418256810        2.7378115891
        2.3819712649        2.2801655182
        2.4221168488        2.3908332614
        2.4622624328        2.1239755083
        2.5024080167        2.0770910154
        2.5425536007        2.2307799132
        2.5826991846        2.4608443776
        2.6228447685        4.1054632627
        2.6629903525        1.0878774290
        2.7031359364        1.1115005755
        2.7432815203        2.0228880775
        2.7834271043        2.6911348006
        2.8235726882        3.3974295497
        2.8637182722        3.8144200531
        2.9038638561        3.6463844003
        2.9440094400        3.2428203259
        2.9841550240        2.2168256995
        3.0243006079        1.6110947734
        3.0644461918        0.8732606944
        3.1045917758        0.2995526280
        3.1447373597        0.0000000000
        3.1848829437        0.0000000000
        3.2250285276        0.0000000000
        3.2651741115        0.0000000000
        3.3053196955        0.0000000000
        3.3454652794        0.0000000000
        3.3856108634        0.0000000000
        3.4257564473        0.0000000000
        3.4659020312        0.0000000000
        3.5060476152        0.0000000000
        3.5461931991        0.0000000000
        3.5863387830        0.0000000000
        3.6264843670        0.0000000000
        3.6666299509        0.0000000000
        3.7067755349        0.0000000000
        3.7469211188        0.0000000000
        3.7870667027        0.0000000000
        3.8272122867        0.0000000000
        3.8673578706        0.0000000000
        3.9075034545        0.0000000000
        3.9476490385        0.0000000000
        3.9877946224        0.0000000000
        4.0279402064        0.0000000000
        4.0680857903        0.0000000000
        4.1082313742        0.0000000000
        4.1483769582        0.0000000000
        4.1885225421        0.0000000000
        4.2286681261        0.0000000000
        4.2688137100        0.0000000000
        4.3089592939        0.0000000000
        4.3491048779        0.0000000000
        4.3892504618        0.0000000000
        4.4293960457        0.0000000000
        4.4695416297        0.0000000000
        4.5096872136        0.4592464964
        4.5498327976        1.2899491149
        4.5899783815        1.0092666388
        4.6301239654        0.8053546620
        4.6702695494        0.6329182338
        4.7104151333        0.5676271197
        4.7505607173        0.5376180257
        4.7907063012        0.4849530986
        4.8308518851        0.4512521628
        4.8709974691        0.4423212534
        4.9111430530        0.4279793060
        4.9512886369        0.4087855822
        4.9914342209        0.3966929250
        5.0315798048        0.3893135094
        5.0717253888        0.3847010507
        5.1118709727        0.3771569497
        5.1520165566        0.3722169627
        5.1921621406        0.3685619746
        5.2323077245        0.4408661545
        5.2724533084        0.5058733901
        5.3125988924        0.5652656494
        5.3527444763        0.6311357648
        5.3928900603        0.7133529726
        5.4330356442        0.8236374427
        5.4731812281        0.9848760850
        5.5133268121        1.3423645534
        5.5534723960        1.5356675978
        5.5936179800        1.5571771948
        5.6337635639        1.7011117310
        5.6739091478        2.1136908985
        5.7140547318        3.1642458307
        5.7542003157        1.0358054230
        5.7943458996        3.3332211400
        5.8344914836        3.0626289393
        5.8746370675        1.9518862600
        5.9147826515        1.6292964777
        5.9549282354        1.4397829469
        5.9950738193        1.3388871344
        6.0352194033        2.8845667845
        6.0753649872        3.5437776759
        6.1155105711        3.3579040314
        6.1556561551        3.3040739382
        6.1958017390        3.6552056975
        6.2359473230        3.8253948750
        6.2760929069        4.2501603196
        6.3162384908        2.4925764324
        6.3563840748        2.0335361910
        6.3965296587        1.7630797276
        6.4366752427        1.4246748625
        6.4768208266        1.0815361244
        6.5169664105        0.8314123393
        6.5571119945        0.5875947855
        6.5972575784        0.2995764604
        6.6374031623        0.1181759208
        6.6775487463        0.0637565208
        6.7176943302        0.0000000000
        6.7578399142        0.0000000000
        6.7979854981        0.0000000000
        6.8381310820        0.0000000000
        6.8782766660        0.0000000000
        6.9184222499        0.0000000000
        6.9585678339        0.0000000000
        6.9987134178        0.0000000000
        7.0388590017        0.0000000000
        7.0790045857        0.0000000000
        7.1191501696        0.0000000000
        7.1592957535        0.0000000000
        7.1994413375        0.0000000000
        7.2395869214        0.0000000000
        7.2797325054        0.0000000000
        7.3198780893        0.0000000000
        7.3600236732        0.0000000000
