9
Lattice="4.179428774365796 -3.0046982329724718e-05 1.5941155666071583 2.090245609820947 6.204236436988375 0.7957279340793448 -0.12830673817990032 0.0009936523518270753 6.610796617433054" Properties=species:S:1:pos:R:3:forces:R:3 structure_index=0 total_energy=-20.808483123779297 stress="-0.021254103630781174 -0.00016957178013399243 -0.01906612701714039 -0.00016966118710115552 0.030078599229454994 0.0005494720535352826 -0.019066251814365387 0.0005495601799339056 0.02055266685783863" pbc="T T T"
Li       4.50045931       4.80294353       8.06784706      -0.00900317      -0.02523448       0.02020243
Li       0.31849518       0.73595782       6.47351887      -0.00558753       0.02631529       0.02150869
Li       1.81181165       4.71330243       2.56309473       0.00123050       0.00525762      -0.00053559
Li       1.81305251       0.82727509       2.56350545      -0.00189906      -0.00834846       0.00023023
Li       2.37820841       2.76903743       7.35359672       0.00226317       0.00179876      -0.00621793
Li       1.11809274       2.76991695       4.38368110      -0.00265545      -0.00029613       0.00611557
Li       3.17594808       0.73633296       5.26357365       0.00768071       0.02550592      -0.02026498
Li       3.17688881       4.80266956       5.26315124       0.00702053      -0.02515894      -0.02081967
Sn       3.90168939       2.76923604       3.36029225       0.00095030       0.00016041      -0.00021875
4
Lattice="3.343562742336572 -0.0004428046451994503 -0.0021036051839301803 0.00041359075254837683 4.99525872064043 0.004232438400930392 0.004088733754555436 -0.004716777263743746 4.98234797965882" Properties=species:S:1:pos:R:3:forces:R:3 structure_index=1 total_energy=-13.04285717010498 stress="-0.034882351756095886 -0.0004296288825571537 0.002069557085633278 -0.0004296613915357739 0.05053935945034027 0.002009678166359663 0.002069571753963828 0.0020096530206501484 -0.08360828459262848" pbc="T T T"
Li       1.81196290       4.10876012       2.21497789       0.00040815       0.00117298      -0.04511255
Li       1.81435064       1.60988912       4.21266722      -0.00027742      -0.00108785       0.04582513
Sn       0.14172140       4.10610380       4.67617230       0.00145201       0.00123913       0.00159737
Sn       0.14120225       1.61309248       1.75428176      -0.00158274      -0.00132425      -0.00230995
19
Lattice="7.384808138632554 0.0040688347312423994 -0.2052521119916189 -0.17729204243514116 7.3813640987307485 0.3121907424802783 -0.009680086936653957 0.009407898056851867 7.404886276987571" Properties=species:S:1:pos:R:3:forces:R:3 structure_index=2 total_energy=-58.628074645996094 stress="-0.008252091705799103 -0.0009523764601908624 -0.0005534229567274451 -0.0009524577762931585 -0.00863146036863327 0.0005898428498767316 -0.0005533076473511755 0.0005899316165596247 -0.008973157964646816" pbc="T T T"
Li       5.69270050       1.17397454       1.04316222      -0.00538603      -0.00733029      -0.00556758
Li       1.52052171       6.61803080       5.26717529      -0.00839850      -0.00510279      -0.00917781
Li       0.63861889       6.97683331       2.02549034      -0.00571034      -0.00009098      -0.00014443
Li       3.31019275       5.87501414       0.32883910      -0.00399214       0.00615404      -0.00248348
Li       0.29743123       1.78984510       6.36250990       0.03924074      -0.01974121       0.02299390
Li       0.56187321       4.16364473       0.76287869      -0.00151705      -0.00534995       0.00689622
Li       1.39304384       2.05507397       3.56768587       0.00181673       0.00226938       0.00043485
Li       4.59895788       2.85269524       3.84378580      -0.00475878       0.00449595      -0.00273179
Li       6.98012971       4.59477903       4.49182644      -0.00182132      -0.01009831      -0.00695398
Li       4.30956570       5.67210180       4.94469909      -0.00068224       0.00417262       0.00066920
Li       3.11503505       2.70189885       1.10661690       0.01435789       0.01318247       0.00442089
Sn       6.48933488       0.36107925       3.77123781      -0.00427887       0.00830437       0.00247902
Sn       6.36512779       6.51080117       6.86944671      -0.00577820      -0.00520139      -0.00358255
Sn       5.28753803       3.54571471       6.71543071       0.01088304      -0.00947862      -0.00661065
Sn       2.27147986       4.76253539       2.97554645      -0.00086198       0.00405873      -0.00025492
Sn       3.70003453       0.96232416       5.90285417      -0.02231078       0.00607650      -0.00063840
Sn       5.40211641       5.14321029       2.16492940      -0.00197221       0.00428484      -0.00382493
Sn       2.25356277       3.79937199       5.83543307       0.00405307       0.00508922       0.00465006
Sn       3.51581120       0.30276915       2.70703126      -0.00288303       0.00430547      -0.00057364
2
Lattice="3.1271580627500293 3.880407387577664e-05 0.0006788290249607842 -0.00017913265024537575 3.1272949915425725 0.00028644419239212156 -0.00013250071380527137 -5.596033569749987e-05 4.345225638222729" Properties=species:S:1:pos:R:3:forces:R:3 structure_index=3 total_energy=-6.522176265716553 stress="-0.07016605883836746 -0.00032084155827760696 0.0008695629076100886 -0.00032093218760564923 -0.06970378011465073 0.00036728582927025855 0.0008695123833604157 0.00036732532316818833 0.15006300806999207" pbc="T T T"
Li       2.35948863       2.07776835       1.86346369      -0.00002960       0.00012244      -0.00004561
Sn       0.79588106       0.51428136       4.03555577       0.00002959      -0.00012244       0.00004561
8
Lattice="4.855542989037741 0.00026094065174464537 0.00016065148523035166 0.00087072928869022 5.194412320420722 -2.994847498793571 -0.0009123353312500479 -0.003137713939332459 5.9968421305153035" Properties=species:S:1:pos:R:3:forces:R:3 structure_index=4 total_energy=-22.157835006713867 stress="-0.033910494297742844 0.00022507792164105922 -0.000500446476507932 0.0002251160331070423 -0.007405165582895279 -0.0005527067696675658 -0.0005003985716030002 -0.0005528093897737563 -0.007310634944587946" pbc="T T T"
Li       0.41161353       0.54726345       2.40688706      -0.00050246       0.01888993      -0.03103202
Li       2.83894020       1.45980393       3.98575733      -0.00028534       0.03496589      -0.00030367
Li       0.41053856       0.54999881       5.56513178      -0.00008176       0.01481178       0.02890270
Li       0.41078063       3.00701456       0.98731212       0.00042860      -0.03382662       0.00057699
Li       2.83838291       3.91946085       2.56596390       0.00021466      -0.01794044       0.03153686
Li       2.83930815       3.91839568      -0.59176955       0.00002873      -0.01652055      -0.02962030
Sn       0.41061241       3.09898096       3.98436261       0.00024616      -0.00012528       0.00046067
Sn       2.83915782       1.36854212       0.98866121      -0.00004861      -0.00025470      -0.00052123
12
Lattice="5.019508215120394 -0.00371647434482232 0.0012738318565463258 0.004287306748825379 5.658823915410172 0.163476339216307 -0.0020837354391042948 -0.07868119813936397 9.615729799052572" Properties=species:S:1:pos:R:3:forces:R:3 structure_index=5 total_energy=-40.375892639160156 stress="0.015707695856690407 0.00013832242984790355 3.615911191445775e-05 0.00013834482524544 0.016265297308564186 0.0014954048674553633 3.613108492572792e-05 0.001495438744314015 0.016443466767668724" pbc="T T T"
Li       1.90330320       1.95850435       0.91909289       0.00010133      -0.01702422      -0.01530442
Li       1.90526281       4.66090350       2.69627220       0.00000778      -0.01587694      -0.01153601
Li       4.41488403       5.43949535       7.48272736       0.00014643       0.02971989       0.01350928
Li       4.41316360       2.71620963       5.74226796       0.00016727       0.00386822       0.01131586
Li       1.90299209       1.78803478       4.11140123       0.00001397      -0.01845254       0.00274641
Sn       4.41180598       0.12965001       1.00284631       0.00006031      -0.04826207       0.00464337
Sn       1.90403785       4.61898762       9.13766430      -0.00016988       0.01144495      -0.00949338
Sn       4.41128000      -0.03476915       4.20510896       0.00035344       0.01183815      -0.00041612
Sn       4.41378390       2.84505793       2.64371985      -0.00014147      -0.01803991      -0.00354199
Sn       1.90235341       1.61511759       7.25900365      -0.00030401       0.04089889      -0.01754045
Sn       1.90510596       4.50414818       5.79705923      -0.00055351       0.00635583       0.00291712
Sn       4.41216205       2.66330546       8.84579900       0.00031833       0.01352974       0.02270034
4
Lattice="3.6107816577924665 0.004473971925236569 -0.0010862135687725206 -0.001231775236545225 4.516852073639254 -0.0014850780164581102 0.0064049976361377214 0.002008534837779163 4.520054710408828" Properties=species:S:1:pos:R:3:forces:R:3 structure_index=6 total_energy=-11.04383659362793 stress="-0.06394533812999725 0.014345524832606316 0.01660466194152832 0.014345821924507618 -0.010841668583452702 0.000774130632635206 0.016604797914624214 0.0007740390719845891 0.02001519314944744" pbc="T T T"
Li       1.09582686       0.06331768       3.51664550      -0.00031940       0.00006425       0.00026366
Li       1.09117862       2.32089758       1.25569111       0.00086165      -0.00013403       0.00022946
Li       2.89760950       0.06464488       1.25648588       0.00010707       0.00003069      -0.00045665
Sn       2.90053559       2.32399867       3.51529058      -0.00064930       0.00003908      -0.00003646
10
Lattice="3.4107005258531116 0.0004961288697524579 -0.0006675568183165014 -0.0006346333157831765 4.446077214083767 0.0007845229925320051 0.0030832919713815556 -0.0009259143088678277 16.216617684579134" Properties=species:S:1:pos:R:3:forces:R:3 structure_index=7 total_energy=-35.339622497558594 stress="0.027862409129738808 1.5110662388906348e-05 7.261127029778436e-05 1.5095203707460314e-05 0.005645828787237406 0.00010522254160605371 7.252086652442813e-05 0.0001051594372256659 -0.030939800664782524" pbc="T T T"
Li       0.19200926       4.37838165       8.92192769      -0.00074841       0.00007580      -0.03361394
Li       0.19017362       4.37701800      15.43264910       0.00074795       0.00184152       0.03209335
Li       1.89590066       2.15574897       4.07583975       0.00015605       0.00069542       0.00073427
Sn       1.89566326       2.15472286      10.43982800       0.00064546       0.00178543      -0.02528335
Sn       1.89586259       2.15754051       0.86068683      -0.00108727      -0.00242963      -0.04534894
Sn       0.19169795       4.38149501       5.67701512      -0.00049357      -0.00227486      -0.04633467
Sn       1.89696332       2.15671770       7.29225861       0.00025026       0.00068531       0.02533551
Sn       0.19046885       4.38051442      12.15709102      -0.00021526      -0.00164185       0.02340146
Sn       0.18921968       4.37750061       2.47879204       0.00042102       0.00205608       0.03928582
Sn       1.89519380       2.15672346      13.90394272       0.00032376      -0.00079322       0.02973047
9
Lattice="4.790637940401556 0.0011679339646457215 0.0003998327226715019 -2.3945158040592633 4.150677730788239 -0.0007908684274223256 -0.0005842689240356429 0.001779252033759475 11.448547809036405" Properties=species:S:1:pos:R:3:forces:R:3 structure_index=8 total_energy=-29.291736602783203 stress="0.009481046348810196 0.00017086765728890896 9.215162208420224e-06 0.00017103625577874482 0.009891371242702007 1.6824011254357174e-05 9.626078281144146e-06 1.665164927544538e-05 0.0016353428363800049" pbc="T T T"
Li      -1.37426682       3.40116921       6.95219641      -0.00005198       0.00025274       0.01326041
Li       3.41536271       0.63595603       8.55537071      -0.00005828      -0.00026842      -0.00795347
Li      -1.37592949       3.40213781       1.34878690       0.00108929      -0.00119067      -0.01077913
Li       3.41574601       0.63387568       2.85299018      -0.00076440       0.00138064       0.03744122
Sn       1.01984622       2.01946151       4.77385425       0.00022881      -0.00064884      -0.04996087
Sn      -1.37439954       3.40134214       9.93301448      -0.00061029       0.00072752      -0.01987277
Sn       1.01987475       2.01809686       1.73243258      -0.00003680      -0.00014118       0.03540726
Sn       3.41440718       0.63643491      11.35054144       0.00023077       0.00001429      -0.00283608
Sn       3.41531012       0.63578450       5.84008140      -0.00002711      -0.00012610       0.00529343
6
Lattice="4.2122146264179925 -0.004178090125786801 2.0508061924755343 1.4159892697767822 4.607692595495911 2.4496063687625917 -0.04915246230277661 0.0546218465354737 5.450940429761398" Properties=species:S:1:pos:R:3:forces:R:3 structure_index=9 total_energy=-15.281831741333008 stress="-0.015594877302646637 -0.002374128205701709 -0.032257355749607086 -0.0023740683682262897 -0.04553867504000664 0.0011049889726564288 -0.03225728124380112 0.0011053612688556314 0.04426782950758934" pbc="T T T"
Li       5.04682099       2.87399447       7.64078834      -0.00006308      -0.00007780      -0.00008104
Li       1.37578742       0.04330440       4.46949745       0.01564711       0.01171030      -0.02155731
Li       2.07722277       2.26994211       3.03716061      -0.00034350      -0.01331977       0.00154038
Li       3.08912116       1.10202317       6.31221807      -0.01489362      -0.01306223       0.02001176
Li       3.85402160       3.42738472       4.74192149      -0.00102694       0.01359217       0.00001124
Sn       4.36314891       0.54246572       3.69049122       0.00068003       0.00115736       0.00007494
16
Lattice="6.093844674773712 -0.0006249700349868315 -0.0027516295138992576 -0.06502396353278962 6.095284446945034 0.00016426932099157694 0.002356637600340293 5.483302808994085e-05 8.884956823407407" Properties=species:S:1:pos:R:3:forces:R:3 structure_index=10 total_energy=-50.226356506347656 stress="-0.001940120360814035 0.004756315611302853 -0.0012945999624207616 0.004756295587867498 0.0010440798941999674 -0.00018122134497389197 -0.0012946303468197584 -0.00018121436005458236 0.015163685195147991" pbc="T T T"
Li       1.06697390       3.50598519       3.13793741      -0.00042283      -0.00063703       0.00019390
Li       2.53533648       2.05059636       5.30133769       0.00484972      -0.00381494      -0.00977907
Li       4.11317452       3.50626877       7.57673730       0.00023073      -0.00110547       0.00144276
Li       4.14588883       0.45629694       3.13722405      -0.00021521       0.00013611      -0.00058934
Li       5.69007087       4.95908921       0.97623485      -0.00385413       0.00374530       0.00638275
Li       4.14707984       0.45582456       7.57793075       0.00015127       0.00021300       0.00044298
Li       1.10097394       0.45786087       7.57893005      -0.00083554       0.00069793       0.00090439
Li       2.53487756       2.05089497       0.97247333       0.00439764      -0.00388954       0.00938297
Li       5.68956362       4.95879408       5.29858821      -0.00273553       0.00446768      -0.00870114
Sn       4.11359250       3.50335120       3.13742602      -0.00061463       0.00093367      -0.00047858
Sn       1.09856311       0.45849024       3.13711315       0.00053413      -0.00081449       0.00075238
Sn       1.06668960       3.50746648       7.58030079      -0.00011414      -0.00121921       0.00017761
Sn       2.64906715       5.10449870       0.88386692      -0.00636127      -0.00490521       0.00864853
Sn       5.57678052       1.90441890       0.87905671       0.00567762       0.00616517       0.01192404
Sn       2.64859777       5.10502540       5.39207865      -0.00583674      -0.00583282      -0.01004234
Sn       5.57847407       1.90457975       5.39083566       0.00514890       0.00585986      -0.01066183
20
Lattice="6.309222488063038 0.006793607672728969 -0.005093529298548122 -0.018894380209663768 7.5088672590734165 -2.015205037347738 -0.023612017258383855 -0.08270617419207518 9.172882666470356" Properties=species:S:1:pos:R:3:forces:R:3 structure_index=11 total_energy=-64.61656188964844 stress="0.009516381658613682 0.0008167168125510216 -0.0026605839375406504 0.0008166700717993081 0.011868376284837723 -0.006898059509694576 -0.0026606086175888777 -0.006898114457726479 0.013791663572192192" pbc="T T T"
Li       2.90040917       4.42921415       4.71699189       0.00502568      -0.00609761       0.00235035
Li       1.27016999       3.61603696       2.09071475      -0.00980599      -0.01125352       0.00460222
Li       4.39630586       6.71080086       3.16608681      -0.00107722       0.02025772       0.00124325
Li       1.20484694       2.14372854       6.13857076       0.00703470      -0.00055432      -0.00300710
Li       1.21234712       6.65305684       3.19116956       0.01162119      -0.00095038      -0.01099662
Li       4.46658057       2.15965641       6.18995683      -0.00294802      -0.00610887       0.00163097
Li       5.87214153       5.92225291       0.53830366      -0.00354573      -0.00368382      -0.00706740
Li       4.35247695       0.76252007       1.10309747       0.01127423       0.00594869      -0.00397341
Li       1.22728397       5.17401942       7.22984042      -0.00584110       0.00084324      -0.00283039
Li       1.25995246       0.71652478       1.08883547      -0.00513376      -0.00992161      -0.00451191
Sn       2.78027639       2.85694890      -0.51628921      -0.00499666       0.00867084       0.00739744
Sn       6.08554440       4.39093955       4.62174523       0.01663938       0.00331168       0.02144659
Sn       6.00100271      -0.05153337       7.70900224       0.00866742       0.00624270      -0.00792851
Sn       2.79695929       7.37380011       5.60971636      -0.00342893       0.00058586      -0.00509128
Sn       4.38827364       3.81854223       2.16847245      -0.00445240       0.00653637      -0.00628740
Sn       4.36245554       5.17443494       7.21804703      -0.00670216      -0.00610995       0.01168670
Sn       6.00914041       1.31504750       3.66221749      -0.00092145       0.01117538       0.00073475
Sn       2.81942577       1.42892614       3.66572435      -0.00104766       0.00016288       0.01316736
Sn       6.00570850       2.97501713      -0.41199721      -0.00286090       0.00424060       0.00446862
Sn       2.69141683       6.04144643       0.68201215      -0.00750063      -0.02329584      -0.01703421
5
Lattice="4.205184763817307 -0.0016097565789950597 1.6469619473410657 2.097152457744703 4.495123997039835 0.8411064500258526 0.47310593795534234 0.01820391607891752 4.983577223478835" Properties=species:S:1:pos:R:3:forces:R:3 structure_index=12 total_energy=-13.317157745361328 stress="-0.02063325233757496 0.008892426267266273 -0.01201131846755743 0.008892536163330078 -0.03631318733096123 -0.025127504020929337 -0.012011311948299408 -0.025127341970801353 0.003421731060370803" pbc="T T T"
Li       3.32170871       4.42096780       5.57513124      -0.00780963      -0.02465870       0.01963138
Li       1.56436288       2.44488181       3.86879322      -0.01082511       0.01665305       0.02710638
Li       4.23754591       3.46290117       3.23631612       0.01042719      -0.01691568      -0.02700999
Li       2.47997943       1.48698126       1.53019374       0.00781412       0.02443562      -0.02000180
Sn       3.95475098       0.70533555       3.95548100       0.00039342       0.00048570       0.00027401
10
Lattice="4.446390808863266 0.005914457808167085 -0.000767144773140788 -2.2302434227931656 4.86610733755179 0.25559310556783443 0.0010692351828160969 0.04687289582356897 9.364644812443665" Properties=species:S:1:pos:R:3:forces:R:3 structure_index=13 total_energy=-30.843006134033203 stress="-0.02305414155125618 -0.000379876175429672 -0.0003426448383834213 -0.00037986465031281114 -0.007154223043471575 -0.008419802412390709 -0.0003426673647481948 -0.008419818244874477 0.017874835059046745" pbc="T T T"
Li      -0.94442036       2.40749643       7.54809023       0.00069565       0.01533892      -0.02102702
Li       3.50368025       1.18922173       0.91998744      -0.00048435      -0.01655325       0.02034625
Li       1.28186956       1.20262795       5.60034067      -0.00078864      -0.01503252       0.02170270
Li      -0.94757619       4.21795438       2.02031063       0.00009388      -0.00043484       0.00066906
Li       1.27783409       2.38654466       2.86474042       0.00082646       0.01584733      -0.02038123
Li       1.27721246       4.24119976       6.70037003      -0.00038029      -0.00005078       0.00130364
Sn       1.28219869       0.43463928       8.34791849       0.00011012      -0.01985615      -0.00602632
Sn       1.27710093       3.16235290       0.11938980       0.00003803       0.01911005       0.00406708
Sn       3.50479759       0.41167807       3.66440224       0.00015970      -0.02120311      -0.00603645
Sn      -0.94494820       3.17611099       4.80179725      -0.00027054       0.02283435       0.00538227
12
Lattice="6.317623173951428 -0.00033404637904339217 0.004044123721437881 7.508348215016667e-05 6.075310748916412 0.002312390439055102 -0.00474165010251574 -0.0028339713897010134 7.837759294289177" Properties=species:S:1:pos:R:3:forces:R:3 structure_index=14 total_energy=-41.46073913574219 stress="0.023018429055809975 3.791277777054347e-05 2.05999403988244e-05 3.796709279413335e-05 0.025491958484053612 1.492613046139013e-05 2.061072882497683e-05 1.4898144399921875e-05 0.016383005306124687" pbc="T T T"
Li       1.85642586       3.22077044       5.53191247       0.00062162      -0.03347794      -0.00026182
Li       1.85977109       0.18570305       1.61143728      -0.00000045      -0.03396622       0.00025732
Li       5.01563481       1.40265936       5.53269393       0.00015706       0.03394027       0.00057843
Li       5.01921822       4.44308455       1.61514057      -0.00064846       0.03330589       0.00007425
Sn       0.27978914       2.31441752       0.09372132       0.00037859       0.00008078       0.03402808
Sn       0.27911850       2.31280468       3.12957051       0.00019645       0.00012445      -0.03460464
Sn       3.43890115       2.31522993       0.09559962       0.00058048      -0.00046126       0.03405273
Sn       3.43554259       5.34994049       7.05134374       0.00066896       0.00004444      -0.03457449
Sn       0.27745388       5.34957726       7.04944682      -0.00088307       0.00003181      -0.03489084
Sn       3.43831442       2.31332439       3.13146356      -0.00040819      -0.00022450      -0.03441546
Sn       0.27961771       5.35004393       4.01328957      -0.00063607       0.00023865       0.03494296
Sn       3.43790687       5.35007064       4.01519847      -0.00002692       0.00036363       0.03481346
4
Lattice="4.359912506221666 -0.0002843430433455905 2.5132806506858967 1.4495312164381007 4.111801718406092 2.513107858160626 0.00013396297864790076 6.244732006610725e-05 5.0340307121078345" Properties=species:S:1:pos:R:3:forces:R:3 structure_index=15 total_energy=-12.737188339233398 stress="-0.0691562071442604 0.0049474360421299934 -0.0015853999648243189 0.004947575740516186 -0.07328943908214569 -0.0006897636922076344 -0.0015853701625019312 -0.0006898654391989112 -0.07901662588119507" pbc="T T T"
Li       4.64142827       3.36880802       4.35878083      -0.00146147      -0.00111689      -0.00206379
Li       3.18843525       2.34035446       6.87739582       0.00153936       0.00113509       0.00204610
Sn       1.73776222       1.31369050       4.36456143      -0.00449344      -0.00328603      -0.00721198
Sn       0.28285610       0.28399834       1.84518007       0.00441555       0.00326783       0.00722968
12
Lattice="4.409928579189998 0.002701331797855866 -0.758922228376187 -0.13162585716476216 4.322498083552451 -0.7497878735456271 -0.07023814128705863 -0.01622476875749732 12.78015995735732" Properties=species:S:1:pos:R:3:forces:R:3 structure_index=16 total_energy=-37.260372161865234 stress="0.004416981246322393 -0.0008775099413469434 -0.0030746350530534983 -0.0008775669266469777 0.012707660906016827 -0.005225248634815216 -0.003074778476729989 -0.005225249566137791 -0.010008417069911957" pbc="T T T"
Li       4.09814090       2.43168318      -0.73850725       0.00017287       0.00078983      -0.00088811
Li       2.92094868       3.49715807       5.61044221       0.00263919       0.00130257       0.01455253
Li       3.32581553       1.69102524       7.97586407      -0.00158779      -0.00330082      -0.01636526
Li       0.79521765       1.34927297       6.45061669      -0.00205561      -0.00280173      -0.01603874
Li       2.25827577       2.80552764       1.74249504      -0.00153195       0.00156899       0.00425735
Li       0.39047928       3.15429998       4.08490222       0.00154435       0.00399770       0.01609120
Li       1.45794482       2.04017811      10.31825731       0.00138325      -0.00195258      -0.00444638
Sn       1.95977835       0.26967473       0.01536228      -0.00154108      -0.00051757      -0.00076162
Sn       0.12939187       0.65768027       2.57276243       0.00128586      -0.00383134      -0.00598158
Sn       1.03068498       3.82353482       7.82548028      -0.00578962      -0.00541421      -0.02671127
Sn       2.68609289       1.02138727       4.23367044       0.00417929       0.00720818       0.02975016
Sn       3.58582184       4.18796552       9.48728316       0.00130121       0.00295099       0.00654176
6
Lattice="4.203709093702176 -0.0016639890882277379 2.0758619915443974 1.3902827142626322 4.628460347168827 2.48050357318559 -0.06810774641859271 0.08041752076490437 5.432757187013976" Properties=species:S:1:pos:R:3:forces:R:3 structure_index=17 total_energy=-15.279979705810547 stress="-0.02415153756737709 -0.021135803312063217 -0.029561936855316162 -0.021135635673999786 0.006609970238059759 0.04209880530834198 -0.029561934992671013 0.042098890990018845 0.02880464494228363" pbc="T T T"
Li       2.45491509       4.57565496       4.76835220       0.01349113       0.01669918      -0.02317380
Li       4.66462651       2.62152552       5.58849307       0.00041449      -0.00108447      -0.00154777
Li       2.67280896       0.66790310       4.32930971      -0.01459442      -0.01648544       0.02495917
Li       3.35135064       3.07857305       8.24819643       0.00177384       0.03199654      -0.00619088
Li       1.70581215       2.24550244       6.28284342      -0.00071975      -0.03314593       0.00597009
Sn       3.93613633       0.34599857       7.06300589      -0.00036529       0.00202012      -0.00001683
10
Lattice="5.199888400665326 -0.024833550271317117 1.9641575521691692 2.624260540811969 5.425627379295061 0.9998650886118572 -0.08351979909164887 -0.020689333937359305 8.112087730806895" Properties=species:S:1:pos:R:3:forces:R:3 structure_index=18 total_energy=-33.908905029296875 stress="0.005741414614021778 0.011518602259457111 0.009557998739182949 0.011518648825585842 -0.01731972023844719 0.00501740537583828 0.009558108635246754 0.0050173671916127205 -0.0049562398344278336" pbc="T T T"
Li       4.67570199       1.01107215       3.77583689      -0.01274581       0.00504619       0.01846265
Li       2.05690957       3.20126733       6.85207820      -0.01931545      -0.00478765       0.02036202
Li       5.18972536       3.73030059       6.42218786      -0.00237438       0.00116418      -0.02919364
Li       2.61025189       0.48691884       1.38049619       0.00367564      -0.00437880      -0.02978362
Sn       3.85798250       0.74122029       6.72754402       0.00735746       0.00141204       0.00226805
Sn       4.29648815       2.89328852       9.28183349       0.00571425      -0.00146316       0.00214590
Sn       3.27258900       4.02537402       4.11179258       0.01199673       0.00413751       0.01503600
Sn       0.61898428       0.19759988       7.18354269       0.00437024      -0.00745595       0.00245560
Sn       6.51340359       3.44894006       3.65727091       0.00074940       0.00496005       0.00239604
Sn       1.73081273       1.31236334       4.24596565       0.00057194       0.00136558      -0.00414898
8
Lattice="3.2367574424573955 -0.0009610052182796223 -0.00045584084732404556 0.0012497870321911148 4.39521928596894 -0.0014400577774064526 -0.0032286739615707033 0.0033330234785071042 12.128988305897105" Properties=species:S:1:pos:R:3:forces:R:3 structure_index=19 total_energy=-25.805469512939453 stress="-0.022561626508831978 -5.1394796173553914e-05 -0.00010472146823303774 -5.136755498824641e-05 -0.03198070824146271 -0.00012169322872068733 -0.00010464277147548273 -0.00012170273839728907 -0.012419795617461205" pbc="T T T"
Li       1.87456992       1.35133641       8.19289986      -0.00001335      -0.00024389       0.00635494
Li       1.87158889       1.35022996      11.22454619       0.00113792       0.00047008       0.01391551
Li       1.87551758       1.35002038       5.35423447       0.00017587      -0.00054764       0.01587485
Li       0.26028465       3.54538083       3.74551945      -0.00076375       0.00128036      -0.03724916
Sn       0.25923968       3.54439244       0.70247900      -0.00078716       0.00130806      -0.03844433
Sn       1.87549831       1.34865638       2.42903937       0.00091522      -0.00170471       0.04356657
Sn       0.25626937       3.54960754       9.66475753      -0.00033791      -0.00090914       0.03977858
Sn       0.25707553       3.54832351       6.63850704      -0.00032684       0.00034687      -0.04379695
7