12
Lattice="4.280536704898486 -0.0010858706350187763 1.2052500209640533 1.3029780492724932 7.212476691811919 3.5803871669280207 0.01463537948805786 -0.06241730919913357 8.148729243010752" Properties=species:S:1:pos:R:3:forces:R:3 structure_index=0 total_energy=-37.18161392211914 stress="-0.027348818257451057 0.0044618332758545876 -0.004322792869061232 0.004461792763322592 -0.02643054723739624 -0.013666126877069473 -0.0043227290734648705 -0.013665947131812572 -0.010429576970636845" pbc="T T T"
Li       1.62094514       7.11576671       8.14550902      -0.00553388      -0.02568170       0.02020893
Li       0.97163036       3.67970468       2.24636216       0.01290126      -0.01570433      -0.04388333
Li       3.63364440       2.36339990       9.19555779       0.00684196       0.02472210      -0.02465503
Li       2.81439789       1.69093706       3.90680764       0.00685878      -0.00535652      -0.02477003
Li       4.27917749       5.90932702       6.90519218      -0.01012228       0.01072758       0.03785963
Ga       1.97507732       1.14203556       6.88469014       0.00017932       0.01196012       0.00048037
Ga       1.12928256       0.69368478       1.68786286      -0.00464293       0.00992526       0.01209226
Sn       5.05623953       6.72110115      12.35117044      -0.00103637       0.01296955       0.00761352
Sn       2.62223617       4.76546156       4.58938927      -0.00350928      -0.02476957       0.01169528
Sn       3.46183020       5.40582920       9.80937101      -0.00176627      -0.00523208       0.00325036
Sn       1.79942235       4.11092408       7.50595904      -0.00225087       0.00529006       0.01266373
Sn       4.47283956       2.75832717       6.22174952       0.00208056       0.00114953      -0.01255574
10
Lattice="3.13598479565657 -0.0003256114718632423 -0.00025949697984848063 0.0001431706014815606 3.135931522703918 -0.0003741461121100761 0.00315748140247481 0.004398970429279462 16.888021390347344" Properties=species:S:1:pos:R:3:forces:R:3 structure_index=1 total_energy=-28.038597106933594 stress="-0.0065138014033436775 -0.001988214673474431 0.002875234466046095 -0.0019882635679095984 -0.006751079577952623 0.003962409682571888 0.0028751424979418516 0.0039624907076358795 -0.04776901379227638" pbc="T T T"
Li       0.55589808       1.73474688       9.81806048       0.00000416      -0.00009458      -0.00150106
Li       0.55657186       1.73522010      13.02121459       0.00001695      -0.00009321      -0.00118571
Li       0.55725844       1.73540476      16.19556061      -0.00012400       0.00018247      -0.04465023
Li       0.55530010       1.73377563       6.61183810       0.00020220      -0.00017433       0.00178736
Li       0.55514533       1.73243814       3.43575160      -0.00013559       0.00044277       0.04621066
Ga       2.12347230       0.16620511       8.22786156       0.00014964      -0.00016330      -0.00264543
Ga       2.12480820       0.16715043      14.61812623       0.00007968       0.00008008      -0.02535857
Ga       2.12416361       0.16697135      11.40781185      -0.00003856      -0.00030553      -0.00027975
Ga       2.12314493       0.16500293       5.01262616       0.00001702      -0.00009476       0.02921524
Sn       2.12268656       0.16342117       1.37248078      -0.00017153       0.00022038      -0.00159252
4
Lattice="4.033555372140678 -0.00017421205798827448 2.329877870284882 1.34296332055775 3.8035633063779795 2.329578249170608 -4.195328022192104e-06 2.9608622906239687e-07 4.6595007856781105" Properties=species:S:1:pos:R:3:forces:R:3 structure_index=2 total_energy=-11.746532440185547 stress="0.09144286066293716 0.00044037308543920517 7.006661326158792e-05 0.0004404550127219409 0.09245408326387405 -6.14168238826096e-05 7.01146200299263e-05 -6.142100028228015e-05 0.0964866504073143" pbc="T T T"
Li       4.81032439       2.95390942       7.63630476      -0.00055495       0.00071281       0.00078963
Li       2.12211650       1.05245752       2.97698260      -0.00083973       0.00011354       0.00043152
Ga       3.46759870       2.00416412       5.30897958      -0.00320228      -0.00198946      -0.00484490
Sn       0.77658973       0.10123051       0.64624680       0.00459697       0.00116309       0.00362375
4
Lattice="3.713922183829984 -0.0009141211102332118 -1.6236715958118388 -0.7069415732530379 3.648391530130837 -1.6190867857860052 0.10132764448136675 0.11428754715821832 5.295279125562851" Properties=species:S:1:pos:R:3:forces:R:3 structure_index=3 total_energy=-11.796371459960938 stress="-0.025957589969038963 0.01582537405192852 0.037495989352464676 0.015825416892766953 -0.02361370623111725 0.040364574640989304 0.03749605640769005 0.040364719927310944 0.05296103656291962" pbc="T T T"
Li       2.93220880       0.25611865      -0.06939925       0.00158085      -0.00032479      -0.00134854
Li       0.72345623       2.08057302      -0.06733594      -0.00262739      -0.00007274      -0.00035217
Ga      -0.33209663       3.05054051       2.58196808       0.00053743      -0.00009094      -0.00092875
Sn       1.87803036       1.22539077       2.57842095       0.00050913       0.00048846       0.00262946
8
Lattice="4.281002535797455 0.0003083681662506436 -0.00015320259836228888 -0.0003352249106330046 4.282503035963629 0.00023155347566537635 0.00031035176887862125 0.0009336082102310963 8.187724637533176" Properties=species:S:1:pos:R:3:forces:R:3 structure_index=4 total_energy=-23.49315643310547 stress="0.009729175828397274 -9.847265027929097e-05 4.1163970308844e-05 -9.845823660725728e-05 0.011453206650912762 0.00020281212346162647 4.1201867134077474e-05 0.00020277565636206418 -0.03808533027768135" pbc="T T T"
Li       3.85758502       1.20119631       3.11321857      -0.00154364       0.00077040       0.00478323
Li       3.85438623       1.20089776       7.20730211       0.00365403       0.00100690       0.00497255
Li       1.71463404       1.19877305       1.06847067       0.00136645       0.00348610      -0.00299834
Li       3.85705631       3.34311957       5.16416755      -0.00012972      -0.00077422      -0.00474295
Ga       1.71575875       3.34116688       7.20547189      -0.00082580       0.00258442       0.01164465
Ga       1.71654151       3.34286907       3.11643122      -0.00112021      -0.00146171      -0.00218405
Sn       1.71661916       1.20153024       5.16292523      -0.00194560      -0.00166243      -0.00704739
Sn       3.85581469       3.34228751       1.06804022       0.00054448      -0.00394947      -0.00442772
6
Lattice="3.254815082362314 -0.00488466553374076 0.004226997942670752 0.004806817101536548 3.254860964008106 0.005530229624931242 -0.013362320619344687 -0.017803074230789098 10.64032685070887" Properties=species:S:1:pos:R:3:forces:R:3 structure_index=5 total_energy=-18.178552627563477 stress="-0.02923549897968769 -0.0003599353367462754 0.002129722386598587 -0.00035997500526718795 -0.028788873925805092 0.0027966315392404795 0.0021296662744134665 0.0027969558723270893 0.04798552766442299" pbc="T T T"
Li       2.16022137       0.05850072       1.96812449       0.00004677      -0.00013576       0.00034218
Li       2.15526660       0.05123158       5.79825839      -0.00030105      -0.00023113       0.01872540
Li       2.15199514       0.04730340       8.77896749       0.00025521       0.00035987      -0.01847998
Ga       0.52863231       1.67909074       7.28948571      -0.00002187       0.00015871      -0.00047717
Sn       0.52539212       1.67554894      10.66478784      -0.00142786      -0.00250125       0.01586949
Sn       0.53176199       1.68313643       3.91347511       0.00144878       0.00234959      -0.01597995
14
Lattice="4.992725287421371 -0.030226488105316446 -1.2996340363103047 -1.4369796414450833 4.905102306295052 0.3582072881523672 0.03947053565431296 0.03977550910671452 10.395059183028692" Properties=species:S:1:pos:R:3:forces:R:3 structure_index=6 total_energy=-38.83431625366211 stress="-0.0026434040628373623 0.0019510614220052958 -0.0015825317241251469 0.00195105723105371 -0.003403290407732129 -0.001083965296857059 -0.0015824284637346864 -0.0010838754242286086 -0.009934799745678902" pbc="T T T"
Li       3.80885859       1.68764233       8.98605004      -0.00366804      -0.00065368      -0.01248433
Li       1.25035886       4.12340913       2.07966240       0.00493908      -0.00045246       0.02404829
Li       2.34409146       1.67204257       3.34530009      -0.00522134       0.00042593      -0.01336994
Li       2.02824314       4.12540645       5.10647363      -0.00211737      -0.00175286      -0.02282023
Li       0.21855409       1.68534230       5.43960663       0.00236041       0.00034343       0.01235593
Li      -0.87243448       4.13631869       4.17247013      -0.00213075       0.00039580      -0.00537891
Li       0.92618624       1.69306358       8.16610805       0.00145862       0.00260114       0.00104142
Ga       0.55223921       4.15197789       9.66386091      -0.00110680       0.00176676      -0.00056941
Ga       3.42452836       4.10449338       0.18939469       0.00191104      -0.00182022       0.01663837
Ga      -0.15862298       4.14081111       6.94234261      -0.00294787       0.00052583      -0.00751875
Ga       2.75016884       4.13633669       7.87859710       0.00155599      -0.00444654      -0.00620667
Ga      -0.46336860       1.68126836       2.78929002      -0.00280910       0.00198024       0.00249318
Sn       1.61918640       1.66775590       0.56050393       0.00648647      -0.00160174       0.02348969
Sn       3.06961659       1.67624188       6.16646016       0.00128965       0.00268833      -0.01171865
16
Lattice="4.40041178630924 -0.006909214927685703 0.0016858650452647112 -2.1901618681432637 5.206780249656018 -0.017631616609899686 -0.0025240738263937307 0.03054539092068604 12.858011361505774" Properties=species:S:1:pos:R:3:forces:R:3 structure_index=7 total_energy=-44.99905776977539 stress="-0.02234363742172718 0.0007196856895461679 0.00017884625412989408 0.0007194396457634866 -0.02299768477678299 -0.0012222178047522902 0.00017878340440802276 -0.0012223313096910715 -0.0234360508620739" pbc="T T T"
Li       3.35506127       1.80226472      12.32731490      -0.00191822      -0.01919066      -0.03184304
Li       1.16134275       5.17614007       9.78812652      -0.00146889      -0.01641577       0.00493249
Li       1.16232992       4.50651153       1.03587043      -0.00057298       0.02652405       0.03980063
Li      -1.04362076       3.16771438       9.40994183      -0.00055854      -0.00223600       0.00420219
Li      -1.04542045       3.12766959       5.27180373      -0.00001883      -0.01145278      -0.00616238
Li      -1.03921568       4.90538799       3.09467539      -0.00035802      -0.00090098      -0.00865294
Li       1.16020847       5.21048939       4.90834083      -0.00105322       0.00141916      -0.02605856
Ga       1.15342138       1.37736544       9.25365079      -0.00001351       0.00765868       0.04240750
Ga       3.35185404       1.30544854       7.36818052      -0.00078542      -0.01434293      -0.00125561
Ga       1.15749926       2.98882936      11.39279318      -0.00047692       0.03491481       0.02667616
Ga       1.15573384       2.97223770       3.49099059       0.00295726       0.00385040       0.00117565
Ga       1.15154660       1.27764372       5.61223069       0.00209723      -0.01011416      -0.00488929
Ga       1.15517054       1.61697088       0.96927355       0.00515529       0.02144410      -0.01199898
Ga       3.35557369       1.68810328       2.51615904      -0.00513699       0.03675438      -0.03320690
Sn       1.15400660       3.58181796       7.35891970       0.00323277      -0.02816342      -0.00292627
Sn      -1.03948032       4.80686094      11.77482468      -0.00108105      -0.02974889       0.00779939
6
Lattice="4.5021568503244085 0.012296084042194698 -0.013711169766283825 2.123389683424784 3.965014982641345 -0.015909694609696826 0.016993624710966847 0.0070439893165297855 7.3213655518942735" Properties=species:S:1:pos:R:3:forces:R:3 structure_index=8 total_energy=-18.395347595214844 stress="-0.036324985325336456 -0.006635162513703108 0.0017048247391358018 -0.006634965538978577 -0.031773630529642105 -0.00603533536195755 0.0017047699075192213 -0.006035496015101671 0.011572584509849548" pbc="T T T"
Li       2.70549718       2.18161610       6.74422273      -0.01783812      -0.01058333      -0.00075706
Li       2.82153362       2.24849801       3.06744387       0.01875247       0.00767938      -0.00175914
Ga       4.92992675       3.50767478       0.71520379       0.01039912       0.01941684       0.04314689
Ga       4.93405730       3.52756856       5.41374744       0.01339885      -0.00958071      -0.03689575
Sn       0.55231204       0.87910004       1.57599105      -0.01770157      -0.00399241      -0.01992279
Sn       0.55092972       0.89284228       4.59581729      -0.00701074      -0.00293979       0.01618789
12
Lattice="3.2155100699590826 0.010124702251263 0.563719659625137 1.6026293529196012 8.832202837587142 0.1595417588768532 0.008891334212322057 0.09057288475035495 9.41891980277312" Properties=species:S:1:pos:R:3:forces:R:3 structure_index=9 total_energy=-38.525474548339844 stress="-0.019004493951797485 0.0007729836506769061 -4.349684968474321e-05 0.0007728789350949228 -0.02137015387415886 -0.003534125629812479 -4.349126902525313e-05 -0.0035340897738933563 -0.01743263565003872" pbc="T T T"
Li       4.01775961       7.97825404       5.91513008      -0.00601001       0.01960079       0.03477259
Li       3.43963205       7.79888820       9.19273813       0.00701306      -0.00435353      -0.02382378
Li       1.67062028       1.81137137       0.47806251      -0.00053178      -0.03908665       0.01510362
Li       2.37359861       3.18638581       5.90085693       0.00016295      -0.00711438       0.00406750
Ga       1.00221885       1.13073060       4.32761224       0.00534750      -0.00572225      -0.03491887
Ga       3.57339458       3.73844979       8.50437888      -0.00370955      -0.02649150       0.02564453
Sn       2.70308164       5.97092243       4.01765988       0.00109819       0.01899773      -0.01668280
Sn       2.15923140       5.98792312       7.09293898      -0.00283855      -0.04881074       0.01318890
Sn       1.60602485       5.30518330       0.76702851      -0.00254623       0.03687571       0.01111163
Sn       4.58649421       8.42722251       2.66165648       0.00067794       0.00886020      -0.00531997
Sn       0.49036757       0.94294459       7.23933122       0.00468372       0.02779299      -0.02743343
Sn       2.89694835       3.01421546       2.95233084      -0.00334726       0.01945167       0.00429009
7
Lattice="5.005461034982062 0.6409257442494455 1.0470276464498216 2.8029022335599545 4.196220885497138 1.0466745222462635 -0.4314965415577141 -0.26698825344086624 6.61481769042185" Properties=species:S:1:pos:R:3:forces:R:3 structure_index=10 total_energy=-20.466957092285156 stress="0.0045578028075397015 -0.005630894564092159 0.03331127017736435 -0.005630917381495237 0.008871305733919144 0.020906155928969383 0.03331136703491211 0.020906079560518265 -0.012565204873681068" pbc="T T T"
Li       4.41141748       3.23764505       3.60504885       0.01859948       0.01121956      -0.00468906
Li       5.10543501       1.20709702       1.45058561      -0.01868924      -0.01111868       0.00451048
Ga       3.14909060       2.45577729       6.05547668      -0.01287103      -0.00850043       0.00733150
Ga       0.93046660       1.08098720       4.56767247       0.01305784       0.00851277      -0.00714472
Ga       5.23879622       3.74990440       7.47911660      -0.01404690      -0.00839171       0.01906452
Ga       3.84637194       0.42784585       4.19103916       0.01403464       0.00838318      -0.01904747
Sn       2.25570207       1.90195631       2.00423551      -0.00008482      -0.00010472      -0.00002530
12
Lattice="4.439645083787911 0.0027747237598424175 1.3788740279405445 1.880957058966341 6.714720984318115 1.7677461000064532 0.17633172707729283 -0.8869561217506958 7.270207918035718" Properties=species:S:1:pos:R:3:forces:R:3 structure_index=11 total_energy=-31.00252914428711 stress="0.0031653395853936672 5.943775249761529e-05 -0.0007563189719803631 5.9364410844864324e-05 0.0023616680409759283 0.0005702286725863814 -0.0007561886450275779 0.0005703970673494041 0.0050326157361269" pbc="T T T"
Li       2.34344237       1.96424131       3.24128276      -0.00212020       0.02145447       0.00660676
Li       4.30158692       5.52890804       4.76729391       0.00527936      -0.00575445      -0.01720280
Li       3.54080267       4.88758991       7.21676323       0.00313857      -0.01943552      -0.01002815
Li       3.41438312       1.97449012       7.62972191       0.00178801       0.00210966      -0.00528461
Li       0.48966657       0.77604154       1.37507752      -0.00626567      -0.00362081       0.02071211
Li       1.57027337       1.07367703       5.73226841       0.00329162       0.01390103      -0.01012579
Li       5.26436953       5.51850739       9.50259316      -0.00181884      -0.02000788       0.00676855
Li       1.74311055       3.94563018       5.16991129       0.01093798      -0.00479974      -0.03436825
Li       4.96396870       3.53614878       2.63896820      -0.01456064       0.02243123       0.04672289
Ga       4.17372247       2.77315768       5.18329091       0.01346865      -0.00788246      -0.04327463
Sn       2.58569438       4.83351697       2.45727214      -0.00829672      -0.00517217       0.02458469
Sn       4.13391849      -0.03626445       5.31708826      -0.00484214       0.00677669       0.01488921
12
Lattice="4.4891050141724165 0.0016285836996684745 -0.0002268631157758599 -2.2437372837089558 3.886969303482558 0.0007356172722075617 -0.009007997241587996 -0.0005071658021315378 11.37731067535272" Properties=species:S:1:pos:R:3:forces:R:3 structure_index=12 total_energy=-33.14690017700195 stress="0.031739067286252975 0.0007966511766426265 -0.0016650500474497676 0.0007966222474351525 0.03243870288133621 0.0007998283836059272 -0.0016650703037157655 0.0007996735512278974 -0.008867155760526657" pbc="T T T"
Li       0.00259908       0.75719826       1.75773785      -0.00152051       0.00186240      -0.02904726
Li       0.00106052       0.75858341       4.58140968      -0.00042002      -0.00021748      -0.01808836
Li      -0.00035744       0.75858522       7.34757453      -0.00004512      -0.00089553      -0.03272792
Li       2.24376258       2.05458357       8.35612106      -0.00152306       0.00061796       0.02179313
Li       0.00187776       3.34995844       3.80081083       0.00055613       0.00030520       0.00238812
Li       2.24904045       2.05418497       0.12264828      -0.00104899       0.00098236      -0.00917310
Ga       2.24532295       2.05558585       5.59107294       0.00049891      -0.00151039       0.00056257
Ga       2.24677316       2.05461064       2.83416185      -0.00024276      -0.00002401       0.01484953
Ga       0.00272805       3.34978434       1.19962451       0.00232390      -0.00176607       0.04897495
Ga      -0.00168951       3.34976400       9.10094523       0.00160533      -0.00080989      -0.00255730
Ga       0.00074899       3.35023783       6.45237579      -0.00024983       0.00125769      -0.02261650
Sn      -0.00277629       0.75752318      10.20326276       0.00006602       0.00019777       0.02564218
12
Lattice="4.410108291290525 0.00022504263032964694 4.753357652424191e-05 -0.00025954890182309197 6.154923894639512 0.004902537985127116 -0.00010941128091337585 0.06864342896730732 9.266437581041455" Properties=species:S:1:pos:R:3:forces:R:3 structure_index=13 total_energy=-37.309329986572266 stress="-0.028948195278644562 8.276251719507854e-06 -5.280996902001789e-06 8.267352313851006e-06 -0.018854783847928047 -0.0001351631508441642 -5.118449735164177e-06 -0.00013519874482881278 -0.02056824415922165" pbc="T T T"
Li       3.02930868       4.72850206       7.68139829       0.00029268       0.00607151       0.00361706
Li       3.02941966       4.54409359       4.40667140       0.00018521      -0.00608506       0.01292967
Li       3.02965935       1.47398501       1.33791116      -0.00013527       0.00402680      -0.00572504
Ga       0.82456002       3.15239458       9.12538755      -0.00046809       0.00819374       0.01508549
Ga       0.82446082       2.95477318       2.94548893      -0.00005788      -0.00245663       0.00547900
Ga       0.82413374       6.06375636       2.87526820       0.00047231      -0.00418775      -0.01386866
Ga       0.82441797       6.21570913       6.00158392      -0.00025016      -0.01555971      -0.00815777
Ga       3.02952591       1.67268211       7.51252670       0.00038118       0.01009179      -0.01513668
Sn       0.82483182       3.23105866       6.09073349      -0.00114455      -0.00907087      -0.00095667
Sn       3.02935963       4.47694712       1.44348206       0.00023185       0.02290842      -0.00992003
Sn       3.02955084       1.40672702       4.42501280       0.00019137       0.00519403      -0.00050849
Sn       0.82437281       0.17641983       9.01528511       0.00030138      -0.01912626       0.01716213
10
Lattice="4.20114502660721 0.00017503951146419122 -0.8338373064558957 -0.00017154187566478427 4.3250346126021215 5.1360742534130356e-05 -0.10996034945632431 -0.0007075820494414544 10.44914692104212" Properties=species:S:1:pos:R:3:forces:R:3 structure_index=14 total_energy=-29.893863677978516 stress="-0.014390501193702221 -2.4577992007834837e-05 -0.00032654835376888514 -2.456165020703338e-05 -0.02262381836771965 -0.00010546710109338164 -0.00032658930285833776 -0.00010539365757722408 -0.013053842820227146" pbc="T T T"
Li       0.47316039       2.43396279       3.79962677       0.00074511      -0.00124870      -0.00437271
Li       0.91792776       0.27060698       6.03906649      -0.00337323       0.00065633      -0.02201146
Li       3.39248536       0.27037491       7.50542012      -0.00980952       0.00051565      -0.04310069
Li       2.15554065       2.43362299       1.27671443       0.00455819      -0.00014773       0.02283461
Li       1.64415345       0.27020875       9.70114619       0.00393993       0.00039030       0.01908493
Ga       3.74939307       2.43278261       9.30889823       0.00767794       0.00041995       0.04204455
Ga       1.31207129       2.43306399       8.03070025      -0.00203777      -0.00047313      -0.02200233
Sn       2.58523700       0.27086843       3.43597799      -0.00721982       0.00152674      -0.02392506
Sn       0.04890506       0.27098262       1.66287532      -0.00167963       0.00002932      -0.01630477
Sn       2.99367502       2.43364827       5.49464602       0.00719880      -0.00166875       0.04775290
8
Lattice="4.358508901567641 -0.00010068351087582186 0.0011917226748437897 -2.1777400426232383 3.775613275121798 -0.00024420127574019824 -0.003246376064190101 -0.0007539989532386345 8.77315634977838" Properties=species:S:1:pos:R:3:forces:R:3 structure_index=15 total_energy=-21.246978759765625 stress="-0.007153797894716263 0.0005619552102871239 -0.0006063435575924814 0.0005621616146527231 -0.006608945317566395 -4.836975131183863e-05 -0.0006062553147785366 -4.8478017561137676e-05 0.020874468609690666" pbc="T T T"
Li       1.48133716       3.57112820       0.94977031      -0.00133825       0.00132967      -0.03693955
Li       1.48023038       3.57109702       3.90620393      -0.00197471       0.00127209       0.04726793
Li       1.47677834       1.05423980       8.28752235       0.00075095      -0.00043388       0.03265933
Li       1.47677028       1.05493932       5.32900014       0.00250273      -0.00103784      -0.04690783
Ga      -0.70032363       2.31256721       6.78917878      -0.00401705       0.00179580      -0.00581085
Ga       1.47869529       3.57143394       6.81974460       0.00203605      -0.00112243      -0.00347825
Ga       1.47874074       1.05499722       2.41489610      -0.00102149       0.00145324       0.00711640
Ga      -0.70058384       2.31412189       2.44197629       0.00306175      -0.00325665       0.00609282
4
Lattice="4.055501452795131 0.00032248941927951564 -0.0006508240832603084 -0.0003485376929141433 4.055463666908553 -0.0012113160643378125 0.0007771961189197782 0.0014365321156427481 4.448368585267539" Properties=species:S:1:pos:R:3:forces:R:3 structure_index=16 total_energy=-11.800256729125977 stress="0.020974943414330482 -0.00025195119087584317 0.00020078614761587232 -0.00025197159266099334 0.02077244594693184 0.00035349850077182055 0.00020082795526832342 0.00035353380371816456 0.09352267533540726" pbc="T T T"
Li       1.77031166       2.87420276       1.43397758       0.00007193      -0.00044291      -0.00283465
Li       3.79876706       0.84631325       1.43448285      -0.00092824       0.00023846      -0.00325652
Ga       1.77101197       0.84711507       3.65828487      -0.00179499      -0.00112334       0.00061674
Sn       3.79795924       2.87464730       3.65607437       0.00265131       0.00132778       0.00547443
20
Lattice="7.56659908183123 -0.07251557352270736 -1.8796524995092296 -4.184639407471293 6.730543728542809 -0.8184748964841385 0.2213220930625443 0.07748586858349064 7.756612953709893" Properties=species:S:1:pos:R:3:forces:R:3 structure_index=17 total_energy=-59.91205596923828 stress="-0.0005899826646782458 0.00035299069713801146 0.00018480091239325702 0.00035307047073729336 -0.0006556069129146636 0.00032019586069509387 0.0001847587845986709 0.0003200588980689645 -0.001303081982769072" pbc="T T T"
Li       1.57247055       3.03290615      -0.94015724      -0.00609031       0.00489369      -0.01931243
Li       0.21328149       1.40119593       2.30045497       0.00068998      -0.00250883       0.02527530
Li       4.35373370       4.30967013      -1.86743691       0.01101721      -0.00891814       0.00913737
Li       4.15703110       1.29328085      -0.68501801       0.00528135       0.00503106      -0.01637341
Li      -0.09546373       6.12596028       4.02407247       0.00441966       0.00825854       0.01365453
Li       3.42971183       5.26152927       0.73394759      -0.00270197      -0.00011812      -0.00525446
Ga      -0.58414825       5.12198820      -0.87470390       0.01370598       0.04165966       0.00070163
Ga       0.70935892       4.31472205       1.49026057      -0.01700064      -0.02386290      -0.02054443
Ga       2.82338428       2.48098640       1.47865096      -0.01005107      -0.01018956      -0.01773418
Ga       1.48161235       0.31064392      -0.08447452      -0.00631977       0.01170249       0.01696988
Ga      -1.58323719       6.46527790       1.58283410       0.01095513      -0.00895378       0.00352375
Ga      -2.34707354       4.64836560       5.07248584       0.00627651       0.02959009       0.01952371
Ga       1.02216409       0.59641998       5.03960421      -0.00284745      -0.00042594       0.02449372
Ga       0.35184629       3.34705306       4.39234773      -0.01275346      -0.01381477       0.00119299
Ga       2.54752303       5.09660959       3.40726038      -0.02379800      -0.04152624      -0.01312405
Sn       3.32142349       2.27973180       4.28777225      -0.00546663      -0.00813744      -0.01932076
Sn       5.51915279       0.58172515       2.35080781       0.01979888      -0.02325124       0.00553201
Sn       2.00638879       5.98201469      -1.70966233       0.01583769       0.00995363      -0.02089284
Sn      -1.90381494       3.50918277       2.48867824      -0.00411063      -0.00430868       0.02017592
Sn      -0.98896858       2.13265677       6.94710894       0.00315756       0.03492651      -0.00762421
20
Lattice="4.541742696362158 -0.0030996206864031756 0.0004340731254603104 -2.268148107837213 3.9352717518807783 -0.0025570923593002002 -0.003607517729540291 0.011188175840833899 19.911270558693975" Properties=species:S:1:pos:R:3:forces:R:3 structure_index=18 total_energy=-55.69410705566406 stress="-0.016778692603111267 3.0775393042858923e-06 2.4850594400049886e-06 3.0846699701214675e-06 -0.0166733767837286 -8.140315912896767e-05 2.530151050450513e-06 -8.162588346749544e-05 -0.019080424681305885" pbc="T T T"
Li       0.76692780       0.27613327       9.53288053      -0.00039835      -0.00000213      -0.00890012
Li       0.76835343       2.89905154      10.59016905      -0.00006018      -0.00029421      -0.01431398
Li       3.03788902       1.58669297      11.80330911       0.00009153      -0.00015973       0.00444259
Li       3.04316673       1.58041115       3.33306360      -0.00060259       0.00046939       0.04843967
Li       3.04197247       1.58287960       6.15386138       0.00027628      -0.00122096       0.03895083
Li       3.04240650       1.57859284      -0.03333925       0.00014240      -0.00012540      -0.00149599
Li       0.76586608       0.27741569      12.59668046       0.00056341      -0.00085728      -0.01089263
Li       3.03847469       1.58506894      17.21013021       0.00077696       0.00279187      -0.03468479
Li       0.77116191       0.27129034       3.90915747      -0.00025706      -0.00039774      -0.02764494
Li       0.76889660       2.89795057      16.64284659      -0.00081224       0.00060851      -0.02550453
Li       0.76611035       0.27662134      15.42603888       0.00065228      -0.00046238      -0.02142459
Li       0.76981175       0.27322843       6.70191698       0.00034039       0.00050388      -0.01701991
Ga       0.76991481       2.89775288       8.00396586      -0.00033687      -0.00081561       0.00812538
Ga       0.77086128       0.26967353       1.06719338       0.00076160      -0.00066989       0.01917489
Ga       3.03782432       1.58671613      14.64826159      -0.00013223       0.00061747       0.02153118
Ga       3.03871626       1.58555683       8.96820308       0.00084291       0.00020510       0.02188525
Sn       0.77292468       2.89250256       1.96502604      -0.00082703       0.00012606      -0.03052012