phonopy:
  version: "2.37.1"
  frequency_unit_conversion_factor: 15.633302
  symmetry_tolerance: 1.00000e-05

space_group:
  type: "P-6m2"
  number: 187
  Hall_symbol: "P -6 2"

primitive_matrix:
- [  1.000000000000000,  0.000000000000000,  0.000000000000000 ]
- [  0.000000000000000,  1.000000000000000, -0.000000000000000 ]
- [  0.000000000000000,  0.000000000000000,  1.000000000000000 ]

supercell_matrix:
- [   3,   0,   0 ]
- [   0,   3,   0 ]
- [   0,   0,   1 ]

primitive_cell:
  lattice:
  - [     3.367022445940163,     0.000000000000000,     0.000000000000000 ] # a
  - [    -1.683511347475882,     2.915926918878884,     0.000000000000000 ] # b
  - [     0.000000043805292,    -0.000000168252266,    10.223486961725849 ] # c
  points:
  - symbol: Li # 1
    coordinates: [  0.999999999832214,  0.000000002514070,  0.000000000998632 ]
    mass: 6.940000
  - symbol: Sn # 2
    coordinates: [  0.000000000275968,  0.000000001183341,  0.500000001422366 ]
    mass: 118.710000
  - symbol: Sn # 3
    coordinates: [  0.333333335107119,  0.666666665108205,  0.228035629878219 ]
    mass: 118.710000
  - symbol: Sn # 4
    coordinates: [  0.333333331259441,  0.666666664554331,  0.771964367815402 ]
    mass: 118.710000
  reciprocal_lattice: # without 2pi
  - [     0.296998317075600,     0.171472074193908,     0.000000001549419 ] # a*
  - [     0.000000000000000,     0.342944123025031,     0.000000005643977 ] # b*
  - [     0.000000000000000,     0.000000000000000,     0.097813984968509 ] # c*

unit_cell:
  lattice:
  - [     3.367022445940163,     0.000000000000000,     0.000000000000000 ] # a
  - [    -1.683511347475882,     2.915926918878884,     0.000000000000000 ] # b
  - [     0.000000043805292,    -0.000000168252266,    10.223486961725849 ] # c
  points:
  - symbol: Li # 1
    coordinates: [  0.999999999832214,  0.000000002514070,  0.000000000998632 ]
    mass: 6.940000
    reduced_to: 1
  - symbol: Sn # 2
    coordinates: [  0.000000000275968,  0.000000001183341,  0.500000001422366 ]
    mass: 118.710000
    reduced_to: 2
  - symbol: Sn # 3
    coordinates: [  0.333333335107119,  0.666666665108205,  0.228035629878219 ]
    mass: 118.710000
    reduced_to: 3
  - symbol: Sn # 4
    coordinates: [  0.333333331259441,  0.666666664554332,  0.771964367815402 ]
    mass: 118.710000
    reduced_to: 4

supercell:
  lattice:
  - [    10.101067337820488,     0.000000000000000,     0.000000000000000 ] # a
  - [    -5.050534042427645,     8.747780756636653,     0.000000000000000 ] # b
  - [     0.000000043805292,    -0.000000168252266,    10.223486961725849 ] # c
  points:
  - symbol: Li # 1
    coordinates: [  0.333333333277405,  0.000000000838023,  0.000000000998632 ]
    mass: 6.940000
    reduced_to: 1
  - symbol: Li # 2
    coordinates: [  0.666666666610738,  0.000000000838023,  0.000000000998632 ]
    mass: 6.940000
    reduced_to: 1
  - symbol: Li # 3
    coordinates: [  0.999999999944071,  0.000000000838023,  0.000000000998632 ]
    mass: 6.940000
    reduced_to: 1
  - symbol: Li # 4
    coordinates: [  0.333333333277405,  0.333333334171357,  0.000000000998632 ]
    mass: 6.940000
    reduced_to: 1
  - symbol: Li # 5
    coordinates: [  0.666666666610738,  0.333333334171357,  0.000000000998632 ]
    mass: 6.940000
    reduced_to: 1
  - symbol: Li # 6
    coordinates: [  0.999999999944071,  0.333333334171357,  0.000000000998632 ]
    mass: 6.940000
    reduced_to: 1
  - symbol: Li # 7
    coordinates: [  0.333333333277405,  0.666666667504690,  0.000000000998632 ]
    mass: 6.940000
    reduced_to: 1
  - symbol: Li # 8
    coordinates: [  0.666666666610738,  0.666666667504690,  0.000000000998632 ]
    mass: 6.940000
    reduced_to: 1
  - symbol: Li # 9
    coordinates: [  0.999999999944071,  0.666666667504690,  0.000000000998632 ]
    mass: 6.940000
    reduced_to: 1
  - symbol: Sn # 10
    coordinates: [  0.000000000091989,  0.000000000394447,  0.500000001422366 ]
    mass: 118.710000
    reduced_to: 10
  - symbol: Sn # 11
    coordinates: [  0.333333333425323,  0.000000000394447,  0.500000001422366 ]
    mass: 118.710000
    reduced_to: 10
  - symbol: Sn # 12
    coordinates: [  0.666666666758656,  0.000000000394447,  0.500000001422366 ]
    mass: 118.710000
    reduced_to: 10
  - symbol: Sn # 13
    coordinates: [  0.000000000091989,  0.333333333727780,  0.500000001422366 ]
    mass: 118.710000
    reduced_to: 10
  - symbol: Sn # 14
    coordinates: [  0.333333333425323,  0.333333333727780,  0.500000001422366 ]
    mass: 118.710000
    reduced_to: 10
  - symbol: Sn # 15
    coordinates: [  0.666666666758656,  0.333333333727780,  0.500000001422366 ]
    mass: 118.710000
    reduced_to: 10
  - symbol: Sn # 16
    coordinates: [  0.000000000091989,  0.666666667061113,  0.500000001422366 ]
    mass: 118.710000
    reduced_to: 10
  - symbol: Sn # 17
    coordinates: [  0.333333333425323,  0.666666667061113,  0.500000001422366 ]
    mass: 118.710000
    reduced_to: 10
  - symbol: Sn # 18
    coordinates: [  0.666666666758656,  0.666666667061113,  0.500000001422366 ]
    mass: 118.710000
    reduced_to: 10
  - symbol: Sn # 19
    coordinates: [  0.111111111702373,  0.222222221702735,  0.228035629878219 ]
    mass: 118.710000
    reduced_to: 19
  - symbol: Sn # 20
    coordinates: [  0.444444445035706,  0.222222221702735,  0.228035629878219 ]
    mass: 118.710000
    reduced_to: 19
  - symbol: Sn # 21
    coordinates: [  0.777777778369040,  0.222222221702735,  0.228035629878219 ]
    mass: 118.710000
    reduced_to: 19
  - symbol: Sn # 22
    coordinates: [  0.111111111702373,  0.555555555036068,  0.228035629878219 ]
    mass: 118.710000
    reduced_to: 19
  - symbol: Sn # 23
    coordinates: [  0.444444445035706,  0.555555555036068,  0.228035629878219 ]
    mass: 118.710000
    reduced_to: 19
  - symbol: Sn # 24
    coordinates: [  0.777777778369040,  0.555555555036068,  0.228035629878219 ]
    mass: 118.710000
    reduced_to: 19
  - symbol: Sn # 25
    coordinates: [  0.111111111702373,  0.888888888369402,  0.228035629878219 ]
    mass: 118.710000
    reduced_to: 19
  - symbol: Sn # 26
    coordinates: [  0.444444445035706,  0.888888888369402,  0.228035629878219 ]
    mass: 118.710000
    reduced_to: 19
  - symbol: Sn # 27
    coordinates: [  0.777777778369040,  0.888888888369402,  0.228035629878219 ]
    mass: 118.710000
    reduced_to: 19
  - symbol: Sn # 28
    coordinates: [  0.111111110419814,  0.222222221518110,  0.771964367815402 ]
    mass: 118.710000
    reduced_to: 28
  - symbol: Sn # 29
    coordinates: [  0.444444443753147,  0.222222221518110,  0.771964367815402 ]
    mass: 118.710000
    reduced_to: 28
  - symbol: Sn # 30
    coordinates: [  0.777777777086480,  0.222222221518110,  0.771964367815402 ]
    mass: 118.710000
    reduced_to: 28
  - symbol: Sn # 31
    coordinates: [  0.111111110419814,  0.555555554851444,  0.771964367815402 ]
    mass: 118.710000
    reduced_to: 28
  - symbol: Sn # 32
    coordinates: [  0.444444443753147,  0.555555554851444,  0.771964367815402 ]
    mass: 118.710000
    reduced_to: 28
  - symbol: Sn # 33
    coordinates: [  0.777777777086480,  0.555555554851444,  0.771964367815402 ]
    mass: 118.710000
    reduced_to: 28
  - symbol: Sn # 34
    coordinates: [  0.111111110419814,  0.888888888184777,  0.771964367815402 ]
    mass: 118.710000
    reduced_to: 28
  - symbol: Sn # 35
    coordinates: [  0.444444443753147,  0.888888888184777,  0.771964367815402 ]
    mass: 118.710000
    reduced_to: 28
  - symbol: Sn # 36
    coordinates: [  0.777777777086480,  0.888888888184777,  0.771964367815402 ]
    mass: 118.710000
    reduced_to: 28

displacements:
- atom:    1
  displacement:
    [   0.0070283496133207, -0.0000000001170704,  0.0071135294835218 ]
  forces:
  - [  -0.0092227561399341,  0.0000370075831597, -0.0193780548870564 ]
  - [   0.0012128399685025,  0.0000639534118818, -0.0000528699820279 ]
  - [   0.0011935420334339, -0.0000681640231051, -0.0000508154626004 ]
  - [   0.0002894317731261, -0.0004610724281520, -0.0000507910226588 ]
  - [   0.0002872609766200,  0.0004619887913577, -0.0000534452192369 ]
  - [   0.0001209673282574,  0.0000002581582521, -0.0000068066019594 ]
  - [   0.0002882036496885, -0.0005926955491304, -0.0000516005675308 ]
  - [   0.0001206207889481, -0.0000000686486601, -0.0000066111970227 ]
  - [   0.0002894458593801,  0.0005945051671006, -0.0000522542177350 ]
  - [  -0.0000658978242427,  0.0000591715215705, -0.0003393329679966 ]
  - [  -0.0000537445303053,  0.0000007769558579,  0.0005534412339330 ]
  - [  -0.0000705136553734, -0.0000644554384053, -0.0003442068118602 ]
  - [   0.0000209060963243, -0.0000000096624717, -0.0000572957360419 ]
  - [  -0.0000300588762912, -0.0000215726904571, -0.0003419162239879 ]
  - [  -0.0000355378288077,  0.0000192858278751, -0.0003414742823225 ]
  - [  -0.0000151952262968, -0.0000694384798408, -0.0003388118930161 ]
  - [  -0.0000146939419210,  0.0000748725142330, -0.0003444066969678 ]
  - [   0.0000197662739083, -0.0000000664731488,  0.0000152393768076 ]
  - [   0.0000339995531249, -0.0000603401567787,  0.0059628263115883 ]
  - [  -0.0001449121627957,  0.0028227758593857,  0.0094474330544472 ]
  - [   0.0000302936896333,  0.0000584502704442,  0.0057293623685837 ]
  - [  -0.0000703681726009,  0.0000014267861843,  0.0058475956320763 ]
  - [  -0.0000073271803558, -0.0000529533717781,  0.0058967173099518 ]
  - [   0.0000374566297978,  0.0000293441116810,  0.0059177726507187 ]
  - [  -0.0009847185574472, -0.0004867082461715,  0.0073493793606758 ]
  - [   0.0039270236156881, -0.0023544102441519,  0.0115847587585449 ]
  - [   0.0000860807485878,  0.0000246228883043,  0.0059084296226501 ]
  - [   0.0000233263708651, -0.0000531096011400, -0.0060268267989159 ]
  - [  -0.0001257008407265, -0.0027662462089211, -0.0023580715060234 ]
  - [   0.0000349156398443,  0.0000594476005062, -0.0057963058352470 ]
  - [  -0.0000675611081533, -0.0000066122738644, -0.0059127733111382 ]
  - [   0.0000340959522873, -0.0000275112688541, -0.0058399960398674 ]
  - [  -0.0000051285605878,  0.0000528665259480, -0.0058607086539268 ]
  - [   0.0037743607535958,  0.0022502159699798, -0.0003773197531700 ]
  - [  -0.0009945482015610,  0.0004982155514881, -0.0043785795569420 ]
  - [   0.0000841403962113, -0.0000237572239712, -0.0058517232537270 ]
- atom:   10
  displacement:
    [   0.0070283496133207, -0.0000000001170704,  0.0071135294835218 ]
  forces:
  - [  -0.0000726720318198, -0.0000414575624745, -0.0003499220183585 ]
  - [  -0.0000640470534563,  0.0000410930369981, -0.0003332188061904 ]
  - [  -0.0000542178750038, -0.0000016308040358,  0.0005532704526559 ]
  - [  -0.0000166717873071,  0.0000281152897514, -0.0003433625679463 ]
  - [   0.0000184526033991, -0.0000019020517357,  0.0000155918169185 ]
  - [  -0.0000132298555400, -0.0000341916747857, -0.0003398678381927 ]
  - [   0.0000206857803278, -0.0000006043228495, -0.0000576400198042 ]
  - [  -0.0000320814360748, -0.0000781253766036, -0.0003353262727614 ]
  - [  -0.0000340715050697,  0.0000871625525178, -0.0003479197912384 ]
  - [  -0.0093231396749616, -0.0000078013399616, -0.0064157471060753 ]
  - [   0.0029978593811393,  0.0002670754329301, -0.0004879400948994 ]
  - [   0.0028990451246500, -0.0002606582129374, -0.0004716187831946 ]
  - [   0.0003583815414459, -0.0012204672675580, -0.0004775361157954 ]
  - [   0.0003655939653981,  0.0012372909113765, -0.0004807265358977 ]
  - [   0.0004084041574970,  0.0000001410953701,  0.0001450220297556 ]
  - [   0.0003637706395239, -0.0017705208156258, -0.0004860445624217 ]
  - [   0.0004085057880729, -0.0000007284106687,  0.0001449720002711 ]
  - [   0.0003605306264944,  0.0017424196703359, -0.0004727919877041 ]
  - [  -0.0002958907280117, -0.0015767097938806,  0.0075963586568832 ]
  - [  -0.0002170298248529, -0.0000052615068853,  0.0056306794285774 ]
  - [   0.0005652477848344, -0.0004500667564571,  0.0061626881361008 ]
  - [   0.0001570621971041, -0.0001417307648808,  0.0059035271406174 ]
  - [   0.0000904821790755,  0.0001816849689931,  0.0058244019746780 ]
  - [  -0.0002087720204145,  0.0004675431409851,  0.0059055462479591 ]
  - [  -0.0012839008122683,  0.0005688471719623,  0.0061610043048859 ]
  - [   0.0004040068015456, -0.0000369148328900,  0.0058633387088776 ]
  - [   0.0014405911788344,  0.0010012579150498,  0.0090080872178078 ]
  - [  -0.0003054072149098,  0.0016242060810328, -0.0041130706667900 ]
  - [   0.0006324965506792,  0.0004855748265982, -0.0055431202054024 ]
  - [  -0.0002210271632066,  0.0000037387362681, -0.0061282292008400 ]
  - [   0.0000890733208507, -0.0001765353081282, -0.0059363692998886 ]
  - [   0.0001571876928210,  0.0001382883638144, -0.0058558508753777 ]
  - [  -0.0002093226648867, -0.0004795519635081, -0.0058430656790733 ]
  - [   0.0015185265801847, -0.0010545093100518, -0.0026061013340950 ]
  - [   0.0003959792666137,  0.0000410089269280, -0.0058955624699593 ]
  - [  -0.0013003989588469, -0.0005761011852883, -0.0055934414267540 ]
- atom:   19
  displacement:
    [   0.0070283496133207, -0.0000000001170704,  0.0071135294835218 ]
  forces:
  - [   0.0001496560871601, -0.0001263537415070, -0.0000297439328278 ]
  - [  -0.0000847540795803, -0.0000089248642325, -0.0000375599774998 ]
  - [  -0.0001246016472578,  0.0023829266428947,  0.0035264855250716 ]
  - [  -0.0006562166381627, -0.0003022886812687,  0.0011642564786598 ]
  - [   0.0000827498879516,  0.0000111707486212,  0.0000288089504465 ]
  - [   0.0034516023006290, -0.0020614881068468,  0.0058366172015667 ]
  - [  -0.0000689503503963,  0.0001338753500022, -0.0000322164851241 ]
  - [   0.0000246796589636,  0.0000338851241395,  0.0000487369543407 ]
  - [   0.0000031956587918, -0.0000461081071990,  0.0000065458225436 ]
  - [  -0.0003030637744814, -0.0017296646256000,  0.0017682120669633 ]
  - [   0.0005049742758274, -0.0004138709045947,  0.0004607367445715 ]
  - [  -0.0000935245552682,  0.0000685434788465, -0.0003760256804526 ]
  - [  -0.0013878955505788,  0.0006272945320234,  0.0003744645218831 ]
  - [   0.0016181482933462,  0.0011108177714050,  0.0031973724253476 ]
  - [   0.0004002891655546, -0.0000477242283523, -0.0000183553056559 ]
  - [   0.0001648326870054, -0.0001358878798783,  0.0000158278853633 ]
  - [  -0.0002128374762833,  0.0003352176863700,  0.0000348434550688 ]
  - [   0.0000849024363561,  0.0001821942278184, -0.0000511944308528 ]
  - [  -0.0118146631866693, -0.0000215671025217, -0.0099847316741943 ]
  - [   0.0042306091636419, -0.0002356010954827,  0.0047285482287407 ]
  - [   0.0023445473052561, -0.0000811330974102,  0.0064989253878593 ]
  - [  -0.0000140774063766, -0.0009440344292670,  0.0061931982636452 ]
  - [   0.0006009608041495,  0.0026641993317753,  0.0050368383526802 ]
  - [   0.0002563712187111,  0.0000008663628250,  0.0058017522096634 ]
  - [   0.0008748932741582, -0.0023515394423157,  0.0053095147013664 ]
  - [   0.0002541127614677,  0.0000026497291401,  0.0058035030961037 ]
  - [  -0.0002851046156138,  0.0009508725488558,  0.0059248730540276 ]
  - [  -0.0001486293040216, -0.0000002551823854, -0.0049284100532532 ]
  - [   0.0002434863708913, -0.0002423117402941, -0.0055483579635620 ]
  - [  -0.0002012766053667, -0.0002676987787709, -0.0059838965535164 ]
  - [   0.0001391751575284,  0.0003369126934558, -0.0060920119285583 ]
  - [  -0.0000806502066553,  0.0002997647970915, -0.0054387599229813 ]
  - [  -0.0000046622008085,  0.0000016652047634, -0.0058513954281807 ]
  - [   0.0003597363829613, -0.0000719715608284, -0.0058751553297043 ]
  - [  -0.0000089248642325,  0.0000014953548089, -0.0058528631925583 ]
  - [  -0.0002990826033056, -0.0000559401814826, -0.0056592896580696 ]
- atom:   19
  displacement:
    [  -0.0070283496133207,  0.0000000001170704, -0.0071135294835218 ]
  forces:
  - [  -0.0001477552577853,  0.0001245982130058,  0.0000283013796434 ]
  - [   0.0000860299915075,  0.0000106787192635,  0.0000348846369889 ]
  - [   0.0001497995108366, -0.0024295165203512, -0.0035616732202470 ]
  - [   0.0006489250808954,  0.0002928421599790, -0.0011422948446125 ]
  - [  -0.0000837253028294, -0.0000128366518766, -0.0000278403967968 ]
  - [  -0.0035798507742584,  0.0021567600779235, -0.0060353125445545 ]
  - [   0.0000681768287905, -0.0001363908522762,  0.0000329118047375 ]
  - [  -0.0000240580229729, -0.0000343557330780, -0.0000495678323205 ]
  - [  -0.0000041551538743,  0.0000458325484942, -0.0000085666470113 ]
  - [   0.0002955968957394,  0.0016779589932412, -0.0017155499663204 ]
  - [  -0.0004399020690471,  0.0003762783599086, -0.0004092395538464 ]
  - [   0.0000934274576139, -0.0000678576761857,  0.0003715838538483 ]
  - [   0.0013765359763056, -0.0006229205173440, -0.0003706621937454 ]
  - [  -0.0015205522067845, -0.0010471097193658, -0.0030270097777247 ]
  - [  -0.0004014980222564,  0.0000446322374046,  0.0000136432427098 ]
  - [  -0.0001634405925870,  0.0001376313739456, -0.0000186021061381 ]
  - [   0.0002104979939759, -0.0003209726419300, -0.0000282928231172 ]
  - [  -0.0000838371634018, -0.0001829354441725,  0.0000474396802019 ]
  - [   0.0117351394146681, -0.0000198062043637,  0.0216480493545532 ]
  - [  -0.0041093165054917,  0.0002294015139341,  0.0070168823003769 ]
  - [  -0.0024364655837417,  0.0000861794687808,  0.0052704140543938 ]
  - [   0.0000160713680089,  0.0009544938802719,  0.0055734887719154 ]
  - [  -0.0006008646450937, -0.0026322079356760,  0.0067162141203880 ]
  - [  -0.0002521905116737,  0.0000008699717000,  0.0059583410620689 ]
  - [  -0.0008747265674174,  0.0023310072720051,  0.0064479336142540 ]
  - [  -0.0002545621246099,  0.0000025292392820,  0.0059599876403809 ]
  - [   0.0002924178261310, -0.0009660256328061,  0.0058461278676987 ]
  - [   0.0001416709274054, -0.0000002067536116, -0.0068180337548256 ]
  - [  -0.0002353210002184,  0.0002369242720306, -0.0062090829014778 ]
  - [   0.0002060876140604,  0.0002725012018345, -0.0057692527770996 ]
  - [  -0.0001408474636264, -0.0003467204514891, -0.0056598037481308 ]
  - [   0.0000785905867815, -0.0002941377460957, -0.0063169896602631 ]
  - [   0.0000090727116913,  0.0000013951212168, -0.0059080198407173 ]
  - [  -0.0003636865876615,  0.0000732936896384, -0.0058812052011490 ]
  - [   0.0000052223913372,  0.0000014533288777, -0.0059097409248352 ]
  - [   0.0003035024856217,  0.0000567377719563, -0.0060994699597359 ]

force_constants:
  format: "full"
  shape: [ 36, 36 ]
  elements:
  - # (1, 1)
    - [     1.312205115640453,     0.000000002158702,     0.000000002477145 ]
    - [     0.000000002158702,     1.312205116399382,    -0.000000010543364 ]
    - [     0.000000002477145,    -0.000000010543364,     2.724110132428084 ]
  - # (1, 2)
    - [    -0.171168545149450,    -0.009396635057555,    -0.000000000191627 ]
    - [     0.009396631414087,     0.002260096500252,     0.000000000933849 ]
    - [    -0.000000000119165,     0.000000000322632,     0.007302367374735 ]
  - # (1, 3)
    - [    -0.171168539448120,     0.009396629621019,     0.000000000257731 ]
    - [    -0.009396640729247,     0.002260094897031,     0.000000001013721 ]
    - [     0.000000002348719,     0.000000000344035,     0.007302366955410 ]
  - # (1, 4)
    - [    -0.041097068571395,     0.065700175234335,     0.000000000100527 ]
    - [     0.084493441140180,    -0.127811381412742,    -0.000000000347820 ]
    - [     0.000000000222196,    -0.000000000909286,     0.007302367215763 ]
  - # (1, 5)
    - [    -0.041097065278843,    -0.065700174419315,    -0.000000000563878 ]
    - [    -0.084493436458105,    -0.127811388927438,    -0.000000000176350 ]
    - [    -0.000000000250489,    -0.000000001754656,     0.007302367479314 ]
  - # (1, 6)
    - [    -0.017203728973313,     0.000000000222827,    -0.000000000245951 ]
    - [     0.000000000229529,    -0.017203731008564,     0.000000000856900 ]
    - [     0.000000000256520,     0.000000000698252,     0.000940708766965 ]
  - # (1, 7)
    - [    -0.041097066160837,     0.084493435145286,     0.000000000625573 ]
    - [     0.065700171190761,    -0.127811377333099,    -0.000000000549846 ]
    - [     0.000000002557380,    -0.000000003626488,     0.007302367320342 ]
  - # (1, 8)
    - [    -0.017203729464030,     0.000000000807769,    -0.000000000293671 ]
    - [     0.000000000248341,    -0.017203731852786,     0.000000000804693 ]
    - [     0.000000000257379,     0.000000000696417,     0.000940708607992 ]
  - # (1, 9)
    - [    -0.041097065665058,    -0.084493440947360,    -0.000000000806190 ]
    - [    -0.065700170331236,    -0.127811390231679,    -0.000000000310012 ]
    - [    -0.000000000515396,    -0.000000001842076,     0.007302366850831 ]
  - # (1, 10)
    - [     0.009729471995517,    -0.008816069748591,    -0.000000000571942 ]
    - [     0.005861202211175,     0.001284225215118,     0.000000000585889 ]
    - [    -0.000000000314969,     0.000000000098575,     0.048029315222375 ]
  - # (1, 11)
    - [     0.007677858575415,     0.000000000305328,     0.000000000565724 ]
    - [     0.000000000552752,     0.007677859777484,     0.000000000533140 ]
    - [    -0.000000000111254,     0.000000000706403,    -0.077787696671611 ]
  - # (1, 12)
    - [     0.009729471758084,     0.008816073897471,    -0.000000000407071 ]
    - [    -0.005861197639593,     0.001284225067992,     0.000000000677730 ]
    - [     0.000000000018057,     0.000000000148284,     0.048029314891321 ]
  - # (1, 13)
    - [    -0.002961500304214,     0.000000000824269,    -0.000000000248154 ]
    - [     0.000000001060337,    -0.002961502409336,     0.000000000815798 ]
    - [     0.000000000124891,     0.000000000041170,     0.008080186474574 ]
  - # (1, 14)
    - [     0.004675032210916,     0.002943020545148,    -0.000000000636408 ]
    - [    -0.011734251937651,     0.006338662832381,     0.000000000784787 ]
    - [    -0.000000000022273,     0.000000000205524,     0.048029314926270 ]
  - # (1, 15)
    - [     0.004675032796814,    -0.002943017933537,    -0.000000000515204 ]
    - [     0.011734253907922,     0.006338664314395,     0.000000000687666 ]
    - [     0.000000000078605,    -0.000000000024235,     0.048029314833051 ]
  - # (1, 16)
    - [     0.002116040092309,     0.010256818453941,    -0.000000000425747 ]
    - [    -0.004420453044676,     0.008897657538344,     0.000000000661061 ]
    - [     0.000000000204254,     0.000000000110943,     0.048029315280645 ]
  - # (1, 17)
    - [     0.002116037743218,    -0.010256816799917,    -0.000000000761300 ]
    - [     0.004420453956844,     0.008897656976091,     0.000000000778714 ]
    - [    -0.000000000025604,     0.000000000112590,     0.048029314868000 ]
  - # (1, 18)
    - [    -0.002721544587575,     0.000000001054493,    -0.000000000377163 ]
    - [     0.000000000345702,    -0.002721546383199,     0.000000000933231 ]
    - [     0.000000000102416,     0.000000000126487,    -0.002165567719078 ]
  - # (1, 19)
    - [    -0.004444908063951,     0.008218128293342,    -0.016479984158633 ]
    - [     0.008218128373377,     0.005044569310802,     0.009514723813480 ]
    - [    -0.000513773405711,     0.000296627611529,     0.004587249779276 ]
  - # (1, 20)
    - [     0.019417472666298,    -0.000000004942522,    -0.000000006383298 ]
    - [     0.000000006118578,    -0.277989805820524,    -0.338299160409627 ]
    - [     0.000000006723366,    -0.392866396172896,    -0.498280567656422 ]
  - # (1, 21)
    - [    -0.004444906748899,    -0.008218124752632,     0.016479982678273 ]
    - [    -0.008218125185579,     0.005044568975404,     0.009514724410036 ]
    - [     0.000513772421506,     0.000296627528292,     0.004587249724428 ]
  - # (1, 22)
    - [     0.009789307052046,     0.000000001303938,     0.000000000009073 ]
    - [     0.000000001428073,    -0.009189645654220,    -0.019029446275210 ]
    - [    -0.000000000405450,    -0.000593254151055,     0.004587249202611 ]
  - # (1, 23)
    - [    -0.002052817927676,     0.005736928782607,     0.001470257944374 ]
    - [     0.005736927822384,    -0.008677247972405,     0.000848855282105 ]
    - [     0.002956897192425,     0.001707166215582,    -0.003991451331562 ]
  - # (1, 24)
    - [    -0.002052814634771,    -0.005736925371018,    -0.001470259385483 ]
    - [    -0.005736925262708,    -0.008677249351057,     0.000848854341527 ]
    - [    -0.002956899244989,     0.001707165195954,    -0.003991451036488 ]
  - # (1, 25)
    - [    -0.203637984465774,    -0.128781135377862,     0.292975663782592 ]
    - [    -0.128781135597772,    -0.054934355780110,     0.169149593083076 ]
    - [     0.340232274761683,     0.196433210823609,    -0.498280559779559 ]
  - # (1, 26)
    - [    -0.203637990745586,     0.128781127715511,    -0.292975661861609 ]
    - [     0.128781119667343,    -0.054934337891645,     0.169149561620088 ]
    - [    -0.340232281163641,     0.196433193053694,    -0.498280552273557 ]
  - # (1, 27)
    - [    -0.011989463929936,     0.000000001344656,    -0.000000000922071 ]
    - [     0.000000001210226,     0.001259400997697,    -0.001697707884228 ]
    - [    -0.000000000520539,    -0.003414331831921,    -0.003991451063640 ]
  - # (1, 28)
    - [    -0.004444908443474,     0.008218128312422,     0.016479983405676 ]
    - [     0.008218128811489,     0.005044569921289,    -0.009514722365618 ]
    - [     0.000513773074741,    -0.000296627954585,     0.004587249359981 ]
  - # (1, 29)
    - [     0.019417472149504,    -0.000000004500264,     0.000000005503192 ]
    - [     0.000000007820552,    -0.277989810766553,     0.338299157053720 ]
    - [    -0.000000009681738,     0.392866395277363,    -0.498280549966857 ]
  - # (1, 30)
    - [    -0.004444905447966,    -0.008218125159852,    -0.016479983287134 ]
    - [    -0.008218126679381,     0.005044567706664,    -0.009514722906837 ]
    - [    -0.000513773133393,    -0.000296626598856,     0.004587249802783 ]
  - # (1, 31)
    - [     0.009789306582894,     0.000000001635016,    -0.000000001010555 ]
    - [     0.000000001881830,    -0.009189645414202,     0.019029447432760 ]
    - [    -0.000000000915317,     0.000593254098907,     0.004587249936646 ]
  - # (1, 32)
    - [    -0.002052816274616,     0.005736927304476,    -0.001470258701480 ]
    - [     0.005736926862130,    -0.008677249446076,    -0.000848853291993 ]
    - [    -0.002956897709793,    -0.001707165577897,    -0.003991451235938 ]
  - # (1, 33)
    - [    -0.002052815152727,    -0.005736924941391,     0.001470258396398 ]
    - [    -0.005736924957887,    -0.008677248790323,    -0.000848853003491 ]
    - [     0.002956897807524,    -0.001707165044709,    -0.003991451117812 ]
  - # (1, 34)
    - [    -0.203637979173577,    -0.128781128147592,    -0.292975658236545 ]
    - [    -0.128781141560021,    -0.054934356695963,    -0.169149596553243 ]
    - [    -0.340232277397374,    -0.196433201236766,    -0.498280561008492 ]
  - # (1, 35)
    - [    -0.203637990125127,     0.128781123346710,     0.292975664125737 ]
    - [     0.128781119400444,    -0.054934334749195,    -0.169149561647752 ]
    - [     0.340232284354740,    -0.196433187715254,    -0.498280565349722 ]
  - # (1, 36)
    - [    -0.011989464526554,     0.000000001790143,     0.000000000119102 ]
    - [     0.000000001571098,     0.001259401460789,     0.001697709161421 ]
    - [    -0.000000000046450,     0.003414331567798,    -0.003991451090660 ]
  - # (2, 1)
    - [    -0.171168545149450,     0.009396631414087,    -0.000000000119165 ]
    - [    -0.009396635057555,     0.002260096500252,     0.000000000322632 ]
    - [    -0.000000000191627,     0.000000000933849,     0.007302367374735 ]
  - # (2, 2)
    - [     1.312205117786232,     0.000000001602980,     0.000000002497046 ]
    - [     0.000000001602980,     1.312205118187828,    -0.000000011353493 ]
    - [     0.000000002497046,    -0.000000011353493,     2.724110133549895 ]
  - # (2, 3)
    - [    -0.171168537926152,    -0.009396636475392,     0.000000000071489 ]
    - [     0.009396626032466,     0.002260095340402,     0.000000000242773 ]
    - [     0.000000002597232,     0.000000000459215,     0.007302367516316 ]
  - # (2, 4)
    - [    -0.017203730049365,     0.000000001886201,    -0.000000000536404 ]
    - [     0.000000001320071,    -0.017203728947704,     0.000000000065143 ]
    - [    -0.000000000486508,     0.000000000114408,     0.000940709205899 ]
  - # (2, 5)
    - [    -0.041097063841059,     0.065700168373921,     0.000000000486237 ]
    - [     0.084493437843981,    -0.127811376349630,    -0.000000001269189 ]
    - [     0.000000002963576,    -0.000000003474342,     0.007302368040219 ]
  - # (2, 6)
    - [    -0.041097060182247,    -0.065700169937963,    -0.000000000805276 ]
    - [    -0.084493439204815,    -0.127811393264923,    -0.000000000641117 ]
    - [    -0.000000000317474,     0.000000000086069,     0.007302367898638 ]
  - # (2, 7)
    - [    -0.041097063943954,    -0.084493441230813,    -0.000000000796112 ]
    - [    -0.065700170977609,    -0.127811389628379,    -0.000000000999141 ]
    - [     0.000000000149271,    -0.000000001596670,     0.007302367881247 ]
  - # (2, 8)
    - [    -0.041097063492581,     0.084493434679567,     0.000000000382896 ]
    - [     0.065700174603666,    -0.127811384099465,    -0.000000001014790 ]
    - [     0.000000001258138,    -0.000000001469074,     0.007302367739666 ]
  - # (2, 9)
    - [    -0.017203730814394,    -0.000000000571824,    -0.000000000141351 ]
    - [    -0.000000000578526,    -0.017203728462214,    -0.000000000285764 ]
    - [     0.000000000453881,    -0.000000000853410,     0.000940708840968 ]
  - # (2, 10)
    - [     0.009729472943604,     0.008816073431726,    -0.000000000457750 ]
    - [    -0.005861197965060,     0.001284226234144,    -0.000000000119728 ]
    - [    -0.000000000360104,    -0.000000000018462,     0.048029315783280 ]
  - # (2, 11)
    - [     0.009729473510776,    -0.008816071797708,    -0.000000000573878 ]
    - [     0.005861200438681,     0.001284225561832,     0.000000000021215 ]
    - [     0.000000000293866,    -0.000000000417890,     0.048029315862168 ]