# Thermal properties / unit cell (natom)

unit:
  temperature:   K
  free_energy:   kJ/mol
  entropy:       J/K/mol
  heat_capacity: J/K/mol

natom: 4    
cutoff_frequency: 0.00000
num_modes: 138720
num_integrated_modes: 138719

zero_point_energy:       7.6095534

thermal_properties:
- temperature:         0.0000000
  free_energy:         7.6095534
  entropy:             0.0000000
  heat_capacity:       0.0000000
  energy:              7.6095534

- temperature:        10.0000000
  free_energy:         7.6043686
  entropy:             2.0572195
  heat_capacity:       6.2642261
  energy:              7.6249408

- temperature:        20.0000000
  free_energy:         7.5363351
  entropy:            12.8024123
  heat_capacity:      27.5531027
  energy:              7.7923833

- temperature:        30.0000000
  free_energy:         7.3360822
  entropy:            27.4037474
  heat_capacity:      44.3735118
  energy:              8.1581947

- temperature:        40.0000000
  free_energy:         6.9895108
  entropy:            41.7288797
  heat_capacity:      54.9080742
  energy:              8.6586660

- temperature:        50.0000000
  free_energy:         6.5058659
  entropy:            54.7726407
  heat_capacity:      61.8405510
  energy:              9.2444980

- temperature:        60.0000000
  free_energy:         5.8984066
  entropy:            66.5167549
  heat_capacity:      66.9225809
  energy:              9.8894119

- temperature:        70.0000000
  free_energy:         5.1792399
  entropy:            77.1476966
  heat_capacity:      70.9790120
  energy:             10.5795787

- temperature:        80.0000000
  free_energy:         4.3585321
  entropy:            86.8534791
  heat_capacity:      74.3750143
  energy:             11.3068104

- temperature:        90.0000000
  free_energy:         3.4447451
  entropy:            95.7856558
  heat_capacity:      77.2812261
  energy:             12.0654541

- temperature:       100.0000000
  free_energy:         2.4450052
  entropy:           104.0610957
  heat_capacity:      79.7904475
  energy:             12.8511148

- temperature:       110.0000000
  free_energy:         1.3654084
  entropy:           111.7703456
  heat_capacity:      81.9642544
  energy:             13.6601464

- temperature:       120.0000000
  free_energy:         0.2112455
  entropy:           118.9849706
  heat_capacity:      83.8504664
  energy:             14.4894420

- temperature:       130.0000000
  free_energy:        -1.0128362
  entropy:           125.7628315
  heat_capacity:      85.4893351
  energy:             15.3363319

- temperature:       140.0000000
  free_energy:        -2.3027153
  entropy:           132.1516860
  heat_capacity:      86.9156786
  energy:             16.1985208

- temperature:       150.0000000
  free_energy:        -3.6547076
  entropy:           138.1916384
  heat_capacity:      88.1597038
  energy:             17.0740382

- temperature:       160.0000000
  free_energy:        -5.0654994
  entropy:           143.9168364
  heat_capacity:      89.2474842
  energy:             17.9611945

- temperature:       170.0000000
  free_energy:        -6.5320936
  entropy:           149.3566794
  heat_capacity:      90.2013799
  energy:             18.8585419

- temperature:       180.0000000
  free_energy:        -8.0517673
  entropy:           154.5367051
  heat_capacity:      91.0404642
  energy:             19.7648397

- temperature:       190.0000000
  free_energy:        -9.6220364
  entropy:           159.4792590
  heat_capacity:      91.7809457
  energy:             20.6790228

- temperature:       200.0000000
  free_energy:       -11.2406267
  entropy:           164.2040132
  heat_capacity:      92.4365698
  energy:             21.6001760

- temperature:       210.0000000
  free_energy:       -12.9054489
  entropy:           168.7283775
  heat_capacity:      93.0189838
  energy:             22.5275104

- temperature:       220.0000000
  free_energy:       -14.6145781
  entropy:           173.0678306
  heat_capacity:      93.5380607
  energy:             23.4603447

- temperature:       230.0000000
  free_energy:       -16.3662354
  entropy:           177.2361909
  heat_capacity:      94.0021789
  energy:             24.3980885

- temperature:       240.0000000
  free_energy:       -18.1587730
  entropy:           181.2458412
  heat_capacity:      94.4184608
  energy:             25.3402289

- temperature:       250.0000000
  free_energy:       -19.9906604
  entropy:           185.1079161
  heat_capacity:      94.7929746
  energy:             26.2863186

- temperature:       260.0000000
  free_energy:       -21.8604730
  entropy:           188.8324596
  heat_capacity:      95.1309036
  energy:             27.2359665

- temperature:       270.0000000
  free_energy:       -23.7668815
  entropy:           192.4285598
  heat_capacity:      95.4366869
  energy:             28.1888296

- temperature:       280.0000000
  free_energy:       -25.7086436
  entropy:           195.9044624
  heat_capacity:      95.7141376
  energy:             29.1446059

- temperature:       290.0000000
  free_energy:       -27.6845952
  entropy:           199.2676694
  heat_capacity:      95.9665409
  energy:             30.1030289

- temperature:       300.0000000
  free_energy:       -29.6936442
  entropy:           202.5250231
  heat_capacity:      96.1967352
  energy:             31.0638627

- temperature:       310.0000000
  free_energy:       -31.7347637
  entropy:           205.6827792
  heat_capacity:      96.4071807
  energy:             32.0268978

- temperature:       320.0000000
  free_energy:       -33.8069869
  entropy:           208.7466707
  heat_capacity:      96.6000161
  energy:             32.9919477

- temperature:       330.0000000
  free_energy:       -35.9094019
  entropy:           211.7219623
  heat_capacity:      96.7771060
  energy:             33.9588457

- temperature:       340.0000000
  free_energy:       -38.0411471
  entropy:           214.6134994
  heat_capacity:      96.9400806
  energy:             34.9274428

- temperature:       350.0000000
  free_energy:       -40.2014076
  entropy:           217.4257504
  heat_capacity:      97.0903698
  energy:             35.8976050

- temperature:       360.0000000
  free_energy:       -42.3894116
  entropy:           220.1628435
  heat_capacity:      97.2292305
  energy:             36.8692121

- temperature:       370.0000000
  free_energy:       -44.6044267
  entropy:           222.8285999
  heat_capacity:      97.3577710
  energy:             37.8421553

- temperature:       380.0000000
  free_energy:       -46.8457576
  entropy:           225.4265631
  heat_capacity:      97.4769713
  energy:             38.8163364

- temperature:       390.0000000
  free_energy:       -49.1127430
  entropy:           227.9600242
  heat_capacity:      97.5876996
  energy:             39.7916665

- temperature:       400.0000000
  free_energy:       -51.4047533
  entropy:           230.4320451
  heat_capacity:      97.6907274
  energy:             40.7680647

- temperature:       410.0000000
  free_energy:       -53.7211886
  entropy:           232.8454787
  heat_capacity:      97.7867417
  energy:             41.7454576

- temperature:       420.0000000
  free_energy:       -56.0614765
  entropy:           235.2029874
  heat_capacity:      97.8763558
  energy:             42.7237782

- temperature:       430.0000000
  free_energy:       -58.4250703
  entropy:           237.5070594
  heat_capacity:      97.9601184
  energy:             43.7029652

- temperature:       440.0000000
  free_energy:       -60.8114473
  entropy:           239.7600229
  heat_capacity:      98.0385213
  energy:             44.6829627

- temperature:       450.0000000
  free_energy:       -63.2201077
  entropy:           241.9640599
  heat_capacity:      98.1120067
  energy:             45.6637193

- temperature:       460.0000000
  free_energy:       -65.6505723
  entropy:           244.1212176
  heat_capacity:      98.1809723
  energy:             46.6451878

- temperature:       470.0000000
  free_energy:       -68.1023822
  entropy:           246.2334192
  heat_capacity:      98.2457772
  energy:             47.6273249

- temperature:       480.0000000
  free_energy:       -70.5750969
  entropy:           248.3024738
  heat_capacity:      98.3067457
  energy:             48.6100906

- temperature:       490.0000000
  free_energy:       -73.0682935
  entropy:           250.3300847
  heat_capacity:      98.3641718
  energy:             49.5934480

- temperature:       500.0000000
  free_energy:       -75.5815658
  entropy:           252.3178577
  heat_capacity:      98.4183217
  energy:             50.5773631

- temperature:       510.0000000
  free_energy:       -78.1145229
  entropy:           254.2673083
  heat_capacity:      98.4694377
  energy:             51.5618043

- temperature:       520.0000000
  free_energy:       -80.6667890
  entropy:           256.1798681
  heat_capacity:      98.5177401
  energy:             52.5467424

- temperature:       530.0000000
  free_energy:       -83.2380018
  entropy:           258.0568910
  heat_capacity:      98.5634298
  energy:             53.5321504

- temperature:       540.0000000
  free_energy:       -85.8278126
  entropy:           259.8996585
  heat_capacity:      98.6066904
  energy:             54.5180029

- temperature:       550.0000000
  free_energy:       -88.4358849
  entropy:           261.7093846
  heat_capacity:      98.6476896
  energy:             55.5042767

- temperature:       560.0000000
  free_energy:       -91.0618940
  entropy:           263.4872210
  heat_capacity:      98.6865810
  energy:             56.4909497

- temperature:       570.0000000
  free_energy:       -93.7055267
  entropy:           265.2342603
  heat_capacity:      98.7235056
  energy:             57.4780017

- temperature:       580.0000000
  free_energy:       -96.3664800
  entropy:           266.9515409
  heat_capacity:      98.7585928
  energy:             58.4654137

- temperature:       590.0000000
  free_energy:       -99.0444616
  entropy:           268.6400499
  heat_capacity:      98.7919617
  energy:             59.4531679

- temperature:       600.0000000
  free_energy:      -101.7391883
  entropy:           270.3007264
  heat_capacity:      98.8237218
  energy:             60.4412476

- temperature:       610.0000000
  free_energy:      -104.4503863
  entropy:           271.9344649
  heat_capacity:      98.8539743
  energy:             61.4296373

- temperature:       620.0000000
  free_energy:      -107.1777906
  entropy:           273.5421177
  heat_capacity:      98.8828124
  energy:             62.4183223

- temperature:       630.0000000
  free_energy:      -109.9211444
  entropy:           275.1244977
  heat_capacity:      98.9103225
  energy:             63.4072891

- temperature:       640.0000000
  free_energy:      -112.6801989
  entropy:           276.6823806
  heat_capacity:      98.9365842
  energy:             64.3965246

- temperature:       650.0000000
  free_energy:      -115.4547129
  entropy:           278.2165073
  heat_capacity:      98.9616717
  energy:             65.3860169

- temperature:       660.0000000
  free_energy:      -118.2444522
  entropy:           279.7275858
  heat_capacity:      98.9856534
  energy:             66.3757544

- temperature:       670.0000000
  free_energy:      -121.0491900
  entropy:           281.2162932
  heat_capacity:      99.0085931
  energy:             67.3657265

- temperature:       680.0000000
  free_energy:      -123.8687057
  entropy:           282.6832775
  heat_capacity:      99.0305499
  energy:             68.3559230

- temperature:       690.0000000
  free_energy:      -126.7027852
  entropy:           284.1291588
  heat_capacity:      99.0515789
  energy:             69.3463344

- temperature:       700.0000000
  free_energy:      -129.5512205
  entropy:           285.5545316
  heat_capacity:      99.0717314
  energy:             70.3369516

- temperature:       710.0000000
  free_energy:      -132.4138094
  entropy:           286.9599657
  heat_capacity:      99.0910551
  energy:             71.3277662

- temperature:       720.0000000
  free_energy:      -135.2903552
  entropy:           288.3460074
  heat_capacity:      99.1095948
  energy:             72.3187701

- temperature:       730.0000000
  free_energy:      -138.1806666
  entropy:           289.7131812
  heat_capacity:      99.1273919
  energy:             73.3099557

- temperature:       740.0000000
  free_energy:      -141.0845576
  entropy:           291.0619908
  heat_capacity:      99.1444856
  energy:             74.3013156

- temperature:       750.0000000
  free_energy:      -144.0018469
  entropy:           292.3929200
  heat_capacity:      99.1609121
  energy:             75.2928431

- temperature:       760.0000000
  free_energy:      -146.9323580
  entropy:           293.7064338
  heat_capacity:      99.1767057
  energy:             76.2845317

- temperature:       770.0000000
  free_energy:      -149.8759190
  entropy:           295.0029795
  heat_capacity:      99.1918983
  energy:             77.2763753

- temperature:       780.0000000
  free_energy:      -152.8323624
  entropy:           296.2829875
  heat_capacity:      99.2065199
  energy:             78.2683678

- temperature:       790.0000000
  free_energy:      -155.8015250
  entropy:           297.5468719
  heat_capacity:      99.2205986
  energy:             79.2605038

- temperature:       800.0000000
  free_energy:      -158.7832474
  entropy:           298.7950319
  heat_capacity:      99.2341609
  energy:             80.2527781

- temperature:       810.0000000
  free_energy:      -161.7773745
  entropy:           300.0278517
  heat_capacity:      99.2472316
  energy:             81.2451854

- temperature:       820.0000000
  free_energy:      -164.7837546
  entropy:           301.2457021
  heat_capacity:      99.2598342
  energy:             82.2377211

- temperature:       830.0000000
  free_energy:      -167.8022398
  entropy:           302.4489403
  heat_capacity:      99.2719905
  energy:             83.2303806

- temperature:       840.0000000
  free_energy:      -170.8326858
  entropy:           303.6379111
  heat_capacity:      99.2837215
  energy:             84.2231595

- temperature:       850.0000000
  free_energy:      -173.8749516
  entropy:           304.8129474
  heat_capacity:      99.2950465
  energy:             85.2160537

- temperature:       860.0000000
  free_energy:      -176.9288994
  entropy:           305.9743704
  heat_capacity:      99.3059841
  energy:             86.2090592

- temperature:       870.0000000
  free_energy:      -179.9943947
  entropy:           307.1224906
  heat_capacity:      99.3165518
  energy:             87.2021721

- temperature:       880.0000000
  free_energy:      -183.0713059
  entropy:           308.2576078
  heat_capacity:      99.3267658
  energy:             88.1953890

- temperature:       890.0000000
  free_energy:      -186.1595044
  entropy:           309.3800121
  heat_capacity:      99.3366419
  energy:             89.1887063

- temperature:       900.0000000
  free_energy:      -189.2588647
  entropy:           310.4899838
  heat_capacity:      99.3461946
  energy:             90.1821208

- temperature:       910.0000000
  free_energy:      -192.3692636
  entropy:           311.5877943
  heat_capacity:      99.3554379
  energy:             91.1756292

- temperature:       920.0000000
  free_energy:      -195.4905809
  entropy:           312.6737059
  heat_capacity:      99.3643850
  energy:             92.1692285

- temperature:       930.0000000
  free_energy:      -198.6226989
  entropy:           313.7479729
  heat_capacity:      99.3730484
  energy:             93.1629159

- temperature:       940.0000000
  free_energy:      -201.7655024
  entropy:           314.8108415
  heat_capacity:      99.3814399
  energy:             94.1566886

- temperature:       950.0000000
  free_energy:      -204.9188785
  entropy:           315.8625499
  heat_capacity:      99.3895708
  energy:             95.1505439

- temperature:       960.0000000
  free_energy:      -208.0827169
  entropy:           316.9033293
  heat_capacity:      99.3974516
  energy:             96.1444792

- temperature:       970.0000000
  free_energy:      -211.2569094
  entropy:           317.9334036
  heat_capacity:      99.4050925
  energy:             97.1384921

- temperature:       980.0000000
  free_energy:      -214.4413500
  entropy:           318.9529901
  heat_capacity:      99.4125032
  energy:             98.1325803

- temperature:       990.0000000
  free_energy:      -217.6359350
  entropy:           319.9622994
  heat_capacity:      99.4196927
  energy:             99.1267414

- temperature:      1000.0000000
  free_energy:      -220.8405625
  entropy:           320.9615359
  heat_capacity:      99.4266698
  energy:            100.1209734
