phonopy:
  version: "2.37.1"
  frequency_unit_conversion_factor: 15.633302
  symmetry_tolerance: 1.00000e-05

space_group:
  type: "F-43m"
  number: 216
  Hall_symbol: "F -4 2 3"

primitive_matrix:
- [  0.000000000000000,  0.500000000000000,  0.500000000000000 ]
- [  0.500000000000000, -0.000000000000000,  0.500000000000000 ]
- [  0.500000000000000,  0.500000000000000,  0.000000000000000 ]

supercell_matrix:
- [   2,   0,   0 ]
- [   0,   2,   0 ]
- [   0,   0,   2 ]

primitive_cell:
  lattice:
  - [    -0.000000445820564,     3.059685706066623,     3.059685062571769 ] # a
  - [     3.059685370729745,     0.000000390783408,     3.059685062571769 ] # b
  - [     3.059685060960034,     3.059685315283216,     0.000000000000000 ] # c
  points:
  - symbol: Li # 1
    coordinates: [  0.000000008184470,  0.000000005327384,  0.999999997877896 ]
    mass: 6.940000
  - symbol: Sn # 2
    coordinates: [  0.749999999508922,  0.750000001328563,  0.750000002833348 ]
    mass: 118.710000
  reciprocal_lattice: # without 2pi
  - [    -0.163415491562239,     0.163415477979029,     0.163415487149278 ] # a*
  - [     0.163415491562239,    -0.163415477979029,     0.163415536158548 ] # b*
  - [     0.163415491562239,     0.163415518334537,    -0.163415528892179 ] # c*

unit_cell:
  lattice:
  - [     6.119370877510343,     0.000000000000000,     0.000000000000000 ] # a
  - [    -0.000000755590275,     6.119370630566429,     0.000000000000000 ] # b
  - [    -0.000000136050853,     0.000000781566816,     6.119370125143538 ] # c
  points:
  - symbol: Li # 1
    coordinates: [  0.000000001602640,  0.000000003031183,  0.000000006755927 ]
    mass: 6.940000
    reduced_to: 1
  - symbol: Li # 2
    coordinates: [  0.500000003041261,  0.500000002060979,  0.999999994947956 ]
    mass: 6.940000
    reduced_to: 1
  - symbol: Li # 3
    coordinates: [  0.499999997539242,  0.999999998863296,  0.500000001976564 ]
    mass: 6.940000
    reduced_to: 1
  - symbol: Li # 4
    coordinates: [  0.999999997680397,  0.499999996245765,  0.500000002258235 ]
    mass: 6.940000
    reduced_to: 1
  - symbol: Sn # 5
    coordinates: [  0.250000002080956,  0.250000001171135,  0.750000000418742 ]
    mass: 118.710000
    reduced_to: 5
  - symbol: Sn # 6
    coordinates: [  0.249999998402800,  0.750000004123287,  0.249999995608014 ]
    mass: 118.710000
    reduced_to: 5
  - symbol: Sn # 7
    coordinates: [  0.749999997113850,  0.749999996931949,  0.749999999501470 ]
    mass: 118.710000
    reduced_to: 5
  - symbol: Sn # 8
    coordinates: [  0.750000002464865,  0.249999997977458,  0.249999998623278 ]
    mass: 118.710000
    reduced_to: 5

supercell:
  lattice:
  - [    12.238741755020685,     0.000000000000000,     0.000000000000000 ] # a
  - [    -0.000001511180549,    12.238741261132859,     0.000000000000000 ] # b
  - [    -0.000000272101706,     0.000001563133632,    12.238740250287076 ] # c
  points:
  - symbol: Li # 1
    coordinates: [  0.000000000801320,  0.000000001515591,  0.000000003377963 ]
    mass: 6.940000
    reduced_to: 1
  - symbol: Li # 2
    coordinates: [  0.500000000801320,  0.000000001515591,  0.000000003377963 ]
    mass: 6.940000
    reduced_to: 1
  - symbol: Li # 3
    coordinates: [  0.000000000801320,  0.500000001515591,  0.000000003377963 ]
    mass: 6.940000
    reduced_to: 1
  - symbol: Li # 4
    coordinates: [  0.500000000801320,  0.500000001515591,  0.000000003377963 ]
    mass: 6.940000
    reduced_to: 1
  - symbol: Li # 5
    coordinates: [  0.000000000801320,  0.000000001515591,  0.500000003377963 ]
    mass: 6.940000
    reduced_to: 1
  - symbol: Li # 6
    coordinates: [  0.500000000801320,  0.000000001515591,  0.500000003377963 ]
    mass: 6.940000
    reduced_to: 1
  - symbol: Li # 7
    coordinates: [  0.000000000801320,  0.500000001515591,  0.500000003377963 ]
    mass: 6.940000
    reduced_to: 1
  - symbol: Li # 8
    coordinates: [  0.500000000801320,  0.500000001515591,  0.500000003377963 ]
    mass: 6.940000
    reduced_to: 1
  - symbol: Li # 9
    coordinates: [  0.250000001520630,  0.250000001030490,  0.499999997473978 ]
    mass: 6.940000
    reduced_to: 1
  - symbol: Li # 10
    coordinates: [  0.750000001520630,  0.250000001030490,  0.499999997473978 ]
    mass: 6.940000
    reduced_to: 1
  - symbol: Li # 11
    coordinates: [  0.250000001520630,  0.750000001030489,  0.499999997473978 ]
    mass: 6.940000
    reduced_to: 1
  - symbol: Li # 12
    coordinates: [  0.750000001520630,  0.750000001030489,  0.499999997473978 ]
    mass: 6.940000
    reduced_to: 1
  - symbol: Li # 13
    coordinates: [  0.250000001520630,  0.250000001030490,  0.999999997473978 ]
    mass: 6.940000
    reduced_to: 1
  - symbol: Li # 14
    coordinates: [  0.750000001520630,  0.250000001030490,  0.999999997473978 ]
    mass: 6.940000
    reduced_to: 1
  - symbol: Li # 15
    coordinates: [  0.250000001520630,  0.750000001030489,  0.999999997473978 ]
    mass: 6.940000
    reduced_to: 1
  - symbol: Li # 16
    coordinates: [  0.750000001520630,  0.750000001030489,  0.999999997473978 ]
    mass: 6.940000
    reduced_to: 1
  - symbol: Li # 17
    coordinates: [  0.249999998769621,  0.499999999431648,  0.250000000988282 ]
    mass: 6.940000
    reduced_to: 1
  - symbol: Li # 18
    coordinates: [  0.749999998769621,  0.499999999431648,  0.250000000988282 ]
    mass: 6.940000
    reduced_to: 1
  - symbol: Li # 19
    coordinates: [  0.249999998769621,  0.999999999431648,  0.250000000988282 ]
    mass: 6.940000
    reduced_to: 1
  - symbol: Li # 20
    coordinates: [  0.749999998769621,  0.999999999431648,  0.250000000988282 ]
    mass: 6.940000
    reduced_to: 1
  - symbol: Li # 21
    coordinates: [  0.249999998769621,  0.499999999431648,  0.750000000988282 ]
    mass: 6.940000
    reduced_to: 1
  - symbol: Li # 22
    coordinates: [  0.749999998769621,  0.499999999431648,  0.750000000988282 ]
    mass: 6.940000
    reduced_to: 1
  - symbol: Li # 23
    coordinates: [  0.249999998769621,  0.999999999431648,  0.750000000988282 ]
    mass: 6.940000
    reduced_to: 1
  - symbol: Li # 24
    coordinates: [  0.749999998769621,  0.999999999431648,  0.750000000988282 ]
    mass: 6.940000
    reduced_to: 1
  - symbol: Li # 25
    coordinates: [  0.499999998840198,  0.249999998122883,  0.250000001129118 ]
    mass: 6.940000
    reduced_to: 1
  - symbol: Li # 26
    coordinates: [  0.999999998840198,  0.249999998122883,  0.250000001129118 ]
    mass: 6.940000
    reduced_to: 1
  - symbol: Li # 27
    coordinates: [  0.499999998840198,  0.749999998122883,  0.250000001129118 ]
    mass: 6.940000
    reduced_to: 1
  - symbol: Li # 28
    coordinates: [  0.999999998840198,  0.749999998122883,  0.250000001129118 ]
    mass: 6.940000
    reduced_to: 1
  - symbol: Li # 29
    coordinates: [  0.499999998840198,  0.249999998122883,  0.750000001129118 ]
    mass: 6.940000
    reduced_to: 1
  - symbol: Li # 30
    coordinates: [  0.999999998840198,  0.249999998122883,  0.750000001129118 ]
    mass: 6.940000
    reduced_to: 1
  - symbol: Li # 31
    coordinates: [  0.499999998840198,  0.749999998122883,  0.750000001129118 ]
    mass: 6.940000
    reduced_to: 1
  - symbol: Li # 32
    coordinates: [  0.999999998840198,  0.749999998122883,  0.750000001129118 ]
    mass: 6.940000
    reduced_to: 1
  - symbol: Sn # 33
    coordinates: [  0.125000001040478,  0.125000000585568,  0.375000000209371 ]
    mass: 118.710000
    reduced_to: 33
  - symbol: Sn # 34
    coordinates: [  0.625000001040478,  0.125000000585568,  0.375000000209371 ]
    mass: 118.710000
    reduced_to: 33
  - symbol: Sn # 35
    coordinates: [  0.125000001040478,  0.625000000585568,  0.375000000209371 ]
    mass: 118.710000
    reduced_to: 33
  - symbol: Sn # 36
    coordinates: [  0.625000001040478,  0.625000000585568,  0.375000000209371 ]
    mass: 118.710000
    reduced_to: 33
  - symbol: Sn # 37
    coordinates: [  0.125000001040478,  0.125000000585568,  0.875000000209371 ]
    mass: 118.710000
    reduced_to: 33
  - symbol: Sn # 38
    coordinates: [  0.625000001040478,  0.125000000585568,  0.875000000209371 ]
    mass: 118.710000
    reduced_to: 33
  - symbol: Sn # 39
    coordinates: [  0.125000001040478,  0.625000000585568,  0.875000000209371 ]
    mass: 118.710000
    reduced_to: 33
  - symbol: Sn # 40
    coordinates: [  0.625000001040478,  0.625000000585568,  0.875000000209371 ]
    mass: 118.710000
    reduced_to: 33
  - symbol: Sn # 41
    coordinates: [  0.124999999201400,  0.375000002061643,  0.124999997804007 ]
    mass: 118.710000
    reduced_to: 33
  - symbol: Sn # 42
    coordinates: [  0.624999999201400,  0.375000002061643,  0.124999997804007 ]
    mass: 118.710000
    reduced_to: 33
  - symbol: Sn # 43
    coordinates: [  0.124999999201400,  0.875000002061644,  0.124999997804007 ]
    mass: 118.710000
    reduced_to: 33
  - symbol: Sn # 44
    coordinates: [  0.624999999201400,  0.875000002061644,  0.124999997804007 ]
    mass: 118.710000
    reduced_to: 33
  - symbol: Sn # 45
    coordinates: [  0.124999999201400,  0.375000002061643,  0.624999997804007 ]
    mass: 118.710000
    reduced_to: 33
  - symbol: Sn # 46
    coordinates: [  0.624999999201400,  0.375000002061643,  0.624999997804007 ]
    mass: 118.710000
    reduced_to: 33
  - symbol: Sn # 47
    coordinates: [  0.124999999201400,  0.875000002061644,  0.624999997804007 ]
    mass: 118.710000
    reduced_to: 33
  - symbol: Sn # 48
    coordinates: [  0.624999999201400,  0.875000002061644,  0.624999997804007 ]
    mass: 118.710000
    reduced_to: 33
  - symbol: Sn # 49
    coordinates: [  0.374999998556925,  0.374999998465974,  0.374999999750735 ]
    mass: 118.710000
    reduced_to: 33
  - symbol: Sn # 50
    coordinates: [  0.874999998556925,  0.374999998465974,  0.374999999750735 ]
    mass: 118.710000
    reduced_to: 33
  - symbol: Sn # 51
    coordinates: [  0.374999998556925,  0.874999998465974,  0.374999999750735 ]
    mass: 118.710000
    reduced_to: 33
  - symbol: Sn # 52
    coordinates: [  0.874999998556925,  0.874999998465974,  0.374999999750735 ]
    mass: 118.710000
    reduced_to: 33
  - symbol: Sn # 53
    coordinates: [  0.374999998556925,  0.374999998465974,  0.874999999750735 ]
    mass: 118.710000
    reduced_to: 33
  - symbol: Sn # 54
    coordinates: [  0.874999998556925,  0.374999998465974,  0.874999999750735 ]
    mass: 118.710000
    reduced_to: 33
  - symbol: Sn # 55
    coordinates: [  0.374999998556925,  0.874999998465974,  0.874999999750735 ]
    mass: 118.710000
    reduced_to: 33
  - symbol: Sn # 56
    coordinates: [  0.874999998556925,  0.874999998465974,  0.874999999750735 ]
    mass: 118.710000
    reduced_to: 33
  - symbol: Sn # 57
    coordinates: [  0.375000001232433,  0.124999998988729,  0.124999999311639 ]
    mass: 118.710000
    reduced_to: 33
  - symbol: Sn # 58
    coordinates: [  0.875000001232433,  0.124999998988729,  0.124999999311639 ]
    mass: 118.710000
    reduced_to: 33
  - symbol: Sn # 59
    coordinates: [  0.375000001232433,  0.624999998988729,  0.124999999311639 ]
    mass: 118.710000
    reduced_to: 33
  - symbol: Sn # 60
    coordinates: [  0.875000001232433,  0.624999998988729,  0.124999999311639 ]
    mass: 118.710000
    reduced_to: 33
  - symbol: Sn # 61
    coordinates: [  0.375000001232433,  0.124999998988729,  0.624999999311639 ]
    mass: 118.710000
    reduced_to: 33
  - symbol: Sn # 62
    coordinates: [  0.875000001232433,  0.124999998988729,  0.624999999311639 ]
    mass: 118.710000
    reduced_to: 33
  - symbol: Sn # 63
    coordinates: [  0.375000001232433,  0.624999998988729,  0.624999999311639 ]
    mass: 118.710000
    reduced_to: 33
  - symbol: Sn # 64
    coordinates: [  0.875000001232433,  0.624999998988729,  0.624999999311639 ]
    mass: 118.710000
    reduced_to: 33

displacements:
- atom:    1
  displacement:
    [   0.0100000000000000,  0.0000000000000000,  0.0000000000000000 ]
  forces:
  - [  -0.0307556428015232,  0.0000008894130588,  0.0000003771856427 ]
  - [   0.0000391118228436,  0.0000006827460766,  0.0000000325962901 ]
  - [   0.0000255173072219,  0.0000005342037639,  0.0000008922070265 ]
  - [   0.0000205431133509,  0.0000015195430478,  0.0000006947666407 ]
  - [   0.0000247904044954,  0.0000012693926692,  0.0000031776726246 ]
  - [   0.0000171661376953,  0.0000009332135278,  0.0000017257407308 ]
  - [  -0.0000456720590591,  0.0000009182840586,  0.0000020638108253 ]
  - [  -0.0000027036294341, -0.0000002747401595,  0.0000016475096345 ]
  - [  -0.0000010933727026, -0.0000117607414722, -0.0000152885913849 ]
  - [  -0.0000021364539862,  0.0000128038227558, -0.0000155298039317 ]
  - [  -0.0000001369044185,  0.0000108219683170,  0.0000181300565600 ]
  - [  -0.0000026216730475, -0.0000132536515594,  0.0000177398324013 ]
  - [  -0.0003745080903172, -0.0003195498138666, -0.0003664102405310 ]
  - [  -0.0003722524270415,  0.0003182617947459, -0.0003695050254464 ]
  - [  -0.0003754375502467,  0.0003201216459274,  0.0003691157326102 ]
  - [  -0.0003764256834984, -0.0003163963556290,  0.0003720149397850 ]
  - [   0.0000001695007086, -0.0000167870894074, -0.0000114627182484 ]
  - [  -0.0000001201406121, -0.0000165723286045,  0.0000122757628560 ]
  - [  -0.0003749513998628, -0.0003690524026752, -0.0003189397975802 ]
  - [  -0.0003749327734113, -0.0003705853596330,  0.0003178566694260 ]
  - [  -0.0000013066455722,  0.0000168200604094,  0.0000124434009194 ]
  - [  -0.0000008922070265,  0.0000161146745086, -0.0000107735395432 ]
  - [  -0.0003746980801225,  0.0003652498126030,  0.0003213444724679 ]
  - [  -0.0003736140206456,  0.0003661615774035, -0.0003142729401588 ]
  - [   0.0000189568909263,  0.0000166622921824,  0.0000179596245289 ]
  - [   0.0014111818745732,  0.0003642141819000,  0.0003650654107332 ]
  - [   0.0000179139897227,  0.0000174921005964, -0.0000149291008711 ]
  - [   0.0014319913461804,  0.0003733625635505, -0.0003702817484736 ]
  - [   0.0000171616757143, -0.0000164490193129,  0.0000180881470442 ]
  - [   0.0014350172132254, -0.0003721192479134,  0.0003718752413988 ]
  - [   0.0000190142563952, -0.0000174976885319, -0.0000156620517373 ]
  - [   0.0014112610369921, -0.0003651399165392, -0.0003656595945358 ]
  - [  -0.0001794472336769,  0.0002041980624199,  0.0000538155436516 ]
  - [   0.0001436471939087, -0.0000892192329047, -0.0001680552959442 ]
  - [   0.0000608802365605, -0.0001135542988777,  0.0001129433512688 ]
  - [  -0.0000230595469475,  0.0000019818523924, -0.0000000298023224 ]
  - [   0.0066876113414764,  0.0110412249341607, -0.0110417976975441 ]
  - [   0.0003115832805634, -0.0000787436729297,  0.0000776126980782 ]
  - [  -0.0001792907714844, -0.0000546067385585, -0.0002034679055214 ]
  - [   0.0001433566212654,  0.0001674876257312,  0.0000894814729691 ]
  - [  -0.0001786276698112,  0.0000546872615814,  0.0002033263444901 ]
  - [   0.0001429170370102, -0.0001675486564636, -0.0000905916094780 ]
  - [   0.0066902190446854, -0.0110413208603859,  0.0110406726598740 ]
  - [   0.0003136023879051,  0.0000767275050748, -0.0000800937414169 ]
  - [   0.0000606656358286,  0.0001116544008255, -0.0001133680343628 ]
  - [  -0.0000232532620430, -0.0000004991889000, -0.0000011995434761 ]
  - [  -0.0001783072948456, -0.0002031996846199, -0.0000544637441635 ]
  - [   0.0001450777053833,  0.0000894814729691,  0.0001665502786636 ]
  - [  -0.0000238239463215,  0.0000017434358597, -0.0000005364418030 ]
  - [   0.0000613973752479, -0.0001116469502449, -0.0001147091388702 ]
  - [   0.0001452684082324, -0.0000890344381332,  0.0001652613282204 ]
  - [  -0.0001768424117472,  0.0002029091119766, -0.0000588893890381 ]
  - [   0.0001439943735022,  0.0001664906740189, -0.0000921487808228 ]
  - [  -0.0001800596073736, -0.0000554919242859,  0.0002029463648796 ]
  - [   0.0003114894498140, -0.0000778794783400, -0.0000800117850304 ]
  - [   0.0067062871530652,  0.0108687728643417,  0.0108647197484970 ]
  - [   0.0003129721153527,  0.0000780895352364,  0.0000770911574364 ]
  - [   0.0067085502669215, -0.0108664557337761, -0.0108692571520805 ]
  - [   0.0001437335886294, -0.0001685917377472,  0.0000895261764526 ]
  - [  -0.0001773132244125,  0.0000544488430023, -0.0002030804753304 ]
  - [   0.0001453280274291,  0.0000896721758181, -0.0001699626445770 ]
  - [  -0.0001767397916410, -0.0002035275101662,  0.0000525936484337 ]
  - [  -0.0000238612028625, -0.0000001490116119, -0.0000025182962418 ]
  - [   0.0000611944851698,  0.0001124963164330,  0.0001118928194046 ]
- atom:   33
  displacement:
    [   0.0100000000000000,  0.0000000000000000,  0.0000000000000000 ]
  forces:
  - [  -0.0001816099975258,  0.0002040034160018,  0.0000795228406787 ]
  - [   0.0001425463706255, -0.0001119933149312, -0.0001672515645623 ]
  - [   0.0000601513311267, -0.0000897277204785,  0.0000910442322493 ]
  - [  -0.0000231610611081,  0.0000021584303340,  0.0000001741573215 ]
  - [   0.0067344238050282,  0.0108889862895012, -0.0108849387615919 ]
  - [   0.0003087837249041, -0.0000540688342880,  0.0000567957758904 ]
  - [  -0.0001814188435674, -0.0000776592642069, -0.0002010753378272 ]
  - [   0.0001418460160494,  0.0001669861376286,  0.0001145405694842 ]
  - [   0.0066575529053807,  0.0110189327970147,  0.0110201835632324 ]
  - [   0.0003104722127318, -0.0000542737543583, -0.0000533219426870 ]
  - [  -0.0001786602661014, -0.0000785915181041,  0.0002038814127445 ]
  - [   0.0001416699960828,  0.0001672478392720, -0.0001130029559135 ]
  - [  -0.0001785783097148,  0.0002020103856921, -0.0000766217708588 ]
  - [   0.0001454381272197, -0.0001121331006289,  0.0001679714769125 ]
  - [   0.0000582318753004, -0.0000889683142304, -0.0000882670283318 ]
  - [  -0.0000271424651146,  0.0000005513429642,  0.0000033527612686 ]
  - [  -0.0001783519983292,  0.0000774627551436, -0.0002018176019192 ]
  - [   0.0001440579071641, -0.0001676868705545,  0.0001137638464570 ]
  - [   0.0066581182181835, -0.0110207451507449, -0.0110191311687231 ]
  - [   0.0003114026039839,  0.0000535910949111,  0.0000562164932489 ]
  - [   0.0000586137175560,  0.0000902688188944,  0.0000907611101866 ]
  - [  -0.0000256635248661, -0.0000013746321201,  0.0000008093193173 ]
  - [  -0.0001789424568415, -0.0002044765278697,  0.0000798013061285 ]
  - [   0.0001441454514861,  0.0001106550917029, -0.0001656934618950 ]
  - [   0.0003104915958829,  0.0000548306852579, -0.0000539477914572 ]
  - [   0.0067359358072281, -0.0108878351747990,  0.0108882281929255 ]
  - [   0.0001419940963387, -0.0001661265268922, -0.0001112716272473 ]
  - [  -0.0001818649470806,  0.0000795321539044,  0.0002051601186395 ]
  - [   0.0001412175624864,  0.0001129806041718,  0.0001688254997134 ]
  - [  -0.0001788735389709, -0.0002028411254287, -0.0000792210921645 ]
  - [  -0.0000249059849011, -0.0000010272487998,  0.0000018579885364 ]
  - [   0.0000611320137978,  0.0000895513221622, -0.0000913497060537 ]
  - [  -0.0113834068179131,  0.0000009536743164, -0.0000004842877388 ]
  - [   0.0007813945412636,  0.0000010818071132, -0.0000003650784492 ]
  - [  -0.0003677218628582, -0.0000003799796389, -0.0000002160668373 ]
  - [   0.0003546476364136,  0.0000013634562492,  0.0000004321336746 ]
  - [  -0.0003684759140015,  0.0000001058126031, -0.0000008046627045 ]
  - [   0.0003531873226166, -0.0000009223674624, -0.0000003352761269 ]
  - [   0.0000900104641914,  0.0000002891399333, -0.0000002086162567 ]
  - [  -0.0000745952129364,  0.0000001550294257, -0.0000007450580597 ]
  - [   0.0006783753633499,  0.0005329474806786, -0.0005333498120308 ]
  - [   0.0003526583313942, -0.0000613778829575,  0.0000607892870903 ]
  - [   0.0006809979677200,  0.0005168169736862,  0.0005166456103325 ]
  - [   0.0003554522991180, -0.0000646025437163, -0.0000653490424156 ]
  - [   0.0006786391604692, -0.0005189478397369, -0.0005174800753593 ]
  - [   0.0003548264503479,  0.0000632107257843,  0.0000612810254097 ]
  - [   0.0006785765290260, -0.0005335137248039,  0.0005337595939636 ]
  - [   0.0003549605607986,  0.0000605806708336, -0.0000621303915977 ]
  - [  -0.0026637508999556, -0.0028686001896858,  0.0005232989788055 ]
  - [  -0.0026845810934901,  0.0028790533542633,  0.0005242526531219 ]
  - [  -0.0026630044449121,  0.0028706118464470, -0.0005271211266518 ]
  - [  -0.0026837992481887, -0.0028772950172424, -0.0005294382572174 ]
  - [  -0.0000001744020892,  0.0002215653657913, -0.0000639930367470 ]
  - [  -0.0000007762899941, -0.0002212747931480, -0.0000617057085037 ]
  - [  -0.0000007122170018, -0.0002222791954409,  0.0000603049993515 ]
  - [  -0.0000007181889146,  0.0002229288220406,  0.0000602751970291 ]
  - [  -0.0026639073621482, -0.0005247741937637,  0.0028686150908470 ]
  - [  -0.0026840837672353, -0.0005258843302727, -0.0028808265924454 ]
  - [   0.0000000044433079,  0.0000613257288933, -0.0002235546708107 ]
  - [   0.0000016794996327,  0.0000621750950813,  0.0002200081944466 ]
  - [  -0.0026627734769136,  0.0005241006147116, -0.0028719007968903 ]
  - [  -0.0026835100725293,  0.0005248263478279,  0.0028752982616425 ]
  - [   0.0000003755363593, -0.0000619068741798,  0.0002210140228271 ]
  - [   0.0000013067419786, -0.0000628530979156, -0.0002219676971436 ]

force_constants:
  format: "full"
  shape: [ 64, 64 ]
  elements:
  - # (1, 1)
    - [     3.075485409394297,     0.000000010934987,     0.000000000847268 ]
    - [     0.000000010934987,     3.075485415471055,    -0.000000005393148 ]
    - [     0.000000000847268,    -0.000000005393148,     3.075485407216699 ]
  - # (1, 2)
    - [    -0.003990052665765,     0.000000004059874,     0.000000002566062 ]
    - [     0.000000014822450,    -0.002594250421231,     0.000000000637181 ]
    - [     0.000000006040835,     0.000000000080780,    -0.002594252529867 ]
  - # (1, 3)
    - [    -0.002594253991646,     0.000000006580543,    -0.000000000319540 ]
    - [     0.000000012195929,    -0.003990044631556,     0.000000000051333 ]
    - [     0.000000000436430,    -0.000000005533579,    -0.002594248479929 ]
  - # (1, 4)
    - [    -0.001964332565675,     0.000000003359883,    -0.000000000214709 ]
    - [     0.000000011487028,    -0.001964329235633,    -0.000000003642054 ]
    - [     0.000000002175612,    -0.000000004188666,     0.004488339993274 ]
  - # (1, 5)
    - [    -0.002594248265258,    -0.000000003391151,     0.000000006436882 ]
    - [     0.000000003284633,    -0.002594245323293,     0.000000001386654 ]
    - [     0.000000008279959,    -0.000000001724349,    -0.003990051442525 ]
  - # (1, 6)
    - [    -0.001964330069737,     0.000000005845214,    -0.000000002742609 ]
    - [     0.000000007479146,     0.004488339159473,    -0.000000005209578 ]
    - [     0.000000007051868,    -0.000000011560227,    -0.001964335882212 ]
  - # (1, 7)
    - [     0.004488333760878,     0.000000002078041,     0.000000001142200 ]
    - [     0.000000007256406,    -0.001964328972941,    -0.000000003552797 ]
    - [     0.000000008854039,    -0.000000001998537,    -0.001964331699862 ]
  - # (1, 8)
    - [     0.000191502463035,     0.000000002290602,    -0.000000000892979 ]
    - [     0.000000005822225,     0.000191498758466,    -0.000000006206493 ]
    - [     0.000000004092226,    -0.000000006270649,     0.000191489467298 ]
  - # (1, 9)
    - [     0.000022853689744,     0.001194949239449,     0.001673260110380 ]
    - [     0.001194949331530,     0.000022855673178,     0.001673269846357 ]
    - [    -0.001673269063818,    -0.001673275305349,    -0.001905039465984 ]
  - # (1, 10)
    - [     0.000022863659977,    -0.001194944751107,     0.001673258787301 ]
    - [    -0.001194939658174,     0.000022861105601,    -0.001673257719915 ]
    - [    -0.001673262974215,     0.001673262664720,    -0.001905041343885 ]
  - # (1, 11)
    - [     0.000022858939077,    -0.001194947946094,    -0.001673275085896 ]
    - [    -0.001194939336260,     0.000022863116773,     0.001673261098200 ]
    - [     0.001673266018141,    -0.001673274569991,    -0.001905041972894 ]
  - # (1, 12)
    - [     0.000022858005622,     0.001194953281726,    -0.001673266741873 ]
    - [     0.001194950902142,     0.000022854719354,    -0.001673260330791 ]
    - [     0.001673263859730,     0.001673265079743,    -0.001905043504399 ]
  - # (1, 13)
    - [     0.037381375881345,     0.031834307525017,     0.036848830709120 ]
    - [     0.031834307794479,     0.037381389775599,     0.036848821888409 ]
    - [    -0.036848824334260,    -0.036848853135885,    -0.142315153917758 ]
  - # (1, 14)
    - [     0.037381380245720,    -0.031834284710606,     0.036848824927305 ]
    - [    -0.031834285549850,     0.037381376380078,    -0.036848832225274 ]
    - [    -0.036848823021514,     0.036848808085784,    -0.142315148956266 ]
  - # (1, 15)
    - [     0.037381386433823,    -0.031834287658488,    -0.036848842585848 ]
    - [    -0.031834290168232,     0.037381386026676,     0.036848844996762 ]
    - [     0.036848850029388,    -0.036848854465348,    -0.142315163514420 ]
  - # (1, 16)
    - [     0.037381373799218,     0.031834299750089,    -0.036848836180753 ]
    - [     0.031834316019951,     0.037381387393931,    -0.036848851875349 ]
    - [     0.036848833936068,     0.036848814003655,    -0.142315157967694 ]
  - # (1, 17)
    - [     0.000022854358030,     0.001673270426658,     0.001194946059062 ]
    - [    -0.001673256437999,    -0.001905039488473,    -0.001673261997262 ]
    - [     0.001194945707129,     0.001673266473246,     0.000022854801632 ]
  - # (1, 18)
    - [     0.000022860342535,     0.001673270524839,    -0.001194951485175 ]
    - [    -0.001673251741561,    -0.001905031988568,     0.001673272384956 ]
    - [    -0.001194945133686,    -0.001673267109528,     0.000022852266815 ]
  - # (1, 19)
    - [     0.037381379336520,     0.036848849046288,     0.031834296449300 ]
    - [    -0.036848810756387,    -0.142315134454727,    -0.036848818808412 ]
    - [     0.031834304717539,     0.036848853703083,     0.037381382455894 ]
  - # (1, 20)
    - [     0.037381376744580,     0.036848829230705,    -0.031834294811134 ]
    - [    -0.036848810765746,    -0.142315132275480,     0.036848833052732 ]
    - [    -0.031834285330747,    -0.036848821553271,     0.037381380051574 ]
  - # (1, 21)
    - [     0.000022856377663,    -0.001673268921240,    -0.001194951062548 ]
    - [     0.001673268062688,    -0.001905038154974,    -0.001673267153755 ]
    - [    -0.001194942403404,     0.001673256041389,     0.000022856595961 ]
  - # (1, 22)
    - [     0.000022855709384,    -0.001673263288779,     0.001194949794555 ]
    - [     0.001673265273684,    -0.001905036090228,     0.001673270064848 ]
    - [     0.001194948485628,    -0.001673271529794,     0.000022852320322 ]
  - # (1, 23)
    - [     0.037381385928734,    -0.036848843760166,    -0.031834295081568 ]
    - [     0.036848859938209,    -0.142315163119481,    -0.036848830572621 ]
    - [    -0.031834302562734,     0.036848855175571,     0.037381388358896 ]
  - # (1, 24)
    - [     0.037381385087321,    -0.036848845627719,     0.031834295762523 ]
    - [     0.036848856070202,    -0.142315164665882,     0.036848853028280 ]
    - [     0.031834294189889,    -0.036848820295757,     0.037381380228265 ]
  - # (1, 25)
    - [    -0.001905033117983,    -0.001673258208548,    -0.001673266447256 ]
    - [     0.001673279446767,     0.000022864157270,     0.001194936002504 ]
    - [     0.001673272174859,     0.001194935564471,     0.000022854875979 ]
  - # (1, 26)
    - [    -0.142315158244637,    -0.036848841310119,    -0.036848842603096 ]
    - [     0.036848831947438,     0.037381387571899,     0.031834291495409 ]
    - [     0.036848835753583,     0.031834286004361,     0.037381377116480 ]
  - # (1, 27)
    - [    -0.001905042132097,    -0.001673260380491,     0.001673257526856 ]
    - [     0.001673267594436,     0.000022860801430,    -0.001194943869824 ]
    - [    -0.001673267168918,    -0.001194955683385,     0.000022850861591 ]
  - # (1, 28)
    - [    -0.142315148919637,    -0.036848837991197,     0.036848827663703 ]
    - [     0.036848831931294,     0.037381388620089,    -0.031834298028425 ]
    - [    -0.036848853287581,    -0.031834314348367,     0.037381393055817 ]
  - # (1, 29)
    - [    -0.001905038028746,     0.001673265166204,    -0.001673273269799 ]
    - [    -0.001673265906003,     0.000022856128702,    -0.001194949219328 ]
    - [     0.001673268875267,    -0.001194947594880,     0.000022850890267 ]
  - # (1, 30)
    - [    -0.142315152943996,     0.036848824764527,    -0.036848843855336 ]
    - [    -0.036848859946029,     0.037381389337037,    -0.031834309990608 ]
    - [     0.036848849257442,    -0.031834300610293,     0.037381395780643 ]
  - # (1, 31)
    - [    -0.001905038164729,     0.001673261385630,     0.001673263334214 ]
    - [    -0.001673259191270,     0.000022856632586,     0.001194940176020 ]
    - [    -0.001673256970490,     0.001194937023858,     0.000022856501611 ]
  - # (1, 32)
    - [    -0.142315163913087,     0.036848830305028,     0.036848827554026 ]
    - [    -0.036848860177903,     0.037381392292493,     0.031834301544516 ]
    - [    -0.036848833855822,     0.031834290972172,     0.037381379431290 ]
  - # (1, 33)
    - [     0.017905772585210,    -0.020324504435561,    -0.005475279058898 ]
    - [    -0.020324500995543,     0.017905767254770,    -0.005475275863351 ]
    - [    -0.007841634945308,    -0.007841647186595,    -0.031135002334731 ]
  - # (1, 34)
    - [    -0.014351528663529,     0.008994337081044,     0.016735853154130 ]
    - [     0.011266293637253,    -0.006028372381958,    -0.011266284463353 ]
    - [     0.016735865652121,    -0.008994339425554,    -0.014351528558559 ]
  - # (1, 35)
    - [    -0.006028366959709,     0.011266297370278,    -0.011266289036091 ]
    - [     0.008994344157340,    -0.014351521022455,     0.016735863537436 ]
    - [    -0.008994334413587,     0.016735857502082,    -0.014351531264941 ]
  - # (1, 36)
    - [     0.002435847043414,    -0.000090775707860,     0.000090777984455 ]
    - [    -0.000090772604856,     0.002435848346543,     0.000090775348141 ]