phonopy:
  version: "2.37.1"
  frequency_unit_conversion_factor: 15.633302
  symmetry_tolerance: 1.00000e-05

space_group:
  type: "P1"
  number: 1
  Hall_symbol: "P 1"

primitive_matrix:
- [  1.000000000000000,  0.000000000000000, -0.000000000000000 ]
- [  0.000000000000000,  1.000000000000000,  0.000000000000000 ]
- [  0.000000000000000,  0.000000000000000,  1.000000000000000 ]

supercell_matrix:
- [   2,   0,   0 ]
- [   0,   2,   0 ]
- [   0,   0,   1 ]

primitive_cell:
  lattice:
  - [     6.260662175258919,     0.000000000000000,     0.000000000000000 ] # a
  - [    -0.021863596308129,     6.261525835865093,     0.000000000000000 ] # b
  - [    -1.520219506784027,    -1.524534140719812,     9.866139367971330 ] # c
  points:
  - symbol: Li # 1
    coordinates: [  0.327787792612212,  0.950557198982629,  0.884611600949204 ]
    mass: 6.940000
  - symbol: Li # 2
    coordinates: [  0.124975520147322,  0.254057391346384,  0.095765038245126 ]
    mass: 6.940000
  - symbol: Li # 3
    coordinates: [  0.929082030909954,  0.554127224476027,  0.293521884225162 ]
    mass: 6.940000
  - symbol: Li # 4
    coordinates: [  0.717644110486997,  0.372677140333546,  0.503664687767827 ]
    mass: 6.940000
  - symbol: Li # 5
    coordinates: [  0.242946378017954,  0.846093535998143,  0.503494653224829 ]
    mass: 6.940000
  - symbol: Li # 6
    coordinates: [  0.822024746105186,  0.951858221542945,  0.878488118056964 ]
    mass: 6.940000
  - symbol: Li # 7
    coordinates: [  0.820835102046823,  0.456916971401394,  0.884757248095613 ]
    mass: 6.940000
  - symbol: Li # 8
    coordinates: [  0.425255295030183,  0.058438338615604,  0.294094877547578 ]
    mass: 6.940000
  - symbol: Li # 9
    coordinates: [  0.024374291109008,  0.153743940500832,  0.675620028718916 ]
    mass: 6.940000
  - symbol: Li # 10
    coordinates: [  0.629642604665055,  0.759200437348191,  0.093519210285319 ]
    mass: 6.940000
  - symbol: Li # 11
    coordinates: [  0.326703413192187,  0.456012995230393,  0.884626806529962 ]
    mass: 6.940000
  - symbol: Li # 12
    coordinates: [  0.718540156958060,  0.847439974077249,  0.499217978915957 ]
    mass: 6.940000
  - symbol: Ga # 13
    coordinates: [  0.531953832084193,  0.660930794672009,  0.706129534798797 ]
    mass: 69.723000
  - symbol: Ga # 14
    coordinates: [  0.232226856409968,  0.362061607429574,  0.493931374907943 ]
    mass: 69.723000
  - symbol: Sn # 15
    coordinates: [  0.426026621364200,  0.555425773392605,  0.290086137605868 ]
    mass: 118.710000
  - symbol: Sn # 16
    coordinates: [  0.523908685489677,  0.154922566679968,  0.681826433474049 ]
    mass: 118.710000
  - symbol: Sn # 17
    coordinates: [  0.930102170195466,  0.059227287538936,  0.312684301881990 ]
    mass: 118.710000
  - symbol: Sn # 18
    coordinates: [  0.629123054020835,  0.252324263302278,  0.091484798950146 ]
    mass: 118.710000
  - symbol: Sn # 19
    coordinates: [  0.122981915153809,  0.758599319511488,  0.091294664268529 ]
    mass: 118.710000
  - symbol: Sn # 20
    coordinates: [  0.025645868185978,  0.653166202200355,  0.682141920658321 ]
    mass: 118.710000
  reciprocal_lattice: # without 2pi
  - [     0.159727513161760,     0.000557726336777,     0.024697720661766 ] # a*
  - [     0.000000000000000,     0.159705481732927,     0.024677987030302 ] # b*
  - [     0.000000000000000,     0.000000000000000,     0.101356768103877 ] # c*

unit_cell:
  lattice:
  - [     6.260662175258919,     0.000000000000000,     0.000000000000000 ] # a
  - [    -0.021863596308129,     6.261525835865093,     0.000000000000000 ] # b
  - [    -1.520219506784027,    -1.524534140719812,     9.866139367971330 ] # c
  points:
  - symbol: Li # 1
    coordinates: [  0.327787792612212,  0.950557198982629,  0.884611600949204 ]
    mass: 6.940000
    reduced_to: 1
  - symbol: Li # 2
    coordinates: [  0.124975520147322,  0.254057391346384,  0.095765038245126 ]
    mass: 6.940000
    reduced_to: 2
  - symbol: Li # 3
    coordinates: [  0.929082030909954,  0.554127224476027,  0.293521884225162 ]
    mass: 6.940000
    reduced_to: 3
  - symbol: Li # 4
    coordinates: [  0.717644110486997,  0.372677140333546,  0.503664687767827 ]
    mass: 6.940000
    reduced_to: 4
  - symbol: Li # 5
    coordinates: [  0.242946378017954,  0.846093535998143,  0.503494653224829 ]
    mass: 6.940000
    reduced_to: 5
  - symbol: Li # 6
    coordinates: [  0.822024746105186,  0.951858221542945,  0.878488118056964 ]
    mass: 6.940000
    reduced_to: 6
  - symbol: Li # 7
    coordinates: [  0.820835102046823,  0.456916971401394,  0.884757248095613 ]
    mass: 6.940000
    reduced_to: 7
  - symbol: Li # 8
    coordinates: [  0.425255295030183,  0.058438338615604,  0.294094877547578 ]
    mass: 6.940000
    reduced_to: 8
  - symbol: Li # 9
    coordinates: [  0.024374291109008,  0.153743940500832,  0.675620028718916 ]
    mass: 6.940000
    reduced_to: 9
  - symbol: Li # 10
    coordinates: [  0.629642604665055,  0.759200437348191,  0.093519210285319 ]
    mass: 6.940000
    reduced_to: 10
  - symbol: Li # 11
    coordinates: [  0.326703413192187,  0.456012995230393,  0.884626806529962 ]
    mass: 6.940000
    reduced_to: 11
  - symbol: Li # 12
    coordinates: [  0.718540156958060,  0.847439974077249,  0.499217978915957 ]
    mass: 6.940000
    reduced_to: 12
  - symbol: Ga # 13
    coordinates: [  0.531953832084193,  0.660930794672009,  0.706129534798797 ]
    mass: 69.723000
    reduced_to: 13
  - symbol: Ga # 14
    coordinates: [  0.232226856409968,  0.362061607429574,  0.493931374907943 ]
    mass: 69.723000
    reduced_to: 14
  - symbol: Sn # 15
    coordinates: [  0.426026621364200,  0.555425773392605,  0.290086137605868 ]
    mass: 118.710000
    reduced_to: 15
  - symbol: Sn # 16
    coordinates: [  0.523908685489677,  0.154922566679968,  0.681826433474049 ]
    mass: 118.710000
    reduced_to: 16
  - symbol: Sn # 17
    coordinates: [  0.930102170195466,  0.059227287538936,  0.312684301881990 ]
    mass: 118.710000
    reduced_to: 17
  - symbol: Sn # 18
    coordinates: [  0.629123054020835,  0.252324263302278,  0.091484798950146 ]
    mass: 118.710000
    reduced_to: 18
  - symbol: Sn # 19
    coordinates: [  0.122981915153809,  0.758599319511488,  0.091294664268529 ]
    mass: 118.710000
    reduced_to: 19
  - symbol: Sn # 20
    coordinates: [  0.025645868185978,  0.653166202200355,  0.682141920658321 ]
    mass: 118.710000
    reduced_to: 20

supercell:
  lattice:
  - [    12.521324350517839,     0.000000000000000,     0.000000000000000 ] # a
  - [    -0.043727192616259,    12.523051671730187,     0.000000000000000 ] # b
  - [    -1.520219506784027,    -1.524534140719812,     9.866139367971330 ] # c
  points:
  - symbol: Li # 1
    coordinates: [  0.163893896306106,  0.475278599491315,  0.884611600949204 ]
    mass: 6.940000
    reduced_to: 1
  - symbol: Li # 2
    coordinates: [  0.663893896306106,  0.475278599491315,  0.884611600949204 ]
    mass: 6.940000
    reduced_to: 1
  - symbol: Li # 3
    coordinates: [  0.163893896306106,  0.975278599491315,  0.884611600949204 ]
    mass: 6.940000
    reduced_to: 1
  - symbol: Li # 4
    coordinates: [  0.663893896306106,  0.975278599491315,  0.884611600949204 ]
    mass: 6.940000
    reduced_to: 1
  - symbol: Li # 5
    coordinates: [  0.062487760073661,  0.127028695673192,  0.095765038245126 ]
    mass: 6.940000
    reduced_to: 5
  - symbol: Li # 6
    coordinates: [  0.562487760073661,  0.127028695673192,  0.095765038245126 ]
    mass: 6.940000
    reduced_to: 5
  - symbol: Li # 7
    coordinates: [  0.062487760073661,  0.627028695673192,  0.095765038245126 ]
    mass: 6.940000
    reduced_to: 5
  - symbol: Li # 8
    coordinates: [  0.562487760073661,  0.627028695673192,  0.095765038245126 ]
    mass: 6.940000
    reduced_to: 5
  - symbol: Li # 9
    coordinates: [  0.464541015454977,  0.277063612238014,  0.293521884225162 ]
    mass: 6.940000
    reduced_to: 9
  - symbol: Li # 10
    coordinates: [  0.964541015454977,  0.277063612238014,  0.293521884225162 ]
    mass: 6.940000
    reduced_to: 9
  - symbol: Li # 11
    coordinates: [  0.464541015454977,  0.777063612238014,  0.293521884225162 ]
    mass: 6.940000
    reduced_to: 9
  - symbol: Li # 12
    coordinates: [  0.964541015454977,  0.777063612238014,  0.293521884225162 ]
    mass: 6.940000
    reduced_to: 9
  - symbol: Li # 13
    coordinates: [  0.358822055243499,  0.186338570166773,  0.503664687767827 ]
    mass: 6.940000
    reduced_to: 13
  - symbol: Li # 14
    coordinates: [  0.858822055243499,  0.186338570166773,  0.503664687767827 ]
    mass: 6.940000
    reduced_to: 13
  - symbol: Li # 15
    coordinates: [  0.358822055243499,  0.686338570166773,  0.503664687767827 ]
    mass: 6.940000
    reduced_to: 13
  - symbol: Li # 16
    coordinates: [  0.858822055243499,  0.686338570166773,  0.503664687767827 ]
    mass: 6.940000
    reduced_to: 13
  - symbol: Li # 17
    coordinates: [  0.121473189008977,  0.423046767999072,  0.503494653224829 ]
    mass: 6.940000
    reduced_to: 17
  - symbol: Li # 18
    coordinates: [  0.621473189008977,  0.423046767999072,  0.503494653224829 ]
    mass: 6.940000
    reduced_to: 17
  - symbol: Li # 19
    coordinates: [  0.121473189008977,  0.923046767999072,  0.503494653224829 ]
    mass: 6.940000
    reduced_to: 17
  - symbol: Li # 20
    coordinates: [  0.621473189008977,  0.923046767999072,  0.503494653224829 ]
    mass: 6.940000
    reduced_to: 17
  - symbol: Li # 21
    coordinates: [  0.411012373052593,  0.475929110771472,  0.878488118056964 ]
    mass: 6.940000
    reduced_to: 21
  - symbol: Li # 22
    coordinates: [  0.911012373052593,  0.475929110771472,  0.878488118056964 ]
    mass: 6.940000
    reduced_to: 21
  - symbol: Li # 23
    coordinates: [  0.411012373052593,  0.975929110771472,  0.878488118056964 ]
    mass: 6.940000
    reduced_to: 21
  - symbol: Li # 24
    coordinates: [  0.911012373052593,  0.975929110771472,  0.878488118056964 ]
    mass: 6.940000
    reduced_to: 21
  - symbol: Li # 25
    coordinates: [  0.410417551023412,  0.228458485700697,  0.884757248095613 ]
    mass: 6.940000
    reduced_to: 25
  - symbol: Li # 26
    coordinates: [  0.910417551023412,  0.228458485700697,  0.884757248095613 ]
    mass: 6.940000
    reduced_to: 25
  - symbol: Li # 27
    coordinates: [  0.410417551023412,  0.728458485700697,  0.884757248095613 ]
    mass: 6.940000
    reduced_to: 25
  - symbol: Li # 28
    coordinates: [  0.910417551023412,  0.728458485700697,  0.884757248095613 ]
    mass: 6.940000
    reduced_to: 25
  - symbol: Li # 29
    coordinates: [  0.212627647515092,  0.029219169307802,  0.294094877547578 ]
    mass: 6.940000
    reduced_to: 29
  - symbol: Li # 30
    coordinates: [  0.712627647515092,  0.029219169307802,  0.294094877547578 ]
    mass: 6.940000
    reduced_to: 29
  - symbol: Li # 31
    coordinates: [  0.212627647515092,  0.529219169307802,  0.294094877547578 ]
    mass: 6.940000
    reduced_to: 29
  - symbol: Li # 32
    coordinates: [  0.712627647515092,  0.529219169307802,  0.294094877547578 ]
    mass: 6.940000
    reduced_to: 29
  - symbol: Li # 33
    coordinates: [  0.012187145554504,  0.076871970250416,  0.675620028718916 ]
    mass: 6.940000
    reduced_to: 33
  - symbol: Li # 34
    coordinates: [  0.512187145554504,  0.076871970250416,  0.675620028718916 ]
    mass: 6.940000
    reduced_to: 33
  - symbol: Li # 35
    coordinates: [  0.012187145554504,  0.576871970250416,  0.675620028718916 ]
    mass: 6.940000
    reduced_to: 33
  - symbol: Li # 36
    coordinates: [  0.512187145554504,  0.576871970250416,  0.675620028718916 ]
    mass: 6.940000
    reduced_to: 33
  - symbol: Li # 37
    coordinates: [  0.314821302332527,  0.379600218674096,  0.093519210285319 ]
    mass: 6.940000
    reduced_to: 37
  - symbol: Li # 38
    coordinates: [  0.814821302332527,  0.379600218674096,  0.093519210285319 ]
    mass: 6.940000
    reduced_to: 37
  - symbol: Li # 39
    coordinates: [  0.314821302332527,  0.879600218674096,  0.093519210285319 ]
    mass: 6.940000
    reduced_to: 37
  - symbol: Li # 40
    coordinates: [  0.814821302332527,  0.879600218674096,  0.093519210285319 ]
    mass: 6.940000
    reduced_to: 37
  - symbol: Li # 41
    coordinates: [  0.163351706596093,  0.228006497615197,  0.884626806529962 ]
    mass: 6.940000
    reduced_to: 41
  - symbol: Li # 42
    coordinates: [  0.663351706596093,  0.228006497615197,  0.884626806529962 ]
    mass: 6.940000
    reduced_to: 41
  - symbol: Li # 43
    coordinates: [  0.163351706596093,  0.728006497615197,  0.884626806529962 ]
    mass: 6.940000
    reduced_to: 41
  - symbol: Li # 44
    coordinates: [  0.663351706596093,  0.728006497615197,  0.884626806529962 ]
    mass: 6.940000
    reduced_to: 41
  - symbol: Li # 45
    coordinates: [  0.359270078479030,  0.423719987038625,  0.499217978915957 ]
    mass: 6.940000
    reduced_to: 45
  - symbol: Li # 46
    coordinates: [  0.859270078479030,  0.423719987038625,  0.499217978915957 ]
    mass: 6.940000
    reduced_to: 45
  - symbol: Li # 47
    coordinates: [  0.359270078479030,  0.923719987038625,  0.499217978915957 ]
    mass: 6.940000
    reduced_to: 45
  - symbol: Li # 48
    coordinates: [  0.859270078479030,  0.923719987038625,  0.499217978915957 ]
    mass: 6.940000
    reduced_to: 45
  - symbol: Ga # 49
    coordinates: [  0.265976916042097,  0.330465397336004,  0.706129534798797 ]
    mass: 69.723000
    reduced_to: 49
  - symbol: Ga # 50
    coordinates: [  0.765976916042097,  0.330465397336004,  0.706129534798797 ]
    mass: 69.723000
    reduced_to: 49
  - symbol: Ga # 51
    coordinates: [  0.265976916042097,  0.830465397336004,  0.706129534798797 ]
    mass: 69.723000
    reduced_to: 49
  - symbol: Ga # 52
    coordinates: [  0.765976916042097,  0.830465397336004,  0.706129534798797 ]
    mass: 69.723000
    reduced_to: 49
  - symbol: Ga # 53
    coordinates: [  0.116113428204984,  0.181030803714787,  0.493931374907943 ]
    mass: 69.723000
    reduced_to: 53
  - symbol: Ga # 54
    coordinates: [  0.616113428204984,  0.181030803714787,  0.493931374907943 ]
    mass: 69.723000
    reduced_to: 53
  - symbol: Ga # 55
    coordinates: [  0.116113428204984,  0.681030803714787,  0.493931374907943 ]
    mass: 69.723000
    reduced_to: 53
  - symbol: Ga # 56
    coordinates: [  0.616113428204984,  0.681030803714787,  0.493931374907943 ]
    mass: 69.723000
    reduced_to: 53
  - symbol: Sn # 57
    coordinates: [  0.213013310682100,  0.277712886696302,  0.290086137605868 ]
    mass: 118.710000
    reduced_to: 57
  - symbol: Sn # 58
    coordinates: [  0.713013310682100,  0.277712886696302,  0.290086137605868 ]
    mass: 118.710000
    reduced_to: 57
  - symbol: Sn # 59
    coordinates: [  0.213013310682100,  0.777712886696302,  0.290086137605868 ]
    mass: 118.710000
    reduced_to: 57
  - symbol: Sn # 60
    coordinates: [  0.713013310682100,  0.777712886696302,  0.290086137605868 ]
    mass: 118.710000
    reduced_to: 57
  - symbol: Sn # 61
    coordinates: [  0.261954342744839,  0.077461283339984,  0.681826433474049 ]
    mass: 118.710000
    reduced_to: 61
  - symbol: Sn # 62
    coordinates: [  0.761954342744839,  0.077461283339984,  0.681826433474049 ]
    mass: 118.710000
    reduced_to: 61
  - symbol: Sn # 63
    coordinates: [  0.261954342744839,  0.577461283339984,  0.681826433474049 ]
    mass: 118.710000
    reduced_to: 61
  - symbol: Sn # 64
    coordinates: [  0.761954342744839,  0.577461283339984,  0.681826433474049 ]
    mass: 118.710000
    reduced_to: 61
  - symbol: Sn # 65
    coordinates: [  0.465051085097733,  0.029613643769468,  0.312684301881990 ]
    mass: 118.710000
    reduced_to: 65
  - symbol: Sn # 66
    coordinates: [  0.965051085097733,  0.029613643769468,  0.312684301881990 ]
    mass: 118.710000
    reduced_to: 65
  - symbol: Sn # 67
    coordinates: [  0.465051085097733,  0.529613643769468,  0.312684301881990 ]
    mass: 118.710000
    reduced_to: 65
  - symbol: Sn # 68
    coordinates: [  0.965051085097733,  0.529613643769468,  0.312684301881990 ]
    mass: 118.710000
    reduced_to: 65
  - symbol: Sn # 69
    coordinates: [  0.314561527010417,  0.126162131651139,  0.091484798950146 ]
    mass: 118.710000
    reduced_to: 69
  - symbol: Sn # 70
    coordinates: [  0.814561527010417,  0.126162131651139,  0.091484798950146 ]
    mass: 118.710000
    reduced_to: 69
  - symbol: Sn # 71
    coordinates: [  0.314561527010417,  0.626162131651139,  0.091484798950146 ]
    mass: 118.710000
    reduced_to: 69
  - symbol: Sn # 72
    coordinates: [  0.814561527010417,  0.626162131651139,  0.091484798950146 ]
    mass: 118.710000
    reduced_to: 69
  - symbol: Sn # 73
    coordinates: [  0.061490957576905,  0.379299659755744,  0.091294664268529 ]
    mass: 118.710000
    reduced_to: 73
  - symbol: Sn # 74
    coordinates: [  0.561490957576905,  0.379299659755744,  0.091294664268529 ]
    mass: 118.710000
    reduced_to: 73
  - symbol: Sn # 75
    coordinates: [  0.061490957576905,  0.879299659755744,  0.091294664268529 ]
    mass: 118.710000
    reduced_to: 73
  - symbol: Sn # 76
    coordinates: [  0.561490957576905,  0.879299659755744,  0.091294664268529 ]
    mass: 118.710000
    reduced_to: 73
  - symbol: Sn # 77
    coordinates: [  0.012822934092989,  0.326583101100177,  0.682141920658321 ]
    mass: 118.710000
    reduced_to: 77
  - symbol: Sn # 78
    coordinates: [  0.512822934092989,  0.326583101100177,  0.682141920658321 ]
    mass: 118.710000
    reduced_to: 77
  - symbol: Sn # 79
    coordinates: [  0.012822934092989,  0.826583101100177,  0.682141920658321 ]
    mass: 118.710000
    reduced_to: 77
  - symbol: Sn # 80
    coordinates: [  0.512822934092989,  0.826583101100177,  0.682141920658321 ]
    mass: 118.710000
    reduced_to: 77

displacements:
- atom:    1
  displacement:
    [   0.0100000000000000,  0.0000000000000000,  0.0000000000000000 ]
  forces:
  - [  -0.0169875249266624,  0.0018217638134956,  0.0192933790385723 ]
  - [  -0.0014785970561206,  0.0011909045279026,  0.0179791599512100 ]
  - [  -0.0012527010403574,  0.0011891741305590,  0.0179780684411526 ]
  - [  -0.0012174751609564,  0.0012225799728185,  0.0179906189441681 ]
  - [  -0.0152484159916639, -0.0147734843194485, -0.0330485962331295 ]
  - [  -0.0151886325329542, -0.0147322770208120, -0.0329806618392467 ]
  - [  -0.0145085165277123, -0.0155686177313328, -0.0342759341001511 ]
  - [  -0.0152746858075261, -0.0147846750915051, -0.0329568870365620 ]
  - [  -0.0356274768710136,  0.0306809935718775,  0.0604742094874382 ]
  - [  -0.0357692316174507,  0.0304454900324345,  0.0605924464762211 ]
  - [  -0.0357725881040096,  0.0304720886051655,  0.0604190640151501 ]
  - [  -0.0356010235846043,  0.0307154916226864,  0.0605650879442692 ]
  - [  -0.0026019550859928, -0.0291813649237156, -0.2197989672422409 ]
  - [  -0.0025565829128027, -0.0294235274195671, -0.2201394885778427 ]
  - [  -0.0026034712791443, -0.0295151676982641, -0.2200098484754562 ]
  - [  -0.0025556962937117, -0.0293119475245476, -0.2200346440076828 ]
  - [  -0.0245125386863947,  0.0043936949223280, -0.2143166512250900 ]
  - [  -0.0244850367307663,  0.0045613609254360, -0.2145338356494904 ]
  - [  -0.0244392212480307,  0.0046026669442654, -0.2145486176013947 ]
  - [  -0.0244792327284813,  0.0045761670917273, -0.2145333290100098 ]
  - [   0.0148863019421697,  0.0091686910018325,  0.1621626168489456 ]
  - [   0.0148710319772363,  0.0094409305602312,  0.1626084893941879 ]
  - [   0.0127377435564995,  0.0093018952757120,  0.1624656170606613 ]
  - [   0.0127397328615189,  0.0093235168606043,  0.1624757349491119 ]
  - [   0.0047470745630562,  0.0000284565612674,  0.0187238678336143 ]
  - [   0.0049971044063568, -0.0002661943435669,  0.0188340134918690 ]
  - [   0.0048373616300523, -0.0002792216837406,  0.0185371898114681 ]
  - [   0.0045536770485342,  0.0000978726893663,  0.0187567062675953 ]
  - [   0.0280901677906513, -0.0349177569150925,  0.0574404560029507 ]
  - [   0.0280411113053560, -0.0347754061222076,  0.0574912875890732 ]
  - [   0.0283951424062252, -0.0346464626491070,  0.0574542805552483 ]
  - [   0.0279646515846252, -0.0347576364874840,  0.0574951693415642 ]
  - [  -0.0124527923762798, -0.0143241807818413, -0.0095044206827879 ]
  - [  -0.0124255716800690, -0.0143162868916988, -0.0095975603908300 ]
  - [  -0.0118596144020557, -0.0152626223862171, -0.0084719453006983 ]
  - [  -0.0124055258929729, -0.0143059454858303, -0.0096010006964207 ]
  - [   0.0095663350075483,  0.0073557281866670,  0.0374653078615665 ]
  - [   0.0086991786956787,  0.0081220101565123,  0.0360514186322689 ]
  - [   0.0087111592292786,  0.0081342617049813,  0.0361916720867157 ]
  - [   0.0087909381836653,  0.0081884833052754,  0.0361375100910664 ]
  - [  -0.0012938939034939, -0.0009015230461955,  0.0783459246158600 ]
  - [  -0.0010097557678819, -0.0009845732711256,  0.0785492137074471 ]
  - [  -0.0011046950239688, -0.0011333143338561,  0.0785231888294220 ]
  - [  -0.0009975158609450, -0.0010103615932167,  0.0785579830408096 ]
  - [   0.0079372487962246,  0.0109488163143396, -0.0603201575577259 ]
  - [   0.0079799368977547,  0.0109544750303030, -0.0600994676351547 ]
  - [   0.0078510195016861,  0.0109324175864458, -0.0602458007633686 ]
  - [   0.0078720096498728,  0.0109513811767101, -0.0602732971310616 ]
  - [   0.0108369030058384,  0.0100864917039871, -0.0842743739485741 ]
  - [   0.0086271911859512,  0.0124130323529243, -0.0825221613049507 ]
  - [   0.0084348134696484,  0.0125264115631580, -0.0825654491782188 ]
  - [   0.0084229037165642,  0.0125244818627834, -0.0825235247612000 ]
  - [   0.0355378128588200,  0.0289241969585419, -0.0277952589094639 ]
  - [   0.0355828404426575,  0.0288422368466854, -0.0279081258922815 ]
  - [   0.0358467847108841,  0.0287882052361965, -0.0277205668389797 ]
  - [   0.0355675667524338,  0.0287485606968403, -0.0280577130615711 ]
  - [   0.0033042859286070,  0.0027141310274601,  0.1642728447914124 ]
  - [   0.0033661630004644,  0.0025035534054041,  0.1644952893257141 ]
  - [   0.0031541883945465,  0.0025464221835136,  0.1647173762321472 ]
  - [   0.0033523570746183,  0.0025143846869469,  0.1645841598510742 ]
  - [  -0.0030563194304705, -0.0198320019990206,  0.2178867161273956 ]
  - [  -0.0031889732927084, -0.0198096968233585,  0.2177666425704956 ]
  - [  -0.0007830001413822, -0.0173658095300198,  0.2155306637287140 ]
  - [  -0.0030323117971420, -0.0196489132940769,  0.2178215980529785 ]
  - [  -0.0084018185734749, -0.0077677909284830, -0.0235632508993149 ]
  - [  -0.0084980744868517, -0.0078114774078131, -0.0236453488469124 ]
  - [  -0.0079783890396357, -0.0080425385385752, -0.0233822390437126 ]
  - [  -0.0080479923635721, -0.0080640297383070, -0.0237301439046860 ]
  - [   0.0312516875565052, -0.0200684461742640, -0.1846915632486343 ]
  - [   0.0313296318054199, -0.0199189297854900, -0.1846145838499069 ]
  - [   0.0327074192464352, -0.0192400123924017, -0.1835132539272308 ]
  - [   0.0312665253877640, -0.0198992565274239, -0.1849513798952103 ]
  - [  -0.0170173980295658,  0.0310212820768356, -0.1841398328542709 ]
  - [  -0.0185007099062204,  0.0303152799606323, -0.1826169937849045 ]
  - [  -0.0185399372130632,  0.0301873087882996, -0.1828147023916245 ]
  - [  -0.0184807274490595,  0.0303136818110943, -0.1829006969928741 ]
  - [  -0.0167797021567822,  0.0040978081524372,  0.2263744473457336 ]
  - [  -0.0181810203939676,  0.0028716400265694,  0.2246644794940948 ]
  - [  -0.0182785745710135,  0.0028715077787638,  0.2247375994920731 ]
  - [  -0.0183830969035625,  0.0030095558613539,  0.2248107045888901 ]
- atom:    1
  displacement:
    [  -0.0100000000000000,  0.0000000000000000,  0.0000000000000000 ]
  forces:
  - [   0.0145196747034788,  0.0006325119175017,  0.0167355127632618 ]
  - [  -0.0009970171377063,  0.0012315721251070,  0.0180109851062298 ]
  - [  -0.0012241322547197,  0.0012343709822744,  0.0180131830275059 ]
  - [  -0.0012586936354637,  0.0012006666511297,  0.0180011689662933 ]
  - [  -0.0151522317901254, -0.0146442446857691, -0.0329050794243813 ]
  - [  -0.0152126485481858, -0.0146865816786885, -0.0329739823937416 ]
  - [  -0.0158894918859005, -0.0138410255312920, -0.0316617898643017 ]
  - [  -0.0151287913322449, -0.0146353002637625, -0.0329972729086876 ]
  - [  -0.0356212072074413,  0.0305610336363316,  0.0605443902313709 ]
  - [  -0.0354810059070587,  0.0307959429919720,  0.0604272000491619 ]
  - [  -0.0354718007147312,  0.0307724457234144,  0.0606002956628799 ]
  - [  -0.0356492139399052,  0.0305273290723562,  0.0604521557688713 ]
  - [  -0.0023669078946114, -0.0294986516237259, -0.2202814519405365 ]
  - [  -0.0024181157350540, -0.0292537473142147, -0.2199404537677765 ]
  - [  -0.0023715272545815, -0.0291601493954659, -0.2200645804405212 ]
  - [  -0.0024198442697525, -0.0293637830764055, -0.2200407683849335 ]
  - [  -0.0244219973683357,  0.0047529041767120, -0.2147420048713684 ]
  - [  -0.0244530793279409,  0.0045855771750212, -0.2145305126905441 ]
  - [  -0.0244977399706841,  0.0045470520853996, -0.2145158350467682 ]
  - [  -0.0244557261466980,  0.0045722778886557, -0.2145326882600784 ]
  - [   0.0106922285631299,  0.0094363959506154,  0.1627792865037918 ]
  - [   0.0105616860091686,  0.0091505441814661,  0.1623386442661285 ]
  - [   0.0127688860520720,  0.0092981420457363,  0.1624825596809387 ]
  - [   0.0127682490274310,  0.0092766433954239,  0.1624726057052612 ]
  - [   0.0048384224064648, -0.0005037989467382,  0.0187637098133564 ]
  - [   0.0045924717560410, -0.0002111829817295,  0.0186557769775391 ]
  - [   0.0047468519769609, -0.0002134167589247,  0.0189492926001549 ]
  - [   0.0050303824245930, -0.0005814405158162,  0.0187273509800434 ]
  - [   0.0280158277601004, -0.0346139073371887,  0.0575372874736786 ]
  - [   0.0280652530491352, -0.0347558259963989,  0.0574868321418762 ]
  - [   0.0277105122804642, -0.0348851867020130,  0.0575195178389549 ]
  - [   0.0281381420791149, -0.0347743853926659,  0.0574847720563412 ]
  - [  -0.0124282911419868, -0.0142740048468113, -0.0096847601234913 ]
  - [  -0.0124551318585873, -0.0142803341150284, -0.0095914769917727 ]
  - [  -0.0130246691405773, -0.0133185610175133, -0.0107384193688631 ]
  - [  -0.0124757774174213, -0.0142910070717335, -0.0095855146646500 ]
  - [   0.0079947896301746,  0.0090344334021211,  0.0348059348762035 ]
  - [   0.0088654402643442,  0.0082809310406446,  0.0361980050802231 ]
  - [   0.0088482741266489,  0.0082650836557150,  0.0360588133335114 ]
  - [   0.0087689300999045,  0.0082131940871477,  0.0361133702099323 ]
  - [  -0.0007918983465061, -0.0010995330521837,  0.0787906572222710 ]
  - [  -0.0010752044618130, -0.0010277559049428,  0.0785870701074600 ]
  - [  -0.0009796260856092, -0.0008918326348066,  0.0786109790205956 ]
  - [  -0.0010893405415118, -0.0010020947083831,  0.0785785987973213 ]
  - [   0.0078094657510519,  0.0109857711941004, -0.0601859241724014 ]
  - [   0.0077768675982952,  0.0109823700040579, -0.0604059547185898 ]
  - [   0.0079000685364008,  0.0110025145113468, -0.0602658316493034 ]
  - [   0.0078801568597555,  0.0109832752496004, -0.0602388158440590 ]
  - [   0.0060878843069077,  0.0148632302880287, -0.0808629766106606 ]
  - [   0.0082890167832375,  0.0125756263732910, -0.0825695395469666 ]
  - [   0.0084850043058395,  0.0124626979231834, -0.0825248956680298 ]
  - [   0.0084974020719528,  0.0124634131789207, -0.0825669914484024 ]
  - [   0.0357289351522923,  0.0286669135093689, -0.0281190052628517 ]
  - [   0.0356793738901615,  0.0287451185286045, -0.0280108470469713 ]
  - [   0.0354185812175274,  0.0287967883050442, -0.0281934477388859 ]
  - [   0.0356973931193352,  0.0288378875702620, -0.0278628673404455 ]
  - [   0.0034485794603825,  0.0021968390792608,  0.1648119688034058 ]
  - [   0.0033909175544977,  0.0024032592773438,  0.1645929515361786 ]
  - [   0.0036023762077093,  0.0023602079600096,  0.1643656194210052 ]
  - [   0.0033981595188379,  0.0023934207856655,  0.1644988954067230 ]
  - [  -0.0032554958015680, -0.0196479540318251,  0.2176898717880249 ]
  - [  -0.0031261797994375, -0.0196749214082956,  0.2178105115890503 ]
  - [  -0.0055151507258415, -0.0220910403877497,  0.2200088798999786 ]
  - [  -0.0032774955034256, -0.0198374949395657,  0.2177551388740540 ]
  - [  -0.0084038693457842, -0.0078186057507992, -0.0235384702682495 ]
  - [  -0.0083083696663380, -0.0077718552201986, -0.0234608352184296 ]
  - [  -0.0088251531124115, -0.0075455009937286, -0.0237258970737457 ]
  - [  -0.0087606944143772, -0.0075258128345013, -0.0233789086341858 ]
  - [   0.0312240626662970, -0.0198719203472137, -0.1846111416816711 ]
  - [   0.0311481840908527, -0.0200243759900331, -0.1846825033426285 ]
  - [   0.0297816954553127, -0.0206875763833523, -0.1857578456401825 ]
  - [   0.0312150567770004, -0.0200459063053131, -0.1843484938144684 ]
  - [  -0.0200935378670692,  0.0294806752353907, -0.1816307008266449 ]
  - [  -0.0185963064432144,  0.0302155669778585, -0.1831890493631363 ]
  - [  -0.0185483619570732,  0.0303389616310596, -0.1829924136400223 ]
  - [  -0.0186077393591404,  0.0302098765969276, -0.1829036474227905 ]
  - [  -0.0199549347162247,  0.0018498729914427,  0.2231313884258270 ]
  - [  -0.0185290277004242,  0.0031016469001770,  0.2248772978782654 ]
  - [  -0.0184380672872066,  0.0031016431748867,  0.2248106896877289 ]
  - [  -0.0183336399495602,  0.0029641594737768,  0.2247343957424164 ]
- atom:    1
  displacement:
    [  -0.0000349171489499,  0.0099999390394497,  0.0000000000000000 ]
  forces:
  - [  -0.0006026211194694, -0.0141967330127954,  0.0170442909002304 ]
  - [  -0.0012565418146551,  0.0011801635846496,  0.0180047564208508 ]
  - [  -0.0012607192620635,  0.0009039235301316,  0.0180093608796597 ]
  - [  -0.0012271162122488,  0.0012321042595431,  0.0179951190948486 ]
  - [  -0.0152705255895853, -0.0147005002945662, -0.0329525955021381 ]
  - [  -0.0152200143784285, -0.0146981878206134, -0.0329789705574512 ]
  - [  -0.0161351729184389, -0.0139749366790056, -0.0317007862031460 ]