# Thermal properties / unit cell (natom)

unit:
  temperature:   K
  free_energy:   kJ/mol
  entropy:       J/K/mol
  heat_capacity: J/K/mol

natom: 20   
cutoff_frequency: 0.00000
num_modes: 153600
num_integrated_modes: 153475

zero_point_energy:      64.1260600

thermal_properties:
- temperature:         0.0000000
  free_energy:        64.1260600
  entropy:             0.0000000
  heat_capacity:       0.0000000
  energy:             64.1260600

- temperature:        10.0000000
  free_energy:        64.1128281
  entropy:             4.0186937
  heat_capacity:       9.6366656
  energy:             64.1530150

- temperature:        20.0000000
  free_energy:        63.9971718
  entropy:            21.6136362
  heat_capacity:      48.7521243
  energy:             64.4294445

- temperature:        30.0000000
  free_energy:        63.6458880
  entropy:            49.6295155
  heat_capacity:      91.1976775
  energy:             65.1347734

- temperature:        40.0000000
  free_energy:        62.9944577
  entropy:            80.8554252
  heat_capacity:     126.5969431
  energy:             66.2286747

- temperature:        50.0000000
  free_energy:        62.0274836
  entropy:           112.5346385
  heat_capacity:     158.1772112
  energy:             67.6542155

- temperature:        60.0000000
  free_energy:        60.7442839
  entropy:           144.0703738
  heat_capacity:     188.5618000
  energy:             69.3885064

- temperature:        70.0000000
  free_energy:        59.1468588
  entropy:           175.3702102
  heat_capacity:     218.1143978
  energy:             71.4227735

- temperature:        80.0000000
  free_energy:        57.2379352
  entropy:           206.3515764
  heat_capacity:     246.2483022
  energy:             73.7460613

- temperature:        90.0000000
  free_energy:        55.0213223
  entropy:           236.8840713
  heat_capacity:     272.3366892
  energy:             76.3408888

- temperature:       100.0000000
  free_energy:        52.5022282
  entropy:           266.8249497
  heat_capacity:     296.0125688
  energy:             79.1847231

- temperature:       110.0000000
  free_energy:        49.6872124
  entropy:           296.0502192
  heat_capacity:     317.1734634
  energy:             82.2527365

- temperature:       120.0000000
  free_energy:        46.5839195
  entropy:           324.4679140
  heat_capacity:     335.9007115
  energy:             85.5200692

- temperature:       130.0000000
  free_energy:        43.2007452
  entropy:           352.0192565
  heat_capacity:     352.3786915
  energy:             88.9632485

- temperature:       140.0000000
  free_energy:        39.5465249
  entropy:           378.6741693
  heat_capacity:     366.8366014
  energy:             92.5609086

- temperature:       150.0000000
  free_energy:        35.6302769
  entropy:           404.4250992
  heat_capacity:     379.5124736
  energy:             96.2940418

- temperature:       160.0000000
  free_energy:        31.4610074
  entropy:           429.2810614
  heat_capacity:     390.6333899
  energy:            100.1459773

- temperature:       170.0000000
  free_energy:        27.0475712
  entropy:           453.2626290
  heat_capacity:     400.4060557
  energy:            104.1022181

- temperature:       180.0000000
  free_energy:        22.3985760
  entropy:           476.3980047
  heat_capacity:     409.0134699
  energy:            108.1502169

- temperature:       190.0000000
  free_energy:        17.5223224
  entropy:           498.7200757
  heat_capacity:     416.6149258
  energy:            112.2791368

- temperature:       200.0000000
  free_energy:        12.4267675
  entropy:           520.2642717
  heat_capacity:     423.3476682
  energy:            116.4796219

- temperature:       210.0000000
  free_energy:         7.1195083
  entropy:           541.0670467
  heat_capacity:     429.3292432
  energy:            120.7435881

- temperature:       220.0000000
  free_energy:         1.6077765
  entropy:           561.1648297
  heat_capacity:     434.6600146
  energy:            125.0640390

- temperature:       230.0000000
  free_energy:        -4.1015574
  entropy:           580.5933183
  heat_capacity:     439.4255763
  energy:            129.4349058

- temperature:       240.0000000
  free_energy:       -10.0019741
  entropy:           599.3870215
  heat_capacity:     443.6989396
  energy:            133.8509111

- temperature:       250.0000000
  free_energy:       -16.0872922
  entropy:           617.5789798
  heat_capacity:     447.5424514
  energy:            138.3074527

- temperature:       260.0000000
  free_energy:       -22.3516528
  entropy:           635.2006103
  heat_capacity:     451.0094458
  energy:            142.8005059

- temperature:       270.0000000
  free_energy:       -28.7895026
  entropy:           652.2816382
  heat_capacity:     454.1456469
  energy:            147.3265397

- temperature:       280.0000000
  free_energy:       -35.3955772
  entropy:           668.8500890
  heat_capacity:     456.9903523
  energy:            151.8824478

- temperature:       290.0000000
  free_energy:       -42.1648838
  entropy:           684.9323184
  heat_capacity:     459.5774269
  energy:            156.4654885

- temperature:       300.0000000
  free_energy:       -49.0926854
  entropy:           700.5530698
  heat_capacity:     461.9361362
  energy:            161.0732355

- temperature:       310.0000000
  free_energy:       -56.1744845
  entropy:           715.7355464
  heat_capacity:     464.0918432
  energy:            165.7035349

- temperature:       320.0000000
  free_energy:       -63.4060081
  entropy:           730.5014924
  heat_capacity:     466.0665922
  energy:            170.3544695

- temperature:       330.0000000
  free_energy:       -70.7831939
  entropy:           744.8712782
  heat_capacity:     467.8795986
  energy:            175.0243279

- temperature:       340.0000000
  free_energy:       -78.3021768
  entropy:           758.8639865
  heat_capacity:     469.5476594
  energy:            179.7115785

- temperature:       350.0000000
  free_energy:       -85.9592764
  entropy:           772.4974962
  heat_capacity:     471.0854989
  energy:            184.4148472

- temperature:       360.0000000
  free_energy:       -93.7509854
  entropy:           785.7885644
  heat_capacity:     472.5060598
  energy:            189.1328978

- temperature:       370.0000000
  free_energy:      -101.6739587
  entropy:           798.7529038
  heat_capacity:     473.8207497
  energy:            193.8646157

- temperature:       380.0000000
  free_energy:      -109.7250036
  entropy:           811.4052559
  heat_capacity:     475.0396493
  energy:            198.6089936

- temperature:       390.0000000
  free_energy:      -117.9010701
  entropy:           823.7594599
  heat_capacity:     476.1716895
  energy:            203.3651192

- temperature:       400.0000000
  free_energy:      -126.1992424
  entropy:           835.8285170
  heat_capacity:     477.2248020
  energy:            208.1321644

- temperature:       410.0000000
  free_energy:      -134.6167308
  entropy:           847.6246502
  heat_capacity:     478.2060484
  energy:            212.9093758

- temperature:       420.0000000
  free_energy:      -143.1508641
  entropy:           859.1593594
  heat_capacity:     479.1217296
  energy:            217.6960669

- temperature:       430.0000000
  free_energy:      -151.7990827
  entropy:           870.4434731
  heat_capacity:     479.9774813
  energy:            222.4916107

- temperature:       440.0000000
  free_energy:      -160.5589323
  entropy:           881.4871953
  heat_capacity:     480.7783545
  energy:            227.2954336

- temperature:       450.0000000
  free_energy:      -169.4280575
  entropy:           892.3001500
  heat_capacity:     481.5288863
  energy:            232.1070100

- temperature:       460.0000000
  free_energy:      -178.4041964
  entropy:           902.8914209
  heat_capacity:     482.2331600
  energy:            236.9258572

- temperature:       470.0000000
  free_energy:      -187.4851756
  entropy:           913.2695893
  heat_capacity:     482.8948582
  energy:            241.7515313

- temperature:       480.0000000
  free_energy:      -196.6689050
  entropy:           923.4427678
  heat_capacity:     483.5173084
  energy:            246.5836236

- temperature:       490.0000000
  free_energy:      -205.9533733
  entropy:           933.4186328
  heat_capacity:     484.1035226
  energy:            251.4217567

- temperature:       500.0000000
  free_energy:      -215.3366442
  entropy:           943.2044531
  heat_capacity:     484.6562326
  energy:            256.2655824

- temperature:       510.0000000
  free_energy:      -224.8168519
  entropy:           952.8071175
  heat_capacity:     485.1779198
  energy:            261.1147780

- temperature:       520.0000000
  free_energy:      -234.3921978
  entropy:           962.2331591
  heat_capacity:     485.6708423
  energy:            265.9690449

- temperature:       530.0000000
  free_energy:      -244.0609470
  entropy:           971.4887790
  heat_capacity:     486.1370584
  energy:            270.8281059

- temperature:       540.0000000
  free_energy:      -253.8214250
  entropy:           980.5798673
  heat_capacity:     486.5784471
  energy:            275.6917033

- temperature:       550.0000000
  free_energy:      -263.6720146
  entropy:           989.5120226
  heat_capacity:     486.9967263
  energy:            280.5595978

- temperature:       560.0000000
  free_energy:      -273.6111535
  entropy:           998.2905706
  heat_capacity:     487.3934692
  energy:            285.4315661

- temperature:       570.0000000
  free_energy:      -283.6373309
  entropy:          1006.9205810
  heat_capacity:     487.7701182
  energy:            290.3074002

- temperature:       580.0000000
  free_energy:      -293.7490861
  entropy:          1015.4068827
  heat_capacity:     488.1279980
  energy:            295.1869059

- temperature:       590.0000000
  free_energy:      -303.9450049
  entropy:          1023.7540790
  heat_capacity:     488.4683267
  energy:            300.0699017

- temperature:       600.0000000
  free_energy:      -314.2237186
  entropy:          1031.9665605
  heat_capacity:     488.7922258
  energy:            304.9562177

- temperature:       610.0000000
  free_energy:      -324.5839011
  entropy:          1040.0485180
  heat_capacity:     489.1007292
  energy:            309.8456949

- temperature:       620.0000000
  free_energy:      -335.0242673
  entropy:          1048.0039539
  heat_capacity:     489.3947914
  energy:            314.7381841

- temperature:       630.0000000
  free_energy:      -345.5435712
  entropy:          1055.8366932
  heat_capacity:     489.6752942
  energy:            319.6335455

- temperature:       640.0000000
  free_energy:      -356.1406043
  entropy:          1063.5503936
  heat_capacity:     489.9430540
  energy:            324.5316476

- temperature:       650.0000000
  free_energy:      -366.8141940
  entropy:          1071.1485548
  heat_capacity:     490.1988265
  energy:            329.4323666

- temperature:       660.0000000
  free_energy:      -377.5632015
  entropy:          1078.6345272
  heat_capacity:     490.4433130
  energy:            334.3355865

- temperature:       670.0000000
  free_energy:      -388.3865212
  entropy:          1086.0115205
  heat_capacity:     490.6771643
  energy:            339.2411975

- temperature:       680.0000000
  free_energy:      -399.2830789
  entropy:          1093.2826106
  heat_capacity:     490.9009851
  energy:            344.1490963

- temperature:       690.0000000
  free_energy:      -410.2518303
  entropy:          1100.4507477
  heat_capacity:     491.1153381
  energy:            349.0591856

- temperature:       700.0000000
  free_energy:      -421.2917601
  entropy:          1107.5187620
  heat_capacity:     491.3207474
  energy:            353.9713733

- temperature:       710.0000000
  free_energy:      -432.4018809
  entropy:          1114.4893708
  heat_capacity:     491.5177012
  energy:            358.8855724

- temperature:       720.0000000
  free_energy:      -443.5812316
  entropy:          1121.3651836
  heat_capacity:     491.7066553
  energy:            363.8017006

- temperature:       730.0000000
  free_energy:      -454.8288769
  entropy:          1128.1487084
  heat_capacity:     491.8880351
  energy:            368.7196802

- temperature:       740.0000000
  free_energy:      -466.1439062
  entropy:          1134.8423562
  heat_capacity:     492.0622383
  energy:            373.6394374

- temperature:       750.0000000
  free_energy:      -477.5254322
  entropy:          1141.4484460
  heat_capacity:     492.2296371
  energy:            378.5609023

- temperature:       760.0000000
  free_energy:      -488.9725907
  entropy:          1147.9692096
  heat_capacity:     492.3905798
  energy:            383.4840086

- temperature:       770.0000000
  free_energy:      -500.4845391
  entropy:          1154.4067956
  heat_capacity:     492.5453927
  energy:            388.4086935

- temperature:       780.0000000
  free_energy:      -512.0604562
  entropy:          1160.7632735
  heat_capacity:     492.6943822
  energy:            393.3348971

- temperature:       790.0000000
  free_energy:      -523.6995409
  entropy:          1167.0406374
  heat_capacity:     492.8378354
  energy:            398.2625627

- temperature:       800.0000000
  free_energy:      -535.4010117
  entropy:          1173.2408099
  heat_capacity:     492.9760224
  energy:            403.1916362

- temperature:       810.0000000
  free_energy:      -547.1641060
  entropy:          1179.3656449
  heat_capacity:     493.1091969
  energy:            408.1220664

- temperature:       820.0000000
  free_energy:      -558.9880794
  entropy:          1185.4169313
  heat_capacity:     493.2375974
  energy:            413.0538043

- temperature:       830.0000000
  free_energy:      -570.8722052
  entropy:          1191.3963957
  heat_capacity:     493.3614488
  energy:            417.9868032

- temperature:       840.0000000
  free_energy:      -582.8157735
  entropy:          1197.3057051
  heat_capacity:     493.4809626
  energy:            422.9210188

- temperature:       850.0000000
  free_energy:      -594.8180908
  entropy:          1203.1464700
  heat_capacity:     493.5963385
  energy:            427.8564087

- temperature:       860.0000000
  free_energy:      -606.8784796
  entropy:          1208.9202465
  heat_capacity:     493.7077646
  energy:            432.7929324

- temperature:       870.0000000
  free_energy:      -618.9962775
  entropy:          1214.6285389
  heat_capacity:     493.8154186
  energy:            437.7305514

- temperature:       880.0000000
  free_energy:      -631.1708370
  entropy:          1220.2728019
  heat_capacity:     493.9194684
  energy:            442.6692288

- temperature:       890.0000000
  free_energy:      -643.4015248
  entropy:          1225.8544428
  heat_capacity:     494.0200726
  energy:            447.6089293

- temperature:       900.0000000
  free_energy:      -655.6877216
  entropy:          1231.3748232
  heat_capacity:     494.1173813
  energy:            452.5496192

- temperature:       910.0000000
  free_energy:      -668.0288215
  entropy:          1236.8352614
  heat_capacity:     494.2115363
  energy:            457.4912664

- temperature:       920.0000000
  free_energy:      -680.4242313
  entropy:          1242.2370339
  heat_capacity:     494.3026722
  energy:            462.4338399

- temperature:       930.0000000
  free_energy:      -692.8733707
  entropy:          1247.5813773
  heat_capacity:     494.3909162
  energy:            467.3773102

- temperature:       940.0000000
  free_energy:      -705.3756714
  entropy:          1252.8694898
  heat_capacity:     494.4763892
  energy:            472.3216490

- temperature:       950.0000000
  free_energy:      -717.9305769
  entropy:          1258.1025327
  heat_capacity:     494.5592057
  energy:            477.2668291

- temperature:       960.0000000
  free_energy:      -730.5375423
  entropy:          1263.2816321
  heat_capacity:     494.6394742
  energy:            482.2128246

- temperature:       970.0000000
  free_energy:      -743.1960334
  entropy:          1268.4078803
  heat_capacity:     494.7172981
  energy:            487.1596105

- temperature:       980.0000000
  free_energy:      -755.9055272
  entropy:          1273.4823367
  heat_capacity:     494.7927753
  energy:            492.1071627

- temperature:       990.0000000
  free_energy:      -768.6655109
  entropy:          1278.5060297
  heat_capacity:     494.8659990
  energy:            497.0554584

- temperature:      1000.0000000
  free_energy:      -781.4754819
  entropy:          1283.4799574
  heat_capacity:     494.9370579
  energy:            502.0044755
