phonopy:
  version: "2.37.1"
  frequency_unit_conversion_factor: 15.633302
  symmetry_tolerance: 1.00000e-05

space_group:
  type: "Imm2"
  number: 44
  Hall_symbol: "I 2 -2"

primitive_matrix:
- [  1.000000000000000,  0.000000000000000,  0.000000000000000 ]
- [  1.000000000000000, -1.000000000000000,  0.000000000000000 ]
- [  1.000000000000000,  0.000000000000000, -1.000000000000000 ]

supercell_matrix:
- [   3,   0,   0 ]
- [   0,   3,   0 ]
- [   0,   0,   3 ]

primitive_cell:
  lattice:
  - [     2.295722443830862,     2.317371583982221,     3.306957801329589 ] # a
  - [     0.063618828334945,    -4.644617638840469,     0.000000000000000 ] # b
  - [     2.285711866741925,     2.327246054858247,    -3.306957801329589 ] # c
  points:
  - symbol: Li # 1
    coordinates: [  0.164161917694461,  0.916785235642560,  0.247376666586459 ]
    mass: 6.940000
  - symbol: Li # 2
    coordinates: [  0.669408602813732,  0.916785266584165,  0.752623356660000 ]
    mass: 6.940000
  - symbol: Li # 3
    coordinates: [  0.916148682675716,  0.416148686760649,  0.499999994603690 ]
    mass: 6.940000
  - symbol: Sn # 4
    coordinates: [  0.416950797059663,  0.416950810402605,  0.999999981035266 ]
    mass: 118.710000
  reciprocal_lattice: # without 2pi
  - [     0.215282790120060,     0.002948797927645,     0.150874923842638 ] # a*
  - [     0.215282790120060,    -0.212354178067092,    -0.000642885450706 ] # b*
  - [     0.215282790120060,     0.002948797927645,    -0.151517806901595 ] # c*

unit_cell:
  lattice:
  - [     4.645053138907732,     0.000000000000000,     0.000000000000000 ] # a
  - [    -0.063618828334944,     4.644617638840469,     0.000000000000000 ] # b
  - [    -2.285711866741925,    -2.327246054858247,     3.306957801329589 ] # c
  points:
  - symbol: Li # 1
    coordinates: [  0.164161917694461,  0.247376682051900,  0.916785251108002 ]
    mass: 6.940000
    reduced_to: 1
  - symbol: Li # 2
    coordinates: [  0.669408602813732,  0.752623336229567,  0.916785246153732 ]
    mass: 6.940000
    reduced_to: 2
  - symbol: Li # 3
    coordinates: [  0.916148682675716,  0.499999995915067,  0.416148688072027 ]
    mass: 6.940000
    reduced_to: 3
  - symbol: Sn # 4
    coordinates: [  0.416950797059663,  0.999999986657058,  0.416950816024397 ]
    mass: 118.710000
    reduced_to: 4

supercell:
  lattice:
  - [    13.935159416723197,     0.000000000000000,     0.000000000000000 ] # a
  - [    -0.190856485004833,    13.933852916521406,     0.000000000000000 ] # b
  - [    -6.857135600225774,    -6.981738164574740,     9.920873403988766 ] # c
  points:
  - symbol: Li # 1
    coordinates: [  0.054720639231487,  0.082458894017300,  0.305595083702667 ]
    mass: 6.940000
    reduced_to: 1
  - symbol: Li # 2
    coordinates: [  0.388053972564820,  0.082458894017300,  0.305595083702667 ]
    mass: 6.940000
    reduced_to: 1
  - symbol: Li # 3
    coordinates: [  0.721387305898153,  0.082458894017300,  0.305595083702667 ]
    mass: 6.940000
    reduced_to: 1
  - symbol: Li # 4
    coordinates: [  0.054720639231487,  0.415792227350633,  0.305595083702667 ]
    mass: 6.940000
    reduced_to: 1
  - symbol: Li # 5
    coordinates: [  0.388053972564820,  0.415792227350633,  0.305595083702667 ]
    mass: 6.940000
    reduced_to: 1
  - symbol: Li # 6
    coordinates: [  0.721387305898153,  0.415792227350633,  0.305595083702667 ]
    mass: 6.940000
    reduced_to: 1
  - symbol: Li # 7
    coordinates: [  0.054720639231487,  0.749125560683967,  0.305595083702667 ]
    mass: 6.940000
    reduced_to: 1
  - symbol: Li # 8
    coordinates: [  0.388053972564820,  0.749125560683967,  0.305595083702667 ]
    mass: 6.940000
    reduced_to: 1
  - symbol: Li # 9
    coordinates: [  0.721387305898153,  0.749125560683967,  0.305595083702667 ]
    mass: 6.940000
    reduced_to: 1
  - symbol: Li # 10
    coordinates: [  0.054720639231487,  0.082458894017300,  0.638928417036001 ]
    mass: 6.940000
    reduced_to: 1
  - symbol: Li # 11
    coordinates: [  0.388053972564820,  0.082458894017300,  0.638928417036001 ]
    mass: 6.940000
    reduced_to: 1
  - symbol: Li # 12
    coordinates: [  0.721387305898153,  0.082458894017300,  0.638928417036001 ]
    mass: 6.940000
    reduced_to: 1
  - symbol: Li # 13
    coordinates: [  0.054720639231487,  0.415792227350633,  0.638928417036001 ]
    mass: 6.940000
    reduced_to: 1
  - symbol: Li # 14
    coordinates: [  0.388053972564820,  0.415792227350633,  0.638928417036001 ]
    mass: 6.940000
    reduced_to: 1
  - symbol: Li # 15
    coordinates: [  0.721387305898153,  0.415792227350633,  0.638928417036001 ]
    mass: 6.940000
    reduced_to: 1
  - symbol: Li # 16
    coordinates: [  0.054720639231487,  0.749125560683967,  0.638928417036001 ]
    mass: 6.940000
    reduced_to: 1
  - symbol: Li # 17
    coordinates: [  0.388053972564820,  0.749125560683967,  0.638928417036001 ]
    mass: 6.940000
    reduced_to: 1
  - symbol: Li # 18
    coordinates: [  0.721387305898153,  0.749125560683967,  0.638928417036001 ]
    mass: 6.940000
    reduced_to: 1
  - symbol: Li # 19
    coordinates: [  0.054720639231487,  0.082458894017300,  0.972261750369334 ]
    mass: 6.940000
    reduced_to: 1
  - symbol: Li # 20
    coordinates: [  0.388053972564820,  0.082458894017300,  0.972261750369334 ]
    mass: 6.940000
    reduced_to: 1
  - symbol: Li # 21
    coordinates: [  0.721387305898153,  0.082458894017300,  0.972261750369334 ]
    mass: 6.940000
    reduced_to: 1
  - symbol: Li # 22
    coordinates: [  0.054720639231487,  0.415792227350633,  0.972261750369334 ]
    mass: 6.940000
    reduced_to: 1
  - symbol: Li # 23
    coordinates: [  0.388053972564820,  0.415792227350633,  0.972261750369334 ]
    mass: 6.940000
    reduced_to: 1
  - symbol: Li # 24
    coordinates: [  0.721387305898153,  0.415792227350633,  0.972261750369334 ]
    mass: 6.940000
    reduced_to: 1
  - symbol: Li # 25
    coordinates: [  0.054720639231487,  0.749125560683967,  0.972261750369334 ]
    mass: 6.940000
    reduced_to: 1
  - symbol: Li # 26
    coordinates: [  0.388053972564820,  0.749125560683967,  0.972261750369334 ]
    mass: 6.940000
    reduced_to: 1
  - symbol: Li # 27
    coordinates: [  0.721387305898153,  0.749125560683967,  0.972261750369334 ]
    mass: 6.940000
    reduced_to: 1
  - symbol: Li # 28
    coordinates: [  0.223136200937911,  0.250874445409856,  0.305595082051244 ]
    mass: 6.940000
    reduced_to: 28
  - symbol: Li # 29
    coordinates: [  0.556469534271244,  0.250874445409856,  0.305595082051244 ]
    mass: 6.940000
    reduced_to: 28
  - symbol: Li # 30
    coordinates: [  0.889802867604577,  0.250874445409856,  0.305595082051244 ]
    mass: 6.940000
    reduced_to: 28
  - symbol: Li # 31
    coordinates: [  0.223136200937911,  0.584207778743189,  0.305595082051244 ]
    mass: 6.940000
    reduced_to: 28
  - symbol: Li # 32
    coordinates: [  0.556469534271244,  0.584207778743189,  0.305595082051244 ]
    mass: 6.940000
    reduced_to: 28
  - symbol: Li # 33
    coordinates: [  0.889802867604577,  0.584207778743189,  0.305595082051244 ]
    mass: 6.940000
    reduced_to: 28
  - symbol: Li # 34
    coordinates: [  0.223136200937911,  0.917541112076522,  0.305595082051244 ]
    mass: 6.940000
    reduced_to: 28
  - symbol: Li # 35
    coordinates: [  0.556469534271244,  0.917541112076522,  0.305595082051244 ]
    mass: 6.940000
    reduced_to: 28
  - symbol: Li # 36
    coordinates: [  0.889802867604577,  0.917541112076522,  0.305595082051244 ]
    mass: 6.940000
    reduced_to: 28
  - symbol: Li # 37
    coordinates: [  0.223136200937911,  0.250874445409856,  0.638928415384577 ]
    mass: 6.940000
    reduced_to: 28
  - symbol: Li # 38
    coordinates: [  0.556469534271244,  0.250874445409856,  0.638928415384577 ]
    mass: 6.940000
    reduced_to: 28
  - symbol: Li # 39
    coordinates: [  0.889802867604577,  0.250874445409856,  0.638928415384577 ]
    mass: 6.940000
    reduced_to: 28
  - symbol: Li # 40
    coordinates: [  0.223136200937911,  0.584207778743189,  0.638928415384577 ]
    mass: 6.940000
    reduced_to: 28
  - symbol: Li # 41
    coordinates: [  0.556469534271244,  0.584207778743189,  0.638928415384577 ]
    mass: 6.940000
    reduced_to: 28
  - symbol: Li # 42
    coordinates: [  0.889802867604577,  0.584207778743189,  0.638928415384577 ]
    mass: 6.940000
    reduced_to: 28
  - symbol: Li # 43
    coordinates: [  0.223136200937911,  0.917541112076522,  0.638928415384577 ]
    mass: 6.940000
    reduced_to: 28
  - symbol: Li # 44
    coordinates: [  0.556469534271244,  0.917541112076522,  0.638928415384577 ]
    mass: 6.940000
    reduced_to: 28
  - symbol: Li # 45
    coordinates: [  0.889802867604577,  0.917541112076522,  0.638928415384577 ]
    mass: 6.940000
    reduced_to: 28
  - symbol: Li # 46
    coordinates: [  0.223136200937911,  0.250874445409856,  0.972261748717910 ]
    mass: 6.940000
    reduced_to: 28
  - symbol: Li # 47
    coordinates: [  0.556469534271244,  0.250874445409856,  0.972261748717910 ]
    mass: 6.940000
    reduced_to: 28
  - symbol: Li # 48
    coordinates: [  0.889802867604577,  0.250874445409856,  0.972261748717910 ]
    mass: 6.940000
    reduced_to: 28
  - symbol: Li # 49
    coordinates: [  0.223136200937911,  0.584207778743189,  0.972261748717910 ]
    mass: 6.940000
    reduced_to: 28
  - symbol: Li # 50
    coordinates: [  0.556469534271244,  0.584207778743189,  0.972261748717910 ]
    mass: 6.940000
    reduced_to: 28
  - symbol: Li # 51
    coordinates: [  0.889802867604577,  0.584207778743189,  0.972261748717910 ]
    mass: 6.940000
    reduced_to: 28
  - symbol: Li # 52
    coordinates: [  0.223136200937911,  0.917541112076522,  0.972261748717910 ]
    mass: 6.940000
    reduced_to: 28
  - symbol: Li # 53
    coordinates: [  0.556469534271244,  0.917541112076522,  0.972261748717910 ]
    mass: 6.940000
    reduced_to: 28
  - symbol: Li # 54
    coordinates: [  0.889802867604577,  0.917541112076522,  0.972261748717910 ]
    mass: 6.940000
    reduced_to: 28
  - symbol: Li # 55
    coordinates: [  0.305382894225239,  0.166666665305022,  0.138716229357342 ]
    mass: 6.940000
    reduced_to: 55
  - symbol: Li # 56
    coordinates: [  0.638716227558572,  0.166666665305022,  0.138716229357342 ]
    mass: 6.940000
    reduced_to: 55
  - symbol: Li # 57
    coordinates: [  0.972049560891906,  0.166666665305022,  0.138716229357342 ]
    mass: 6.940000
    reduced_to: 55
  - symbol: Li # 58
    coordinates: [  0.305382894225239,  0.499999998638356,  0.138716229357342 ]
    mass: 6.940000
    reduced_to: 55
  - symbol: Li # 59
    coordinates: [  0.638716227558572,  0.499999998638356,  0.138716229357342 ]
    mass: 6.940000
    reduced_to: 55
  - symbol: Li # 60
    coordinates: [  0.972049560891906,  0.499999998638356,  0.138716229357342 ]
    mass: 6.940000
    reduced_to: 55
  - symbol: Li # 61
    coordinates: [  0.305382894225239,  0.833333331971689,  0.138716229357342 ]
    mass: 6.940000
    reduced_to: 55
  - symbol: Li # 62
    coordinates: [  0.638716227558572,  0.833333331971689,  0.138716229357342 ]
    mass: 6.940000
    reduced_to: 55
  - symbol: Li # 63
    coordinates: [  0.972049560891906,  0.833333331971689,  0.138716229357342 ]
    mass: 6.940000
    reduced_to: 55
  - symbol: Li # 64
    coordinates: [  0.305382894225239,  0.166666665305022,  0.472049562690676 ]
    mass: 6.940000
    reduced_to: 55
  - symbol: Li # 65
    coordinates: [  0.638716227558572,  0.166666665305022,  0.472049562690676 ]
    mass: 6.940000
    reduced_to: 55
  - symbol: Li # 66
    coordinates: [  0.972049560891906,  0.166666665305022,  0.472049562690676 ]
    mass: 6.940000
    reduced_to: 55
  - symbol: Li # 67
    coordinates: [  0.305382894225239,  0.499999998638356,  0.472049562690676 ]
    mass: 6.940000
    reduced_to: 55
  - symbol: Li # 68
    coordinates: [  0.638716227558572,  0.499999998638356,  0.472049562690676 ]
    mass: 6.940000
    reduced_to: 55
  - symbol: Li # 69
    coordinates: [  0.972049560891906,  0.499999998638356,  0.472049562690676 ]
    mass: 6.940000
    reduced_to: 55
  - symbol: Li # 70
    coordinates: [  0.305382894225239,  0.833333331971689,  0.472049562690676 ]
    mass: 6.940000
    reduced_to: 55
  - symbol: Li # 71
    coordinates: [  0.638716227558572,  0.833333331971689,  0.472049562690676 ]
    mass: 6.940000
    reduced_to: 55
  - symbol: Li # 72
    coordinates: [  0.972049560891906,  0.833333331971689,  0.472049562690676 ]
    mass: 6.940000
    reduced_to: 55
  - symbol: Li # 73
    coordinates: [  0.305382894225239,  0.166666665305022,  0.805382896024009 ]
    mass: 6.940000
    reduced_to: 55
  - symbol: Li # 74
    coordinates: [  0.638716227558572,  0.166666665305022,  0.805382896024009 ]
    mass: 6.940000
    reduced_to: 55
  - symbol: Li # 75
    coordinates: [  0.972049560891906,  0.166666665305022,  0.805382896024009 ]
    mass: 6.940000
    reduced_to: 55
  - symbol: Li # 76
    coordinates: [  0.305382894225239,  0.499999998638356,  0.805382896024009 ]
    mass: 6.940000
    reduced_to: 55
  - symbol: Li # 77
    coordinates: [  0.638716227558572,  0.499999998638356,  0.805382896024009 ]
    mass: 6.940000
    reduced_to: 55
  - symbol: Li # 78
    coordinates: [  0.972049560891906,  0.499999998638356,  0.805382896024009 ]
    mass: 6.940000
    reduced_to: 55
  - symbol: Li # 79
    coordinates: [  0.305382894225239,  0.833333331971689,  0.805382896024009 ]
    mass: 6.940000
    reduced_to: 55
  - symbol: Li # 80
    coordinates: [  0.638716227558572,  0.833333331971689,  0.805382896024009 ]
    mass: 6.940000
    reduced_to: 55
  - symbol: Li # 81
    coordinates: [  0.972049560891906,  0.833333331971689,  0.805382896024009 ]
    mass: 6.940000
    reduced_to: 55
  - symbol: Sn # 82
    coordinates: [  0.138983599019888,  0.333333328885686,  0.138983605341466 ]
    mass: 118.710000
    reduced_to: 82
  - symbol: Sn # 83
    coordinates: [  0.472316932353221,  0.333333328885686,  0.138983605341466 ]
    mass: 118.710000
    reduced_to: 82
  - symbol: Sn # 84
    coordinates: [  0.805650265686554,  0.333333328885686,  0.138983605341466 ]
    mass: 118.710000
    reduced_to: 82
  - symbol: Sn # 85
    coordinates: [  0.138983599019888,  0.666666662219019,  0.138983605341466 ]
    mass: 118.710000
    reduced_to: 82
  - symbol: Sn # 86
    coordinates: [  0.472316932353221,  0.666666662219019,  0.138983605341466 ]
    mass: 118.710000
    reduced_to: 82
  - symbol: Sn # 87
    coordinates: [  0.805650265686554,  0.666666662219019,  0.138983605341466 ]
    mass: 118.710000
    reduced_to: 82
  - symbol: Sn # 88
    coordinates: [  0.138983599019888,  0.999999995552353,  0.138983605341466 ]
    mass: 118.710000
    reduced_to: 82
  - symbol: Sn # 89
    coordinates: [  0.472316932353221,  0.999999995552353,  0.138983605341466 ]
    mass: 118.710000
    reduced_to: 82
  - symbol: Sn # 90
    coordinates: [  0.805650265686554,  0.999999995552353,  0.138983605341466 ]
    mass: 118.710000
    reduced_to: 82
  - symbol: Sn # 91
    coordinates: [  0.138983599019888,  0.333333328885686,  0.472316938674799 ]
    mass: 118.710000
    reduced_to: 82
  - symbol: Sn # 92
    coordinates: [  0.472316932353221,  0.333333328885686,  0.472316938674799 ]
    mass: 118.710000
    reduced_to: 82
  - symbol: Sn # 93
    coordinates: [  0.805650265686554,  0.333333328885686,  0.472316938674799 ]
    mass: 118.710000
    reduced_to: 82
  - symbol: Sn # 94
    coordinates: [  0.138983599019888,  0.666666662219019,  0.472316938674799 ]
    mass: 118.710000
    reduced_to: 82
  - symbol: Sn # 95
    coordinates: [  0.472316932353221,  0.666666662219019,  0.472316938674799 ]
    mass: 118.710000
    reduced_to: 82
  - symbol: Sn # 96
    coordinates: [  0.805650265686554,  0.666666662219019,  0.472316938674799 ]
    mass: 118.710000
    reduced_to: 82
  - symbol: Sn # 97
    coordinates: [  0.138983599019888,  0.999999995552353,  0.472316938674799 ]
    mass: 118.710000
    reduced_to: 82
  - symbol: Sn # 98
    coordinates: [  0.472316932353221,  0.999999995552353,  0.472316938674799 ]
    mass: 118.710000
    reduced_to: 82
  - symbol: Sn # 99
    coordinates: [  0.805650265686554,  0.999999995552353,  0.472316938674799 ]
    mass: 118.710000
    reduced_to: 82
  - symbol: Sn # 100
    coordinates: [  0.138983599019888,  0.333333328885686,  0.805650272008132 ]
    mass: 118.710000
    reduced_to: 82
  - symbol: Sn # 101
    coordinates: [  0.472316932353221,  0.333333328885686,  0.805650272008132 ]
    mass: 118.710000
    reduced_to: 82
  - symbol: Sn # 102
    coordinates: [  0.805650265686554,  0.333333328885686,  0.805650272008132 ]
    mass: 118.710000
    reduced_to: 82
  - symbol: Sn # 103
    coordinates: [  0.138983599019888,  0.666666662219019,  0.805650272008132 ]
    mass: 118.710000
    reduced_to: 82
  - symbol: Sn # 104
    coordinates: [  0.472316932353221,  0.666666662219019,  0.805650272008132 ]
    mass: 118.710000
    reduced_to: 82
  - symbol: Sn # 105
    coordinates: [  0.805650265686554,  0.666666662219019,  0.805650272008132 ]
    mass: 118.710000
    reduced_to: 82
  - symbol: Sn # 106
    coordinates: [  0.138983599019888,  0.999999995552353,  0.805650272008132 ]
    mass: 118.710000
    reduced_to: 82
  - symbol: Sn # 107
    coordinates: [  0.472316932353221,  0.999999995552353,  0.805650272008132 ]
    mass: 118.710000
    reduced_to: 82
  - symbol: Sn # 108
    coordinates: [  0.805650265686554,  0.999999995552353,  0.805650272008132 ]
    mass: 118.710000
    reduced_to: 82

displacements:
- atom:    1
  displacement:
    [   0.0100000000000000,  0.0000000000000000,  0.0000000000000000 ]
  forces:
  - [   0.0045839538797736,  0.0318851768970490, -0.0006309238960966 ]
  - [   0.0306903831660748,  0.0318992584943771, -0.0005574211245403 ]
  - [   0.0306928753852844,  0.0319041684269905, -0.0003022435121238 ]
  - [   0.0308010037988424,  0.0319062620401382, -0.0004243650473654 ]
  - [   0.0308364294469357,  0.0318753905594349, -0.0004218172980472 ]
  - [   0.0308487676084042,  0.0319176502525806, -0.0004177693626843 ]
  - [   0.0308002941310406,  0.0319076254963875, -0.0004132897593081 ]
  - [   0.0308480337262154,  0.0319185592234135, -0.0004190580802970 ]
  - [   0.0308370254933834,  0.0318765416741371, -0.0004219889524393 ]
  - [   0.0309642236679792,  0.0317900441586971, -0.0004548206925392 ]
  - [   0.0309608429670334,  0.0320301577448845, -0.0003913715481758 ]
  - [   0.0308630317449570,  0.0319071374833584, -0.0004216115921736 ]
  - [   0.0309337377548218,  0.0320120081305504, -0.0004638656973839 ]
  - [   0.0309366304427385,  0.0317878499627113, -0.0003999556647614 ]
  - [   0.0308542139828205,  0.0318964049220085, -0.0004215370863676 ]
  - [   0.0308749936521053,  0.0319040380418301, -0.0004124846309423 ]
  - [   0.0308669507503510,  0.0319116264581680, -0.0004491936415434 ]
  - [   0.0308607816696167,  0.0318945683538914, -0.0004223361611366 ]
  - [   0.0309466328471899,  0.0316069759428501, -0.0003292649053037 ]
  - [   0.0308523438870907,  0.0318931788206100, -0.0004241630667821 ]
  - [   0.0309498533606529,  0.0322664342820644, -0.0005661103641614 ]
  - [   0.0308642629534006,  0.0319018810987473, -0.0004197127418593 ]
  - [   0.0308638196438551,  0.0319048240780830, -0.0004275584360585 ]
  - [   0.0308670718222857,  0.0319098532199860, -0.0004519048379734 ]
  - [   0.0309440158307552,  0.0322289951145649, -0.0003074471605942 ]
  - [   0.0308494865894318,  0.0319101847708225, -0.0004349729279056 ]
  - [   0.0309368390589952,  0.0316137671470642, -0.0005325940437615 ]
  - [  -0.0308814514428377, -0.0307852961122990, -0.0003472507232800 ]
  - [  -0.0314410664141178, -0.0313136801123619, -0.0004217398527544 ]
  - [  -0.0309240631759167, -0.0317208208143711, -0.0004790127277374 ]
  - [  -0.0314758867025375, -0.0313153192400932, -0.0004156101495028 ]
  - [  -0.0314973443746567, -0.0312996059656143, -0.0004345846828073 ]
  - [  -0.0314732119441032, -0.0313094034790993, -0.0004296712577343 ]
  - [  -0.0309090092778206, -0.0317422710359097, -0.0003297347575426 ]
  - [  -0.0314397029578686, -0.0313094556331635, -0.0004274882376194 ]
  - [  -0.0306946896016598, -0.0305966436862946, -0.0004969928413630 ]
  - [  -0.0312400888651609, -0.0312978588044643, -0.0004173691850156 ]
  - [  -0.0315240323543549, -0.0313116163015366, -0.0004189581377432 ]
  - [  -0.0314981266856194, -0.0312947183847427, -0.0004473325097933 ]
  - [  -0.0316288098692894, -0.0312917642295361, -0.0004125017439947 ]
  - [  -0.0314735099673271, -0.0312829725444317, -0.0004165519494563 ]
  - [  -0.0314647778868675, -0.0313136950135231, -0.0004351452225819 ]
  - [  -0.0316539704799652, -0.0312943421304226, -0.0004353245021775 ]
  - [  -0.0314688310027122, -0.0313222408294678, -0.0004031348507851 ]
  - [  -0.0314671918749809, -0.0312989018857479, -0.0004324261099100 ]
  - [  -0.0314683206379414, -0.0313015170395374, -0.0004319772124290 ]
  - [  -0.0314647257328033, -0.0313181541860104, -0.0004183109849691 ]
  - [  -0.0315199494361877, -0.0313065536320210, -0.0004221070557833 ]
  - [  -0.0314650908112526, -0.0313164815306664, -0.0004345085471869 ]
  - [  -0.0314693264663219, -0.0312947779893875, -0.0004179757088423 ]
  - [  -0.0315207131206989, -0.0313128158450127, -0.0004253946244717 ]
  - [  -0.0325175598263741, -0.0313065499067307,  0.0002086926251650 ]
  - [  -0.0324743241071701, -0.0313116982579231, -0.0010097250342369 ]
  - [  -0.0314440727233887, -0.0313157774507999, -0.0003981050103903 ]
  - [   0.0024894182570279, -0.0026558060199022,  0.0034738779067993 ]
  - [   0.0025197179056704, -0.0024085871409625,  0.0036417916417122 ]
  - [   0.0022298181429505, -0.0025897293817252,  0.0035842992365360 ]
  - [   0.0025473695714027, -0.0025083115324378,  0.0035665258765221 ]
  - [   0.0025475288275629, -0.0025083345826715,  0.0035636164247990 ]
  - [   0.0025361413136125, -0.0025096696335822,  0.0035645402967930 ]
  - [   0.0025220697280020, -0.0024096532724798,  0.0034801401197910 ]
  - [   0.0024940001312643, -0.0026455319020897,  0.0036536231637001 ]
  - [   0.0021928809583187, -0.0025942083448172,  0.0035161711275578 ]
  - [   0.0061410721391439, -0.0025011901743710,  0.0063180327415466 ]
  - [   0.0025834287516773, -0.0025088717229664,  0.0035657496191561 ]
  - [   0.0061989207752049, -0.0025123243685812,  0.0007338813738897 ]
  - [   0.0026891906745732, -0.0023769349791110,  0.0035264908801764 ]
  - [   0.0025467327795923, -0.0025078412145376,  0.0035649915225804 ]
  - [   0.0026807165704668, -0.0026319213211536,  0.0035961852408946 ]
  - [   0.0026842635124922, -0.0026358144823462,  0.0035312874242663 ]
  - [   0.0025462885387242, -0.0025083567015827,  0.0035632578656077 ]
  - [   0.0026987092569470, -0.0023739817552269,  0.0036067808978260 ]
  - [   0.0025102458894253, -0.0025107190012932,  0.0035619193222374 ]
  - [   0.0025476515293121, -0.0025190189480782,  0.0035815970040858 ]
  - [   0.0025482438504696, -0.0024975836277008,  0.0035479913931340 ]
  - [   0.0025121010839939, -0.0025108531117439,  0.0035642152652144 ]
  - [   0.0025483109056950, -0.0024986346252263,  0.0035813755821437 ]
  - [   0.0025477185845375, -0.0025182052049786,  0.0035496926866472 ]
  - [   0.0024818181991577, -0.0025061035994440,  0.0035656664986163 ]
  - [   0.0026652328670025, -0.0025081424973905,  0.0032875994220376 ]
  - [   0.0026708915829659, -0.0025145872496068,  0.0038288747891784 ]
  - [  -0.0019048592075706,  0.0019074240699410, -0.0026622340083122 ]
  - [  -0.0019507762044668,  0.0019251797348261, -0.0027197394520044 ]
  - [  -0.0019136760383844,  0.0019336249679327, -0.0027675256133080 ]
  - [  -0.0019092243164778,  0.0019413912668824, -0.0026693902909756 ]
  - [  -0.0019546188414097,  0.0019118264317513, -0.0027127601206303 ]
  - [  -0.0019041411578655,  0.0019195396453142, -0.0027581732720137 ]
  - [   0.0068943724036217,  0.0020257104188204, -0.0086421519517899 ]
  - [  -0.0017610760405660,  0.0019098427146673, -0.0027118343859911 ]
  - [   0.0071092164143920,  0.0018626721575856,  0.0034085139632225 ]
  - [  -0.0014895768836141,  0.0018186578527093, -0.0027521103620529 ]
  - [  -0.0019814856350422,  0.0019589764997363, -0.0027548149228096 ]
  - [  -0.0019973730668426,  0.0018955627456307, -0.0026954319328070 ]
  - [  -0.0019494285807014,  0.0019063837826252, -0.0027224477380514 ]
  - [  -0.0019321627914906,  0.0019061211496592, -0.0027220956981182 ]
  - [  -0.0019534360617399,  0.0019043358042836, -0.0027090609073639 ]
  - [  -0.0015334971249104,  0.0016792863607407, -0.0025775767862797 ]
  - [  -0.0020043607801199,  0.0018686307594180, -0.0027667414397001 ]
  - [  -0.0019812090322375,  0.0019355844706297, -0.0027048718184233 ]
  - [  -0.0019214274361730,  0.0018924046307802, -0.0026807039976120 ]
  - [  -0.0019409300293773,  0.0019078589975834, -0.0027162376791239 ]
  - [  -0.0019174979534000,  0.0019113067537546, -0.0026997942477465 ]
  - [  -0.0019231045152992,  0.0018490310758352, -0.0027641821652651 ]
  - [  -0.0019015127327293,  0.0019627157598734, -0.0026314519345760 ]
  - [  -0.0019656822551042,  0.0019022766500711, -0.0027228854596615 ]
  - [  -0.0019141789525747,  0.0019782129675150, -0.0027702804654837 ]
  - [  -0.0019360277801752,  0.0018683727830648, -0.0026845186948776 ]
  - [  -0.0019713398069143,  0.0019123870879412, -0.0027195215225220 ]
- atom:    1
  displacement:
    [  -0.0100000000000000,  0.0000000000000000,  0.0000000000000000 ]
  forces:
  - [   0.0571792647242546,  0.0319091640412807,  0.0001442121574655 ]
  - [   0.0310623608529568,  0.0318988561630249, -0.0002785142278299 ]
  - [   0.0310648903250694,  0.0319092571735382, -0.0005420880042948 ]
  - [   0.0309566091746092,  0.0319069698452950, -0.0004208417376503 ]
  - [   0.0309204943478107,  0.0319368243217468, -0.0004222354618832 ]
  - [   0.0309034362435341,  0.0318791791796684, -0.0004186019068584 ]
  - [   0.0309558063745499,  0.0319056659936905, -0.0004315300611779 ]
  - [   0.0309028252959251,  0.0318807251751423, -0.0004169351595920 ]
  - [   0.0309210773557425,  0.0319374725222588, -0.0004219799884595 ]
  - [   0.0307939946651459,  0.0320239663124084, -0.0003886818885803 ]
  - [   0.0307968966662884,  0.0317837372422218, -0.0004518367350101 ]
  - [   0.0308943837881088,  0.0319063216447830, -0.0004206225275993 ]
  - [   0.0307871829718351,  0.0317950956523418, -0.0004005935043097 ]
  - [   0.0308055337518454,  0.0320210978388786, -0.0004502721130848 ]
  - [   0.0308826006948948,  0.0318963043391705, -0.0004222095012665 ]
  - [   0.0308678224682808,  0.0319035947322845, -0.0004381779581308 ]
  - [   0.0308601483702660,  0.0319102928042412, -0.0004211384803057 ]
  - [   0.0308759920299053,  0.0318974927067757, -0.0004215296357870 ]
  - [   0.0307765696197748,  0.0321909859776497, -0.0005318961339071 ]
  - [   0.0308838598430157,  0.0318961329758167, -0.0004205526784062 ]
  - [   0.0307858716696501,  0.0315163433551788, -0.0002736457390711 ]
  - [   0.0308572258800268,  0.0319045521318913, -0.0004473868757486 ]
  - [   0.0308791976422071,  0.0319031551480293, -0.0004268401535228 ]
  - [   0.0308602638542652,  0.0319122076034546, -0.0004213555948809 ]
  - [   0.0307973325252533,  0.0315858758985996, -0.0005416710628197 ]
  - [   0.0308779124170542,  0.0319133847951889, -0.0004376826109365 ]
  - [   0.0308059416711330,  0.0322008281946182, -0.0003157402388752 ]
  - [  -0.0320805199444294, -0.0318074896931648, -0.0005190717056394 ]
  - [  -0.0315216518938541, -0.0313128568232059, -0.0004217573732603 ]
  - [  -0.0320490971207619, -0.0308708995580673, -0.0003734175115824 ]
  - [  -0.0314874798059464, -0.0313133709132671, -0.0004273607628420 ]
  - [  -0.0314748436212540, -0.0312990024685860, -0.0004345570632722 ]
  - [  -0.0314844734966755, -0.0313031189143658, -0.0004199482500553 ]
  - [  -0.0320311784744263, -0.0308918412774801, -0.0005208905786276 ]
  - [  -0.0315185636281967, -0.0313042253255844, -0.0004231259226799 ]
  - [  -0.0322817414999008, -0.0320421978831291, -0.0003527887165546 ]
  - [  -0.0317175909876823, -0.0312940068542957, -0.0004598812665790 ]
  - [  -0.0314177572727203, -0.0313099026679993, -0.0004122726386413 ]
  - [  -0.0314645916223526, -0.0312964282929897, -0.0004117651842535 ]
  - [  -0.0313136987388134, -0.0313095711171627, -0.0004275068640709 ]
  - [  -0.0314840562641621, -0.0313083641231060, -0.0004465512465686 ]
  - [  -0.0314766317605972, -0.0312915816903114, -0.0004065503599122 ]
  - [  -0.0313081890344620, -0.0313159227371216, -0.0004178666276857 ]
  - [  -0.0314788892865181, -0.0312979146838188, -0.0004327376373112 ]
  - [  -0.0314801000058651, -0.0313210040330887, -0.0004016513703391 ]
  - [  -0.0314954742789268, -0.0313270650804043, -0.0004136320203543 ]
  - [  -0.0314931981265545, -0.0312939137220383, -0.0004347842186689 ]
  - [  -0.0314365848898888, -0.0313052237033844, -0.0004312507808208 ]
  - [  -0.0314942598342896, -0.0312942713499069, -0.0004179999232292 ]
  - [  -0.0314897373318672, -0.0313168503344059, -0.0004345960915089 ]
  - [  -0.0314429476857185, -0.0313139259815216, -0.0004191100597382 ]
  - [  -0.0304196476936340, -0.0312998890876770, -0.0010617170482874 ]
  - [  -0.0304784718900919, -0.0313103422522545,  0.0001642294228077 ]
  - [  -0.0315024182200432, -0.0313063152134418, -0.0004452709108591 ]
  - [   0.0025931664276868, -0.0023639411665499,  0.0036562792956829 ]
  - [   0.0025716824457049, -0.0026105453725904,  0.0034887418150902 ]
  - [   0.0028579798527062, -0.0024453056976199,  0.0035614855587482 ]
  - [   0.0025397390127182, -0.0025094540324062,  0.0035637319087982 ]
  - [   0.0025396668352187, -0.0025087934918702,  0.0035665705800056 ]
  - [   0.0025511591229588, -0.0025077862665057,  0.0035650543868542 ]
  - [   0.0025620951782912, -0.0026053225155920,  0.0036499761044979 ]
  - [   0.0025972661096603, -0.0023681167513132,  0.0034779794514179 ]
  - [   0.0028924897778779, -0.0024050602223724,  0.0036290399730206 ]
  - [  -0.0010118454229087, -0.0025165604893118,  0.0008629161166027 ]