# Thermal properties / unit cell (natom)

unit:
  temperature:   K
  free_energy:   kJ/mol
  entropy:       J/K/mol
  heat_capacity: J/K/mol

natom: 9    
cutoff_frequency: 0.00000
num_modes: 96768
num_integrated_modes: 96767

zero_point_energy:      10.1474517

thermal_properties:
- temperature:         0.0000000
  free_energy:        10.1474517
  entropy:             0.0000000
  heat_capacity:       0.0000000
  energy:             10.1474517

- temperature:        10.0000000
  free_energy:        10.1383739
  entropy:             3.8685978
  heat_capacity:      12.8593163
  energy:             10.1770598

- temperature:        20.0000000
  free_energy:         9.9962758
  entropy:            27.8618461
  heat_capacity:      65.1325760
  energy:             10.5535127

- temperature:        30.0000000
  free_energy:         9.5408907
  entropy:            64.1307232
  heat_capacity:     114.6389685
  energy:             11.4648124

- temperature:        40.0000000
  free_energy:         8.7087985
  entropy:           102.0908378
  heat_capacity:     148.4284298
  energy:             12.7924320

- temperature:        50.0000000
  free_energy:         7.5071658
  entropy:           137.7163534
  heat_capacity:     170.0843763
  energy:             14.3929834

- temperature:        60.0000000
  free_energy:         5.9655144
  entropy:           170.0585840
  heat_capacity:     184.1539669
  energy:             16.1690295

- temperature:        70.0000000
  free_energy:         4.1166834
  entropy:           199.2016028
  heat_capacity:     193.6031267
  energy:             18.0607956

- temperature:        80.0000000
  free_energy:         1.9909391
  entropy:           225.5081044
  heat_capacity:     200.1777713
  energy:             20.0315874

- temperature:        90.0000000
  free_energy:        -0.3853454
  entropy:           249.3730892
  heat_capacity:     204.9038657
  energy:             22.0582326

- temperature:       100.0000000
  free_energy:        -2.9895742
  entropy:           271.1516397
  heat_capacity:     208.3999872
  energy:             24.1255898

- temperature:       110.0000000
  free_energy:        -5.8024307
  entropy:           291.1442009
  heat_capacity:     211.0514068
  energy:             26.2234314

- temperature:       120.0000000
  free_energy:        -8.8073399
  entropy:           309.5998120
  heat_capacity:     213.1060215
  energy:             28.3446376

- temperature:       130.0000000
  free_energy:       -11.9899925
  entropy:           326.7239132
  heat_capacity:     214.7282515
  energy:             30.4841162

- temperature:       140.0000000
  free_energy:       -15.3379491
  entropy:           342.6863407
  heat_capacity:     216.0301946
  energy:             32.6381386

- temperature:       150.0000000
  free_energy:       -18.8403201
  entropy:           357.6282410
  heat_capacity:     217.0901900
  energy:             34.8039161

- temperature:       160.0000000
  free_energy:       -22.4875078
  entropy:           371.6676998
  heat_capacity:     217.9642105
  energy:             36.9793242

- temperature:       170.0000000
  free_energy:       -26.2709993
  entropy:           384.9042162
  heat_capacity:     218.6930488
  energy:             39.1627175

- temperature:       180.0000000
  free_energy:       -30.1831985
  entropy:           397.4222298
  heat_capacity:     219.3069687
  energy:             41.3528029

- temperature:       190.0000000
  free_energy:       -34.2172905
  entropy:           409.2938997
  heat_capacity:     219.8287858
  energy:             43.5485504

- temperature:       200.0000000
  free_energy:       -38.3671298
  entropy:           420.5813001
  heat_capacity:     220.2759514
  energy:             45.7491302

- temperature:       210.0000000
  free_energy:       -42.6271488
  entropy:           431.3381659
  heat_capacity:     220.6619903
  energy:             47.9538660

- temperature:       220.0000000
  free_energy:       -46.9922813
  entropy:           441.6112871
  heat_capacity:     220.9975106
  energy:             50.1622018

- temperature:       230.0000000
  free_energy:       -51.4578992
  entropy:           451.4416315
  heat_capacity:     221.2909242
  energy:             52.3736761

- temperature:       240.0000000
  free_energy:       -56.0197587
  entropy:           460.8652552
  heat_capacity:     221.5489685
  energy:             54.5879026

- temperature:       250.0000000
  free_energy:       -60.6739552
  entropy:           469.9140441
  heat_capacity:     221.7770898
  energy:             56.8045558

- temperature:       260.0000000
  free_energy:       -65.4168849
  entropy:           478.6163245
  heat_capacity:     221.9797282
  energy:             59.0233595

- temperature:       270.0000000
  free_energy:       -70.2452112
  entropy:           486.9973662
  heat_capacity:     222.1605321
  energy:             61.2440777

- temperature:       280.0000000
  free_energy:       -75.1558371
  entropy:           495.0798021
  heat_capacity:     222.3225214
  energy:             63.4665075

- temperature:       290.0000000
  free_energy:       -80.1458799
  entropy:           502.8839785
  heat_capacity:     222.4682125
  energy:             65.6904738

- temperature:       300.0000000
  free_energy:       -85.2126505
  entropy:           510.4282500
  heat_capacity:     222.5997158
  energy:             67.9158245

- temperature:       310.0000000
  free_energy:       -90.3536341
  entropy:           517.7292288
  heat_capacity:     222.7188116
  energy:             70.1424268

- temperature:       320.0000000
  free_energy:       -95.5664745
  entropy:           524.8019967
  heat_capacity:     222.8270099
  energy:             72.3701644

- temperature:       330.0000000
  free_energy:      -100.8489593
  entropy:           531.6602856
  heat_capacity:     222.9255985
  energy:             74.5989350

- temperature:       340.0000000
  free_energy:      -106.1990072
  entropy:           538.3166331
  heat_capacity:     223.0156804
  energy:             76.8286481

- temperature:       350.0000000
  free_energy:      -111.6146572
  entropy:           544.7825159
  heat_capacity:     223.0982053
  energy:             79.0592234

- temperature:       360.0000000
  free_energy:      -117.0940578
  entropy:           551.0684655
  heat_capacity:     223.1739941
  energy:             81.2905897

- temperature:       370.0000000
  free_energy:      -122.6354591
  entropy:           557.1841683
  heat_capacity:     223.2437594
  energy:             83.5226832

- temperature:       380.0000000
  free_energy:      -128.2372036
  entropy:           563.1385539
  heat_capacity:     223.3081220
  energy:             85.7554469

- temperature:       390.0000000
  free_energy:      -133.8977200
  entropy:           568.9398704
  heat_capacity:     223.3676251
  energy:             87.9888295

- temperature:       400.0000000
  free_energy:      -139.6155162
  entropy:           574.5957526
  heat_capacity:     223.4227451
  energy:             90.2227848

- temperature:       410.0000000
  free_energy:      -145.3891739
  entropy:           580.1132807
  heat_capacity:     223.4739017
  energy:             92.4572712

- temperature:       420.0000000
  free_energy:      -151.2173427
  entropy:           585.4990322
  heat_capacity:     223.5214656
  energy:             94.6922509

- temperature:       430.0000000
  free_energy:      -157.0987357
  entropy:           590.7591287
  heat_capacity:     223.5657650
  energy:             96.9276896

- temperature:       440.0000000
  free_energy:      -163.0321254
  entropy:           595.8992766
  heat_capacity:     223.6070917
  energy:             99.1635563

- temperature:       450.0000000
  free_energy:      -169.0163392
  entropy:           600.9248037
  heat_capacity:     223.6457056
  energy:            101.3998224

- temperature:       460.0000000
  free_energy:      -175.0502561
  entropy:           605.8406917
  heat_capacity:     223.6818387
  energy:            103.6364621

- temperature:       470.0000000
  free_energy:      -181.1328032
  entropy:           610.6516060
  heat_capacity:     223.7156990
  energy:            105.8734516

- temperature:       480.0000000
  free_energy:      -187.2629529
  entropy:           615.3619209
  heat_capacity:     223.7474730
  energy:            108.1107691

- temperature:       490.0000000
  free_energy:      -193.4397200
  entropy:           619.9757442
  heat_capacity:     223.7773284
  energy:            110.3483947

- temperature:       500.0000000
  free_energy:      -199.6621591
  entropy:           624.4969377
  heat_capacity:     223.8054165
  energy:            112.5863098

- temperature:       510.0000000
  free_energy:      -205.9293621
  entropy:           628.9291367
  heat_capacity:     223.8318741
  energy:            114.8244976

- temperature:       520.0000000
  free_energy:      -212.2404566
  entropy:           633.2757670
  heat_capacity:     223.8568247
  energy:            117.0629423

- temperature:       530.0000000
  free_energy:      -218.5946030
  entropy:           637.5400612
  heat_capacity:     223.8803808
  energy:            119.3016294

- temperature:       540.0000000
  free_energy:      -224.9909935
  entropy:           641.7250725
  heat_capacity:     223.9026441
  energy:            121.5405456

- temperature:       550.0000000
  free_energy:      -231.4288498
  entropy:           645.8336875
  heat_capacity:     223.9237075
  energy:            123.7796783

- temperature:       560.0000000
  free_energy:      -237.9074218
  entropy:           649.8686389
  heat_capacity:     223.9436557
  energy:            126.0190160

- temperature:       570.0000000
  free_energy:      -244.4259857
  entropy:           653.8325152
  heat_capacity:     223.9625660
  energy:            128.2585480

- temperature:       580.0000000
  free_energy:      -250.9838434
  entropy:           657.7277715
  heat_capacity:     223.9805091
  energy:            130.4982641

- temperature:       590.0000000
  free_energy:      -257.5803202
  entropy:           661.5567379
  heat_capacity:     223.9975498
  energy:            132.7381551

- temperature:       600.0000000
  free_energy:      -264.2147645
  entropy:           665.3216281
  heat_capacity:     224.0137476
  energy:            134.9782123

- temperature:       610.0000000
  free_energy:      -270.8865462
  entropy:           669.0245470
  heat_capacity:     224.0291572
  energy:            137.2184275

- temperature:       620.0000000
  free_energy:      -277.5950556
  entropy:           672.6674977
  heat_capacity:     224.0438288
  energy:            139.4587930

- temperature:       630.0000000
  free_energy:      -284.3397026
  entropy:           676.2523879
  heat_capacity:     224.0578088
  energy:            141.6993017

- temperature:       640.0000000
  free_energy:      -291.1199159
  entropy:           679.7810357
  heat_capacity:     224.0711400
  energy:            143.9399470

- temperature:       650.0000000
  free_energy:      -297.9351417
  entropy:           683.2551756
  heat_capacity:     224.0838619
  energy:            146.1807225

- temperature:       660.0000000
  free_energy:      -304.7848432
  entropy:           686.6764630
  heat_capacity:     224.0960111
  energy:            148.4216223

- temperature:       670.0000000
  free_energy:      -311.6685000
  entropy:           690.0464790
  heat_capacity:     224.1076214
  energy:            150.6626409

- temperature:       680.0000000
  free_energy:      -318.5856070
  entropy:           693.3667353
  heat_capacity:     224.1187241
  energy:            152.9037731

- temperature:       690.0000000
  free_energy:      -325.5356737
  entropy:           696.6386775
  heat_capacity:     224.1293485
  energy:            155.1450138

- temperature:       700.0000000
  free_energy:      -332.5182241
  entropy:           699.8636894
  heat_capacity:     224.1395217
  energy:            157.3863585

- temperature:       710.0000000
  free_energy:      -339.5327955
  entropy:           703.0430962
  heat_capacity:     224.1492687
  energy:            159.6278028

- temperature:       720.0000000
  free_energy:      -346.5789382
  entropy:           706.1781677
  heat_capacity:     224.1586131
  energy:            161.8693426

- temperature:       730.0000000
  free_energy:      -353.6562151
  entropy:           709.2701218
  heat_capacity:     224.1675767
  energy:            164.1109738

- temperature:       740.0000000
  free_energy:      -360.7642008
  entropy:           712.3201267
  heat_capacity:     224.1761800
  energy:            166.3526929

- temperature:       750.0000000
  free_energy:      -367.9024815
  entropy:           715.3293038
  heat_capacity:     224.1844420
  energy:            168.5944963

- temperature:       760.0000000
  free_energy:      -375.0706544
  entropy:           718.2987303
  heat_capacity:     224.1923804
  energy:            170.8363807

- temperature:       770.0000000
  free_energy:      -382.2683271
  entropy:           721.2294415
  heat_capacity:     224.2000120
  energy:            173.0783429

- temperature:       780.0000000
  free_energy:      -389.4951175
  entropy:           724.1224326
  heat_capacity:     224.2073524
  energy:            175.3203799

- temperature:       790.0000000
  free_energy:      -396.7506532
  entropy:           726.9786610
  heat_capacity:     224.2144162
  energy:            177.5624890

- temperature:       800.0000000
  free_energy:      -404.0345713
  entropy:           729.7990483
  heat_capacity:     224.2212171
  energy:            179.8046674

- temperature:       810.0000000
  free_energy:      -411.3465177
  entropy:           732.5844817
  heat_capacity:     224.2277681
  energy:            182.0469125

- temperature:       820.0000000
  free_energy:      -418.6861472
  entropy:           735.3358161
  heat_capacity:     224.2340811
  energy:            184.2892219

- temperature:       830.0000000
  free_energy:      -426.0531231
  entropy:           738.0538752
  heat_capacity:     224.2401676
  energy:            186.5315934

- temperature:       840.0000000
  free_energy:      -433.4471165
  entropy:           740.7394536
  heat_capacity:     224.2460382
  energy:            188.7740246

- temperature:       850.0000000
  free_energy:      -440.8678064
  entropy:           743.3933175
  heat_capacity:     224.2517032
  energy:            191.0165134

- temperature:       860.0000000
  free_energy:      -448.3148796
  entropy:           746.0162065
  heat_capacity:     224.2571719
  energy:            193.2590580

- temperature:       870.0000000
  free_energy:      -455.7880297
  entropy:           748.6088345
  heat_capacity:     224.2624533
  energy:            195.5016563

- temperature:       880.0000000
  free_energy:      -463.2869577
  entropy:           751.1718911
  heat_capacity:     224.2675559
  energy:            197.7443065

- temperature:       890.0000000
  free_energy:      -470.8113712
  entropy:           753.7060427
  heat_capacity:     224.2724877
  energy:            199.9870068

- temperature:       900.0000000
  free_energy:      -478.3609844
  entropy:           756.2119333
  heat_capacity:     224.2772561
  energy:            202.2297557

- temperature:       910.0000000
  free_energy:      -485.9355177
  entropy:           758.6901859
  heat_capacity:     224.2818684
  energy:            204.4725514

- temperature:       920.0000000
  free_energy:      -493.5346980
  entropy:           761.1414027
  heat_capacity:     224.2863312
  energy:            206.7153925

- temperature:       930.0000000
  free_energy:      -501.1582576
  entropy:           763.5661668
  heat_capacity:     224.2906510
  energy:            208.9582776

- temperature:       940.0000000
  free_energy:      -508.8059350
  entropy:           765.9650427
  heat_capacity:     224.2948338
  energy:            211.2012051

- temperature:       950.0000000
  free_energy:      -516.4774740
  entropy:           768.3385766
  heat_capacity:     224.2988854
  energy:            213.4441738

- temperature:       960.0000000
  free_energy:      -524.1726238
  entropy:           770.6872981
  heat_capacity:     224.3028111
  energy:            215.6871824

- temperature:       970.0000000
  free_energy:      -531.8911390
  entropy:           773.0117202
  heat_capacity:     224.3066161
  energy:            217.9302296

- temperature:       980.0000000
  free_energy:      -539.6327789
  entropy:           775.3123400
  heat_capacity:     224.3103053
  energy:            220.1733143

- temperature:       990.0000000
  free_energy:      -547.3973080
  entropy:           777.5896398
  heat_capacity:     224.3138835
  energy:            222.4164354

- temperature:      1000.0000000
  free_energy:      -555.1844955
  entropy:           779.8440871
  heat_capacity:     224.3173549
  energy:            224.6595916
