phonopy:
  version: "2.37.1"
  frequency_unit_conversion_factor: 15.633302
  symmetry_tolerance: 1.00000e-05

space_group:
  type: "P1"
  number: 1
  Hall_symbol: "P 1"

primitive_matrix:
- [  1.000000000000000,  0.000000000000000, -0.000000000000000 ]
- [  1.000000000000000, -1.000000000000000, -0.000000000000000 ]
- [  0.000000000000000,  0.000000000000000, -1.000000000000000 ]

supercell_matrix:
- [   2,   0,   0 ]
- [   0,   2,   0 ]
- [   0,   0,   2 ]

primitive_cell:
  lattice:
  - [     2.813281155667033,     4.874031156153620,     0.000000000000000 ] # a
  - [     2.815955420031436,    -4.874031156153620,     0.000000000000000 ] # b
  - [    -0.002797131203222,    -0.000418106008221,    -8.176992952253377 ] # c
  points:
  - symbol: Li # 1
    coordinates: [  0.744838722109306,  0.523191713610980,  0.073082352272997 ]
    mass: 6.940000
  - symbol: Li # 2
    coordinates: [  0.099974512371771,  0.700940742353207,  0.321342149141164 ]
    mass: 6.940000
  - symbol: Li # 3
    coordinates: [  0.276798980129610,  0.522978152411582,  0.073246483211175 ]
    mass: 6.940000
  - symbol: Li # 4
    coordinates: [  0.277075756533041,  0.055656403025629,  0.073384703124080 ]
    mass: 6.940000
  - symbol: Li # 5
    coordinates: [  0.433038903482360,  0.367655361661413,  0.747056509274984 ]
    mass: 6.940000
  - symbol: Li # 6
    coordinates: [  0.457254113244662,  0.879941871207780,  0.556408720440393 ]
    mass: 6.940000
  - symbol: Li # 7
    coordinates: [  0.921082105842275,  0.343574602250997,  0.556447221682982 ]
    mass: 6.940000
  - symbol: Li # 8
    coordinates: [  0.920728796499306,  0.879464046022192,  0.556264996713332 ]
    mass: 6.940000
  - symbol: Li # 9
    coordinates: [  0.100333796775712,  0.701657529644282,  0.817626820720032 ]
    mass: 6.940000
  - symbol: Sn # 10
    coordinates: [  0.766242753710094,  0.034119248105588,  0.250249379897209 ]
    mass: 118.710000
  - symbol: Sn # 11
    coordinates: [  0.433121994080828,  0.367676208217847,  0.393979273481058 ]
    mass: 118.710000
  - symbol: Sn # 12
    coordinates: [  0.766716251994531,  0.034423950335189,  0.868321336040031 ]
    mass: 118.710000
  reciprocal_lattice: # without 2pi
  - [     0.177643981835303,     0.102633224421128,    -0.000066015110393 ] # a*
  - [     0.177643981835303,    -0.102535755415504,    -0.000055524410001 ] # b*
  - [     0.000000000000000,     0.000000000000000,    -0.122294345346650 ] # c*

unit_cell:
  lattice:
  - [     5.629236575698468,     0.000000000000000,     0.000000000000000 ] # a
  - [    -2.815955420031436,     4.874031156153620,     0.000000000000000 ] # b
  - [     0.002797131203222,     0.000418106008221,     8.176992952253377 ] # c
  points:
  - symbol: Li # 1
    coordinates: [  0.744838722109306,  0.221647008498325,  0.926917647727003 ]
    mass: 6.940000
    reduced_to: 1
  - symbol: Li # 2
    coordinates: [  0.099974512371771,  0.399033770018563,  0.678657850858836 ]
    mass: 6.940000
    reduced_to: 2
  - symbol: Li # 3
    coordinates: [  0.276798980129610,  0.753820827718028,  0.926753516788825 ]
    mass: 6.940000
    reduced_to: 3
  - symbol: Li # 4
    coordinates: [  0.277075756533041,  0.221419353507412,  0.926615296875920 ]
    mass: 6.940000
    reduced_to: 4
  - symbol: Li # 5
    coordinates: [  0.433038903482360,  0.065383541820947,  0.252943490725016 ]
    mass: 6.940000
    reduced_to: 5
  - symbol: Li # 6
    coordinates: [  0.457254113244662,  0.577312242036882,  0.443591279559607 ]
    mass: 6.940000
    reduced_to: 6
  - symbol: Li # 7
    coordinates: [  0.921082105842275,  0.577507503591279,  0.443552778317018 ]
    mass: 6.940000
    reduced_to: 7
  - symbol: Li # 8
    coordinates: [  0.920728796499306,  0.041264750477114,  0.443735003286668 ]
    mass: 6.940000
    reduced_to: 8
  - symbol: Li # 9
    coordinates: [  0.100333796775712,  0.398676267131430,  0.182373179279968 ]
    mass: 6.940000
    reduced_to: 9
  - symbol: Sn # 10
    coordinates: [  0.766242753710094,  0.732123505604506,  0.749750620102791 ]
    mass: 118.710000
    reduced_to: 10
  - symbol: Sn # 11
    coordinates: [  0.433121994080828,  0.065445785862981,  0.606020726518942 ]
    mass: 118.710000
    reduced_to: 11
  - symbol: Sn # 12
    coordinates: [  0.766716251994531,  0.732292301659342,  0.131678663959969 ]
    mass: 118.710000
    reduced_to: 12

supercell:
  lattice:
  - [    11.258473151396936,     0.000000000000000,     0.000000000000000 ] # a
  - [    -5.631910840062871,     9.748062312307241,     0.000000000000000 ] # b
  - [     0.005594262406444,     0.000836212016443,    16.353985904506754 ] # c
  points:
  - symbol: Li # 1
    coordinates: [  0.372419361054653,  0.110823504249163,  0.463458823863502 ]
    mass: 6.940000
    reduced_to: 1
  - symbol: Li # 2
    coordinates: [  0.872419361054653,  0.110823504249163,  0.463458823863502 ]
    mass: 6.940000
    reduced_to: 1
  - symbol: Li # 3
    coordinates: [  0.372419361054653,  0.610823504249163,  0.463458823863502 ]
    mass: 6.940000
    reduced_to: 1
  - symbol: Li # 4
    coordinates: [  0.872419361054653,  0.610823504249163,  0.463458823863502 ]
    mass: 6.940000
    reduced_to: 1
  - symbol: Li # 5
    coordinates: [  0.372419361054653,  0.110823504249163,  0.963458823863502 ]
    mass: 6.940000
    reduced_to: 1
  - symbol: Li # 6
    coordinates: [  0.872419361054653,  0.110823504249163,  0.963458823863502 ]
    mass: 6.940000
    reduced_to: 1
  - symbol: Li # 7
    coordinates: [  0.372419361054653,  0.610823504249163,  0.963458823863502 ]
    mass: 6.940000
    reduced_to: 1
  - symbol: Li # 8
    coordinates: [  0.872419361054653,  0.610823504249163,  0.963458823863502 ]
    mass: 6.940000
    reduced_to: 1
  - symbol: Li # 9
    coordinates: [  0.049987256185885,  0.199516885009282,  0.339328925429418 ]
    mass: 6.940000
    reduced_to: 9
  - symbol: Li # 10
    coordinates: [  0.549987256185885,  0.199516885009282,  0.339328925429418 ]
    mass: 6.940000
    reduced_to: 9
  - symbol: Li # 11
    coordinates: [  0.049987256185885,  0.699516885009282,  0.339328925429418 ]
    mass: 6.940000
    reduced_to: 9
  - symbol: Li # 12
    coordinates: [  0.549987256185885,  0.699516885009282,  0.339328925429418 ]
    mass: 6.940000
    reduced_to: 9
  - symbol: Li # 13
    coordinates: [  0.049987256185885,  0.199516885009282,  0.839328925429418 ]
    mass: 6.940000
    reduced_to: 9
  - symbol: Li # 14
    coordinates: [  0.549987256185885,  0.199516885009282,  0.839328925429418 ]
    mass: 6.940000
    reduced_to: 9
  - symbol: Li # 15
    coordinates: [  0.049987256185885,  0.699516885009282,  0.839328925429418 ]
    mass: 6.940000
    reduced_to: 9
  - symbol: Li # 16
    coordinates: [  0.549987256185885,  0.699516885009282,  0.839328925429418 ]
    mass: 6.940000
    reduced_to: 9
  - symbol: Li # 17
    coordinates: [  0.138399490064805,  0.376910413859014,  0.463376758394412 ]
    mass: 6.940000
    reduced_to: 17
  - symbol: Li # 18
    coordinates: [  0.638399490064805,  0.376910413859014,  0.463376758394412 ]
    mass: 6.940000
    reduced_to: 17
  - symbol: Li # 19
    coordinates: [  0.138399490064805,  0.876910413859014,  0.463376758394412 ]
    mass: 6.940000
    reduced_to: 17
  - symbol: Li # 20
    coordinates: [  0.638399490064805,  0.876910413859014,  0.463376758394412 ]
    mass: 6.940000
    reduced_to: 17
  - symbol: Li # 21
    coordinates: [  0.138399490064805,  0.376910413859014,  0.963376758394412 ]
    mass: 6.940000
    reduced_to: 17
  - symbol: Li # 22
    coordinates: [  0.638399490064805,  0.376910413859014,  0.963376758394412 ]
    mass: 6.940000
    reduced_to: 17
  - symbol: Li # 23
    coordinates: [  0.138399490064805,  0.876910413859014,  0.963376758394412 ]
    mass: 6.940000
    reduced_to: 17
  - symbol: Li # 24
    coordinates: [  0.638399490064805,  0.876910413859014,  0.963376758394412 ]
    mass: 6.940000
    reduced_to: 17
  - symbol: Li # 25
    coordinates: [  0.138537878266520,  0.110709676753706,  0.463307648437960 ]
    mass: 6.940000
    reduced_to: 25
  - symbol: Li # 26
    coordinates: [  0.638537878266520,  0.110709676753706,  0.463307648437960 ]
    mass: 6.940000
    reduced_to: 25
  - symbol: Li # 27
    coordinates: [  0.138537878266520,  0.610709676753706,  0.463307648437960 ]
    mass: 6.940000
    reduced_to: 25
  - symbol: Li # 28
    coordinates: [  0.638537878266520,  0.610709676753706,  0.463307648437960 ]
    mass: 6.940000
    reduced_to: 25
  - symbol: Li # 29
    coordinates: [  0.138537878266520,  0.110709676753706,  0.963307648437960 ]
    mass: 6.940000
    reduced_to: 25
  - symbol: Li # 30
    coordinates: [  0.638537878266520,  0.110709676753706,  0.963307648437960 ]
    mass: 6.940000
    reduced_to: 25
  - symbol: Li # 31
    coordinates: [  0.138537878266520,  0.610709676753706,  0.963307648437960 ]
    mass: 6.940000
    reduced_to: 25
  - symbol: Li # 32
    coordinates: [  0.638537878266520,  0.610709676753706,  0.963307648437960 ]
    mass: 6.940000
    reduced_to: 25
  - symbol: Li # 33
    coordinates: [  0.216519451741180,  0.032691770910473,  0.126471745362508 ]
    mass: 6.940000
    reduced_to: 33
  - symbol: Li # 34
    coordinates: [  0.716519451741180,  0.032691770910473,  0.126471745362508 ]
    mass: 6.940000
    reduced_to: 33
  - symbol: Li # 35
    coordinates: [  0.216519451741180,  0.532691770910473,  0.126471745362508 ]
    mass: 6.940000
    reduced_to: 33
  - symbol: Li # 36
    coordinates: [  0.716519451741180,  0.532691770910473,  0.126471745362508 ]
    mass: 6.940000
    reduced_to: 33
  - symbol: Li # 37
    coordinates: [  0.216519451741180,  0.032691770910473,  0.626471745362508 ]
    mass: 6.940000
    reduced_to: 33
  - symbol: Li # 38
    coordinates: [  0.716519451741180,  0.032691770910473,  0.626471745362508 ]
    mass: 6.940000
    reduced_to: 33
  - symbol: Li # 39
    coordinates: [  0.216519451741180,  0.532691770910473,  0.626471745362508 ]
    mass: 6.940000
    reduced_to: 33
  - symbol: Li # 40
    coordinates: [  0.716519451741180,  0.532691770910473,  0.626471745362508 ]
    mass: 6.940000
    reduced_to: 33
  - symbol: Li # 41
    coordinates: [  0.228627056622331,  0.288656121018441,  0.221795639779803 ]
    mass: 6.940000
    reduced_to: 41
  - symbol: Li # 42
    coordinates: [  0.728627056622331,  0.288656121018441,  0.221795639779803 ]
    mass: 6.940000
    reduced_to: 41
  - symbol: Li # 43
    coordinates: [  0.228627056622331,  0.788656121018441,  0.221795639779803 ]
    mass: 6.940000
    reduced_to: 41
  - symbol: Li # 44
    coordinates: [  0.728627056622331,  0.788656121018441,  0.221795639779803 ]
    mass: 6.940000
    reduced_to: 41
  - symbol: Li # 45
    coordinates: [  0.228627056622331,  0.288656121018441,  0.721795639779803 ]
    mass: 6.940000
    reduced_to: 41
  - symbol: Li # 46
    coordinates: [  0.728627056622331,  0.288656121018441,  0.721795639779803 ]
    mass: 6.940000
    reduced_to: 41
  - symbol: Li # 47
    coordinates: [  0.228627056622331,  0.788656121018441,  0.721795639779803 ]
    mass: 6.940000
    reduced_to: 41
  - symbol: Li # 48
    coordinates: [  0.728627056622331,  0.788656121018441,  0.721795639779803 ]
    mass: 6.940000
    reduced_to: 41
  - symbol: Li # 49
    coordinates: [  0.460541052921138,  0.288753751795639,  0.221776389158509 ]
    mass: 6.940000
    reduced_to: 49
  - symbol: Li # 50
    coordinates: [  0.960541052921138,  0.288753751795639,  0.221776389158509 ]
    mass: 6.940000
    reduced_to: 49
  - symbol: Li # 51
    coordinates: [  0.460541052921138,  0.788753751795639,  0.221776389158509 ]
    mass: 6.940000
    reduced_to: 49
  - symbol: Li # 52
    coordinates: [  0.960541052921138,  0.788753751795639,  0.221776389158509 ]
    mass: 6.940000
    reduced_to: 49
  - symbol: Li # 53
    coordinates: [  0.460541052921138,  0.288753751795639,  0.721776389158509 ]
    mass: 6.940000
    reduced_to: 49
  - symbol: Li # 54
    coordinates: [  0.960541052921138,  0.288753751795639,  0.721776389158509 ]
    mass: 6.940000
    reduced_to: 49
  - symbol: Li # 55
    coordinates: [  0.460541052921138,  0.788753751795639,  0.721776389158509 ]
    mass: 6.940000
    reduced_to: 49
  - symbol: Li # 56
    coordinates: [  0.960541052921138,  0.788753751795639,  0.721776389158509 ]
    mass: 6.940000
    reduced_to: 49
  - symbol: Li # 57
    coordinates: [  0.460364398249653,  0.020632375238557,  0.221867501643334 ]
    mass: 6.940000
    reduced_to: 57
  - symbol: Li # 58
    coordinates: [  0.960364398249653,  0.020632375238557,  0.221867501643334 ]
    mass: 6.940000
    reduced_to: 57
  - symbol: Li # 59
    coordinates: [  0.460364398249653,  0.520632375238557,  0.221867501643334 ]
    mass: 6.940000
    reduced_to: 57
  - symbol: Li # 60
    coordinates: [  0.960364398249653,  0.520632375238557,  0.221867501643334 ]
    mass: 6.940000
    reduced_to: 57
  - symbol: Li # 61
    coordinates: [  0.460364398249653,  0.020632375238557,  0.721867501643334 ]
    mass: 6.940000
    reduced_to: 57
  - symbol: Li # 62
    coordinates: [  0.960364398249653,  0.020632375238557,  0.721867501643334 ]
    mass: 6.940000
    reduced_to: 57
  - symbol: Li # 63
    coordinates: [  0.460364398249653,  0.520632375238557,  0.721867501643334 ]
    mass: 6.940000
    reduced_to: 57
  - symbol: Li # 64
    coordinates: [  0.960364398249653,  0.520632375238557,  0.721867501643334 ]
    mass: 6.940000
    reduced_to: 57
  - symbol: Li # 65
    coordinates: [  0.050166898387856,  0.199338133565715,  0.091186589639984 ]
    mass: 6.940000
    reduced_to: 65
  - symbol: Li # 66
    coordinates: [  0.550166898387856,  0.199338133565715,  0.091186589639984 ]
    mass: 6.940000
    reduced_to: 65
  - symbol: Li # 67
    coordinates: [  0.050166898387856,  0.699338133565715,  0.091186589639984 ]
    mass: 6.940000
    reduced_to: 65
  - symbol: Li # 68
    coordinates: [  0.550166898387856,  0.699338133565715,  0.091186589639984 ]
    mass: 6.940000
    reduced_to: 65
  - symbol: Li # 69
    coordinates: [  0.050166898387856,  0.199338133565715,  0.591186589639984 ]
    mass: 6.940000
    reduced_to: 65
  - symbol: Li # 70
    coordinates: [  0.550166898387856,  0.199338133565715,  0.591186589639984 ]
    mass: 6.940000
    reduced_to: 65
  - symbol: Li # 71
    coordinates: [  0.050166898387856,  0.699338133565715,  0.591186589639984 ]
    mass: 6.940000
    reduced_to: 65
  - symbol: Li # 72
    coordinates: [  0.550166898387856,  0.699338133565715,  0.591186589639984 ]
    mass: 6.940000
    reduced_to: 65
  - symbol: Sn # 73
    coordinates: [  0.383121376855047,  0.366061752802253,  0.374875310051396 ]
    mass: 118.710000
    reduced_to: 73
  - symbol: Sn # 74
    coordinates: [  0.883121376855047,  0.366061752802253,  0.374875310051396 ]
    mass: 118.710000
    reduced_to: 73
  - symbol: Sn # 75
    coordinates: [  0.383121376855047,  0.866061752802253,  0.374875310051396 ]
    mass: 118.710000
    reduced_to: 73
  - symbol: Sn # 76
    coordinates: [  0.883121376855047,  0.866061752802253,  0.374875310051396 ]
    mass: 118.710000
    reduced_to: 73
  - symbol: Sn # 77
    coordinates: [  0.383121376855047,  0.366061752802253,  0.874875310051396 ]
    mass: 118.710000
    reduced_to: 73
  - symbol: Sn # 78
    coordinates: [  0.883121376855047,  0.366061752802253,  0.874875310051396 ]
    mass: 118.710000
    reduced_to: 73
  - symbol: Sn # 79
    coordinates: [  0.383121376855047,  0.866061752802253,  0.874875310051396 ]
    mass: 118.710000
    reduced_to: 73
  - symbol: Sn # 80
    coordinates: [  0.883121376855047,  0.866061752802253,  0.874875310051396 ]
    mass: 118.710000
    reduced_to: 73
  - symbol: Sn # 81
    coordinates: [  0.216560997040414,  0.032722892931491,  0.303010363259471 ]
    mass: 118.710000
    reduced_to: 81
  - symbol: Sn # 82
    coordinates: [  0.716560997040414,  0.032722892931491,  0.303010363259471 ]
    mass: 118.710000
    reduced_to: 81
  - symbol: Sn # 83
    coordinates: [  0.216560997040414,  0.532722892931491,  0.303010363259471 ]
    mass: 118.710000
    reduced_to: 81
  - symbol: Sn # 84
    coordinates: [  0.716560997040414,  0.532722892931491,  0.303010363259471 ]
    mass: 118.710000
    reduced_to: 81
  - symbol: Sn # 85
    coordinates: [  0.216560997040414,  0.032722892931491,  0.803010363259471 ]
    mass: 118.710000
    reduced_to: 81
  - symbol: Sn # 86
    coordinates: [  0.716560997040414,  0.032722892931491,  0.803010363259471 ]
    mass: 118.710000
    reduced_to: 81
  - symbol: Sn # 87
    coordinates: [  0.216560997040414,  0.532722892931491,  0.803010363259471 ]
    mass: 118.710000
    reduced_to: 81
  - symbol: Sn # 88
    coordinates: [  0.716560997040414,  0.532722892931491,  0.803010363259471 ]
    mass: 118.710000
    reduced_to: 81
  - symbol: Sn # 89
    coordinates: [  0.383358125997265,  0.366146150829671,  0.065839331979985 ]
    mass: 118.710000
    reduced_to: 89
  - symbol: Sn # 90
    coordinates: [  0.883358125997265,  0.366146150829671,  0.065839331979985 ]
    mass: 118.710000
    reduced_to: 89
  - symbol: Sn # 91
    coordinates: [  0.383358125997265,  0.866146150829671,  0.065839331979985 ]
    mass: 118.710000
    reduced_to: 89
  - symbol: Sn # 92
    coordinates: [  0.883358125997265,  0.866146150829671,  0.065839331979985 ]
    mass: 118.710000
    reduced_to: 89
  - symbol: Sn # 93
    coordinates: [  0.383358125997265,  0.366146150829671,  0.565839331979985 ]
    mass: 118.710000
    reduced_to: 89
  - symbol: Sn # 94
    coordinates: [  0.883358125997265,  0.366146150829671,  0.565839331979985 ]
    mass: 118.710000
    reduced_to: 89
  - symbol: Sn # 95
    coordinates: [  0.383358125997265,  0.866146150829671,  0.565839331979985 ]
    mass: 118.710000
    reduced_to: 89
  - symbol: Sn # 96
    coordinates: [  0.883358125997265,  0.866146150829671,  0.565839331979985 ]
    mass: 118.710000
    reduced_to: 89

displacements:
- atom:    1
  displacement:
    [   0.0100000000000000,  0.0000000000000000,  0.0000000000000000 ]
  forces:
  - [  -0.0155284851789474, -0.0066739451140165, -0.0305141285061836 ]
  - [   0.0135967098176479,  0.0070342738181353, -0.0313351824879646 ]
  - [   0.0125621501356363,  0.0068579092621803, -0.0313187837600708 ]
  - [   0.0128266420215368,  0.0074844732880592, -0.0312853716313839 ]
  - [   0.0126051809638739,  0.0069507602602243, -0.0313093475997448 ]
  - [   0.0126045942306519,  0.0069477036595345, -0.0313109643757343 ]
  - [   0.0126054603606462,  0.0069517977535725, -0.0313089415431023 ]
  - [   0.0126048438251019,  0.0069499164819717, -0.0313102044165134 ]
  - [  -0.0002191218081862,  0.0007933153538033, -0.0376672856509686 ]
  - [   0.0027039558626711,  0.0028735655359924, -0.0418234914541245 ]
  - [   0.0002214033156633,  0.0004808560479432, -0.0373469442129135 ]
  - [  -0.0000525722862221,  0.0012397699756548, -0.0372436866164207 ]
  - [   0.0002472648629919,  0.0006260579684749, -0.0372331067919731 ]
  - [   0.0002567662741058,  0.0006268016877584, -0.0372501648962498 ]
  - [   0.0002585407346487,  0.0006117013981566, -0.0372313968837261 ]
  - [   0.0002495695371181,  0.0006332118064165, -0.0372234024107456 ]
  - [  -0.0006616316968575, -0.0146781355142593, -0.0304972324520350 ]
  - [   0.0004925467073917, -0.0130303055047989, -0.0308306384831667 ]
  - [   0.0009739175438881, -0.0095143243670464, -0.0306512340903282 ]
  - [  -0.0007874406874180, -0.0147208236157894, -0.0306526422500610 ]
  - [  -0.0006927172653377, -0.0147696733474731, -0.0305607505142689 ]
  - [  -0.0006928611546755, -0.0147716663777828, -0.0305625163018703 ]
  - [  -0.0006923056207597, -0.0147692672908306, -0.0305548682808876 ]
  - [  -0.0006956150755286, -0.0147684477269650, -0.0305587723851204 ]
  - [  -0.0019113719463348,  0.0070319715887308, -0.0320378355681896 ]
  - [  -0.0075060389935970,  0.0075228121131659, -0.0327306762337685 ]
  - [  -0.0128507595509291,  0.0068793352693319, -0.0323878005146980 ]
  - [  -0.0128511525690556,  0.0067625809460878, -0.0322546809911728 ]
  - [  -0.0127922855317593,  0.0069063734263182, -0.0323337204754353 ]
  - [  -0.0127922650426626,  0.0069078616797924, -0.0323375128209591 ]
  - [  -0.0127923544496298,  0.0069076567888260, -0.0323360562324524 ]
  - [  -0.0127917602658272,  0.0069059245288372, -0.0323365777730942 ]
  - [   0.0004140482051298,  0.0001235830713995,  0.0508364848792553 ]
  - [   0.0004478571936488,  0.0000185286626220,  0.0513219162821770 ]
  - [   0.0004329298390076,  0.0000257087522186,  0.0512611493468285 ]
  - [   0.0004281190922484,  0.0000348713365383,  0.0512843653559685 ]
  - [   0.0009063708130270,  0.0004207958700135,  0.0502018928527832 ]
  - [   0.0004896759055555,  0.0000910963863134,  0.0513823442161083 ]
  - [   0.0003551139088813,  0.0002384699764661,  0.0512231253087521 ]
  - [   0.0004156906215940, -0.0000377445248887,  0.0512795932590961 ]
  - [   0.0109663195908070,  0.0059367530047894,  0.0286253057420254 ]
  - [   0.0110928341746330,  0.0062214788049459,  0.0283665508031845 ]
  - [   0.0111080277711153,  0.0058674607425928,  0.0285904612392187 ]
  - [   0.0108326207846403,  0.0061410330235958,  0.0283916145563126 ]
  - [   0.0109115187078714,  0.0060430113226175,  0.0283598396927118 ]
  - [   0.0110493358224630,  0.0062277112156153,  0.0286152586340904 ]
  - [   0.0109714716672897,  0.0060139093548059,  0.0284052789211273 ]
  - [   0.0108678769320250,  0.0061323940753937,  0.0284933820366859 ]
  - [  -0.0103364828974009,  0.0065892282873392,  0.0283308960497379 ]
  - [  -0.0102934837341309,  0.0066389329731464,  0.0280917771160603 ]
  - [  -0.0104332342743874,  0.0065151117742062,  0.0283166971057653 ]
  - [  -0.0104464404284954,  0.0065436884760857,  0.0281512923538685 ]
  - [  -0.0103567931801081,  0.0066246744245291,  0.0279543250799179 ]
  - [  -0.0103221908211708,  0.0066730454564095,  0.0280292481184006 ]
  - [  -0.0104635879397392,  0.0065840408205986,  0.0277590379118919 ]
  - [  -0.0103381425142288,  0.0066721085458994,  0.0280858688056469 ]
  - [  -0.0004043428925797, -0.0117337331175804,  0.0283875800669193 ]
  - [  -0.0003888696082868, -0.0119077712297440,  0.0280718430876732 ]
  - [  -0.0003534168936312, -0.0119432024657726,  0.0274601429700851 ]
  - [  -0.0003905033227056, -0.0119478181004524,  0.0279515348374844 ]
  - [  -0.0004513197345659, -0.0118647553026676,  0.0277034826576710 ]
  - [  -0.0003872108063661, -0.0119573771953583,  0.0279266014695168 ]
  - [  -0.0003757240483537, -0.0119235105812550,  0.0282771550118923 ]
  - [  -0.0003906421479769, -0.0119652450084686,  0.0278821196407080 ]
  - [   0.0007178017403930, -0.0003945394419134,  0.0103223128244281 ]
  - [   0.0007035773014650, -0.0003854404203594,  0.0103153530508280 ]
  - [   0.0007070011924952, -0.0004076077602804,  0.0102969836443663 ]
  - [   0.0007155593484640, -0.0003985483199358,  0.0102971885353327 ]
  - [   0.0000730252941139, -0.0000724860001355,  0.0106157660484314 ]
  - [   0.0028345249593258,  0.0015516510466114,  0.0139426458626986 ]
  - [   0.0006259095389396, -0.0008185543119907,  0.0104507217183709 ]
  - [   0.0005437966901809, -0.0001108371652663,  0.0103173088282347 ]
  - [  -0.0001745540648699, -0.0016037580789998, -0.0065144188702106 ]
  - [  -0.0009904538746923, -0.0003912980319001, -0.0075499862432480 ]
  - [   0.0005740313790739,  0.0004034596204292, -0.0090092457830906 ]
  - [  -0.0009388326434419, -0.0003623623051681, -0.0080726258456707 ]
  - [  -0.0007197239901870, -0.0001903045049403, -0.0077213123440742 ]
  - [  -0.0007200175896287, -0.0002122426521964, -0.0077390782535076 ]
  - [  -0.0007218568352982, -0.0002136253751814, -0.0076846107840538 ]
  - [  -0.0007197204977274, -0.0002156484697480, -0.0077293105423450 ]
  - [   0.0015289820730686,  0.0011404342949390,  0.0106005892157555 ]
  - [  -0.0001217234239448,  0.0001999211381190,  0.0094865448772907 ]
  - [   0.0001151234464487, -0.0003562280908227,  0.0092659145593643 ]
  - [   0.0001542284444440,  0.0003096889704466,  0.0092488601803780 ]
  - [  -0.0000210776925087,  0.0002329647541046,  0.0093956030905247 ]
  - [  -0.0000029600341804,  0.0002399783697911,  0.0093399658799171 ]
  - [  -0.0000189722923096,  0.0002119620330632,  0.0093369968235493 ]
  - [  -0.0000328695023200,  0.0002331961877644,  0.0093448124825954 ]
  - [   0.0000923758852878, -0.0001571926113684, -0.0161995440721512 ]
  - [   0.0000862784290803, -0.0001768466609064, -0.0161637738347054 ]
  - [   0.0000828316769912, -0.0001812811533455, -0.0162237640470266 ]
  - [   0.0001086224656319, -0.0001726784394123, -0.0161579661071301 ]
  - [   0.0006038632709533,  0.0000552238197997, -0.0169192459434271 ]
  - [   0.0000599668419454, -0.0002204596530646, -0.0163283068686724 ]
  - [   0.0007790770614520,  0.0003635527682491, -0.0153904221951962 ]
  - [   0.0000199518253794, -0.0001865974045359, -0.0158560872077942 ]
- atom:    1
  displacement:
    [  -0.0100000000000000,  0.0000000000000000,  0.0000000000000000 ]
  forces:
  - [   0.0407660901546478,  0.0205516014248133, -0.0320946052670479 ]
  - [   0.0116225518286228,  0.0068656634539366, -0.0312908515334129 ]
  - [   0.0126495957374573,  0.0070406571030617, -0.0313041955232620 ]
  - [   0.0123868416994810,  0.0064155925065279, -0.0313385911285877 ]
  - [   0.0126078110188246,  0.0069475974887609, -0.0313133411109447 ]
  - [   0.0126068592071533,  0.0069486368447542, -0.0313123315572739 ]
  - [   0.0126054566353559,  0.0069491397589445, -0.0313132703304291 ]
  - [   0.0126074776053429,  0.0069506987929344, -0.0313109643757343 ]
  - [   0.0007350948872045,  0.0004425927472766, -0.0367752760648727 ]
  - [  -0.0022019867319614, -0.0016115359030664, -0.0326714813709259 ]
  - [   0.0002928124740720,  0.0007595534552820, -0.0371003299951553 ]
  - [   0.0005700801266357, -0.0000037929858081, -0.0372025258839130 ]
  - [   0.0002656253636815,  0.0006163413636386, -0.0372142903506756 ]
  - [   0.0002553659724072,  0.0006142136408016, -0.0371978133916855 ]
  - [   0.0002542557194829,  0.0006298091029748, -0.0372171327471733 ]
  - [   0.0002643078332767,  0.0006074687698856, -0.0372259356081486 ]
  - [  -0.0007099803769961, -0.0148752667009830, -0.0306235011667013 ]
  - [  -0.0018765004351735, -0.0164864994585514, -0.0302945766597986 ]
  - [  -0.0023175589740276, -0.0200460404157639, -0.0304749645292759 ]
  - [  -0.0006211083382368, -0.0148055665194988, -0.0304712336510420 ]
  - [  -0.0006932406686246, -0.0147715657949448, -0.0305605884641409 ]
  - [  -0.0006939019076526, -0.0147693380713463, -0.0305575728416443 ]
  - [  -0.0006955084390938, -0.0147681795060635, -0.0305661782622337 ]
  - [  -0.0006917659193277, -0.0147680863738060, -0.0305620953440666 ]
  - [  -0.0238537956029177,  0.0067937560379505, -0.0326487086713314 ]
  - [  -0.0179618820548058,  0.0062856525182724, -0.0319476872682571 ]
  - [  -0.0127346813678741,  0.0069317575544119, -0.0322913452982903 ]
  - [  -0.0127346906810999,  0.0070525445044041, -0.0324252471327782 ]
  - [  -0.0127932447940111,  0.0069067161530256, -0.0323425494134426 ]
  - [  -0.0127959679812193,  0.0069043114781380, -0.0323368571698666 ]
  - [  -0.0127936378121376,  0.0069046299904585, -0.0323393195867538 ]
  - [  -0.0127933360636234,  0.0069068986922503, -0.0323385559022427 ]
  - [   0.0004538035718724, -0.0000636241165921,  0.0517294295132160 ]
  - [   0.0004162134137005,  0.0000408170744777,  0.0512419976294041 ]
  - [   0.0004310777294450,  0.0000342416460626,  0.0513026267290115 ]
  - [   0.0004354396369308,  0.0000249475124292,  0.0512801744043827 ]
  - [  -0.0000384980812669, -0.0003596791066229,  0.0523690469563007 ]
  - [   0.0003714584745467, -0.0000298600643873,  0.0511842295527458 ]
  - [   0.0005085029406473, -0.0001731411321089,  0.0513463579118252 ]
  - [   0.0004466630343813,  0.0000962898484431,  0.0512871667742729 ]
  - [   0.0108012221753597,  0.0063192788511515,  0.0282639004290104 ]
  - [   0.0106688290834427,  0.0060321260243654,  0.0285291261970997 ]
  - [   0.0106569137424231,  0.0063932314515114,  0.0283022485673428 ]
  - [   0.0109343193471432,  0.0061157308518887,  0.0284966658800840 ]
  - [   0.0108533632010221,  0.0062116924673319,  0.0285319145768881 ]
  - [   0.0107153356075287,  0.0060269702225924,  0.0282749198377132 ]
  - [   0.0107938162982464,  0.0062410812824965,  0.0284842960536480 ]
  - [   0.0108969435095787,  0.0061252024024725,  0.0283978860825300 ]
  - [  -0.0103724673390388,  0.0067686177790165,  0.0277975276112556 ]
  - [  -0.0104099251329899,  0.0067166872322559,  0.0280400421470404 ]
  - [  -0.0102729815989733,  0.0068341009318829,  0.0278081130236387 ]
  - [  -0.0102638490498066,  0.0068042613565922,  0.0279782824218273 ]
  - [  -0.0103490520268679,  0.0067323427647352,  0.0281823575496674 ]
  - [  -0.0103809013962746,  0.0066792760044336,  0.0281024985015392 ]
  - [  -0.0102405622601509,  0.0067665912210941,  0.0283751636743546 ]
  - [  -0.0103671774268150,  0.0066827442497015,  0.0280483104288578 ]
  - [  -0.0004095442709513, -0.0122270733118057,  0.0274510663002729 ]
  - [  -0.0004331407253630, -0.0120524391531944,  0.0277660973370075 ]
  - [  -0.0004577426007017, -0.0120156966149807,  0.0283767767250538 ]
  - [  -0.0004220157279633, -0.0120110549032688,  0.0278884898871183 ]
  - [  -0.0003582998178899, -0.0120969079434872,  0.0281361751258373 ]
  - [  -0.0004268083721399, -0.0120044015347958,  0.0279118958860636 ]
  - [  -0.0004348502261564, -0.0120357461273670,  0.0275602191686630 ]
  - [  -0.0004226840683259, -0.0119933597743511,  0.0279556587338448 ]
  - [   0.0007084531243891, -0.0004041129723191,  0.0102686546742916 ]
  - [   0.0007242038846016, -0.0004133456386626,  0.0102747986093163 ]
  - [   0.0007176171056926, -0.0003925864584744,  0.0102948341518641 ]
  - [   0.0007095579057932, -0.0004013888537884,  0.0102954711765051 ]
  - [   0.0013538992498070, -0.0007298921700567,  0.0099802780896425 ]
  - [  -0.0013992838794366, -0.0023264251649380,  0.0067204646766186 ]
  - [   0.0007988926954567,  0.0000158152543008,  0.0101471832022071 ]