# Thermal properties / unit cell (natom)

unit:
  temperature:   K
  free_energy:   kJ/mol
  entropy:       J/K/mol
  heat_capacity: J/K/mol

natom: 8    
cutoff_frequency: 0.00000
num_modes: 116160
num_integrated_modes: 116159

zero_point_energy:       7.1238410

thermal_properties:
- temperature:         0.0000000
  free_energy:         7.1238410
  entropy:             0.0000000
  heat_capacity:       0.0000000
  energy:              7.1238410

- temperature:        10.0000000
  free_energy:         7.1070246
  entropy:             6.5236379
  heat_capacity:      19.3275561
  energy:              7.1722610

- temperature:        20.0000000
  free_energy:         6.8975924
  entropy:            38.9525701
  heat_capacity:      81.7434367
  energy:              7.6766438

- temperature:        30.0000000
  free_energy:         6.2965600
  entropy:            81.4479392
  heat_capacity:     126.8938386
  energy:              8.7399982

- temperature:        40.0000000
  free_energy:         5.2767418
  entropy:           121.8072828
  heat_capacity:     152.4712806
  energy:             10.1490332

- temperature:        50.0000000
  free_energy:         3.8760279
  entropy:           157.5526374
  heat_capacity:     167.1735136
  energy:             11.7536597

- temperature:        60.0000000
  free_energy:         2.1404324
  entropy:           188.8862173
  heat_capacity:     176.1243912
  energy:             13.4736055

- temperature:        70.0000000
  free_energy:         0.1106968
  entropy:           216.4997128
  heat_capacity:     181.8949403
  energy:             15.2656767

- temperature:        80.0000000
  free_energy:        -2.1793968
  entropy:           241.0594381
  heat_capacity:     185.8027406
  energy:             17.1053582

- temperature:        90.0000000
  free_energy:        -4.7021475
  entropy:           263.1119421
  heat_capacity:     188.5596302
  energy:             18.9779273

- temperature:       100.0000000
  free_energy:        -7.4347249
  entropy:           283.0881033
  heat_capacity:     190.5717542
  energy:             20.8740855

- temperature:       110.0000000
  free_energy:       -10.3581221
  entropy:           301.3256654
  heat_capacity:     192.0825795
  energy:             22.7877011

- temperature:       120.0000000
  free_energy:       -13.4563366
  entropy:           318.0909694
  heat_capacity:     193.2444893
  energy:             24.7145797

- temperature:       130.0000000
  free_energy:       -16.7157458
  entropy:           333.5962089
  heat_capacity:     194.1564887
  energy:             26.6517613

- temperature:       140.0000000
  free_energy:       -20.1246341
  entropy:           348.0123873
  heat_capacity:     194.8850172
  energy:             28.5971002

- temperature:       150.0000000
  free_energy:       -23.6728307
  entropy:           361.4789010
  heat_capacity:     195.4759339
  energy:             30.5490044

- temperature:       160.0000000
  free_energy:       -27.3514316
  entropy:           374.1106302
  heat_capacity:     195.9616816
  energy:             32.5062693

- temperature:       170.0000000
  free_energy:       -31.1525812
  entropy:           386.0032210
  heat_capacity:     196.3657155
  energy:             34.4679664

- temperature:       180.0000000
  free_energy:       -35.0693015
  entropy:           397.2370600
  heat_capacity:     196.7053224
  energy:             36.4333693

- temperature:       190.0000000
  free_energy:       -39.0953548
  entropy:           407.8802970
  heat_capacity:     196.9934630
  energy:             38.4019016

- temperature:       200.0000000
  free_energy:       -43.2251338
  entropy:           417.9911696
  heat_capacity:     197.2400051
  energy:             40.3731001

- temperature:       210.0000000
  free_energy:       -47.4535715
  entropy:           427.6198101
  heat_capacity:     197.4525662
  energy:             42.3465886

- temperature:       220.0000000
  free_energy:       -51.7760680
  entropy:           436.8096644
  heat_capacity:     197.6371012
  energy:             44.3220582

- temperature:       230.0000000
  free_energy:       -56.1884290
  entropy:           445.5986174
  heat_capacity:     197.7983181
  energy:             46.2992530

- temperature:       240.0000000
  free_energy:       -60.6868152
  entropy:           454.0198942
  heat_capacity:     197.9399785
  energy:             48.2779594

- temperature:       250.0000000
  free_energy:       -65.2676993
  entropy:           462.1027874
  heat_capacity:     198.0651163
  energy:             50.2579976

- temperature:       260.0000000
  free_energy:       -69.9278298
  entropy:           469.8732491
  heat_capacity:     198.1762002
  energy:             52.2392149

- temperature:       270.0000000
  free_energy:       -74.6642001
  entropy:           477.3543763
  heat_capacity:     198.2752551
  energy:             54.2214815

- temperature:       280.0000000
  free_energy:       -79.4740219
  entropy:           484.5668125
  heat_capacity:     198.3639545
  energy:             56.2046856

- temperature:       290.0000000
  free_energy:       -84.3547027
  entropy:           491.5290807
  heat_capacity:     198.4436912
  energy:             58.1887307

- temperature:       300.0000000
  free_energy:       -89.3038254
  entropy:           498.2578629
  heat_capacity:     198.5156316
  energy:             60.1735334

- temperature:       310.0000000
  free_energy:       -94.3191320
  entropy:           504.7682346
  heat_capacity:     198.5807588
  energy:             62.1590207

- temperature:       320.0000000
  free_energy:       -99.3985078
  entropy:           511.0738640
  heat_capacity:     198.6399058
  energy:             64.1451287

- temperature:       330.0000000
  free_energy:      -104.5399684
  entropy:           517.1871807
  heat_capacity:     198.6937820
  energy:             66.1318012

- temperature:       340.0000000
  free_energy:      -109.7416483
  entropy:           523.1195207
  heat_capacity:     198.7429951
  energy:             68.1189888

- temperature:       350.0000000
  free_energy:      -115.0017902
  entropy:           528.8812502
  heat_capacity:     198.7880675
  energy:             70.1066473

- temperature:       360.0000000
  free_energy:      -120.3187363
  entropy:           534.4818727
  heat_capacity:     198.8294506
  energy:             72.0947378

- temperature:       370.0000000
  free_energy:      -125.6909198
  entropy:           539.9301222
  heat_capacity:     198.8675360
  energy:             74.0832254

- temperature:       380.0000000
  free_energy:      -131.1168578
  entropy:           545.2340433
  heat_capacity:     198.9026647
  energy:             76.0720787

- temperature:       390.0000000
  free_energy:      -136.5951444
  entropy:           550.4010621
  heat_capacity:     198.9351348
  energy:             78.0612698

- temperature:       400.0000000
  free_energy:      -142.1244456
  entropy:           555.4380476
  heat_capacity:     198.9652077
  energy:             80.0507734

- temperature:       410.0000000
  free_energy:      -147.7034932
  entropy:           560.3513657
  heat_capacity:     198.9931136
  energy:             82.0405667

- temperature:       420.0000000
  free_energy:      -153.3310804
  entropy:           565.1469276
  heat_capacity:     199.0190556
  energy:             84.0306291

- temperature:       430.0000000
  free_energy:      -159.0060576
  entropy:           569.8302314
  heat_capacity:     199.0432137
  energy:             86.0209419

- temperature:       440.0000000
  free_energy:      -164.7273280
  entropy:           574.4064000
  heat_capacity:     199.0657476
  energy:             88.0114880

- temperature:       450.0000000
  free_energy:      -170.4938445
  entropy:           578.8802142
  heat_capacity:     199.0867997
  energy:             90.0022519

- temperature:       460.0000000
  free_energy:      -176.3046060
  entropy:           583.2561424
  heat_capacity:     199.1064971
  energy:             91.9932195

- temperature:       470.0000000
  free_energy:      -182.1586550
  entropy:           587.5383675
  heat_capacity:     199.1249534
  energy:             93.9843777

- temperature:       480.0000000
  free_energy:      -188.0550741
  entropy:           591.7308102
  heat_capacity:     199.1422707
  energy:             95.9757148

- temperature:       490.0000000
  free_energy:      -193.9929842
  entropy:           595.8371507
  heat_capacity:     199.1585408
  energy:             97.9672197

- temperature:       500.0000000
  free_energy:      -199.9715417
  entropy:           599.8608481
  heat_capacity:     199.1738465
  energy:             99.9588824

- temperature:       510.0000000
  free_energy:      -205.9899366
  entropy:           603.8051572
  heat_capacity:     199.1882623
  energy:            101.9506936

- temperature:       520.0000000
  free_energy:      -212.0473904
  entropy:           607.6731448
  heat_capacity:     199.2018561
  energy:            103.9426449

- temperature:       530.0000000
  free_energy:      -218.1431547
  entropy:           611.4677036
  heat_capacity:     199.2146890
  energy:            105.9347282

- temperature:       540.0000000
  free_energy:      -224.2765089
  entropy:           615.1915651
  heat_capacity:     199.2268168
  energy:            107.9269363

- temperature:       550.0000000
  free_energy:      -230.4467590
  entropy:           618.8473115
  heat_capacity:     199.2382902
  energy:            109.9192624

- temperature:       560.0000000
  free_energy:      -236.6532362
  entropy:           622.4373862
  heat_capacity:     199.2491555
  energy:            111.9117001

- temperature:       570.0000000
  free_energy:      -242.8952955
  entropy:           625.9641037
  heat_capacity:     199.2594547
  energy:            113.9042436

- temperature:       580.0000000
  free_energy:      -249.1723144
  entropy:           629.4296583
  heat_capacity:     199.2692267
  energy:            115.8968874

- temperature:       590.0000000
  free_energy:      -255.4836918
  entropy:           632.8361326
  heat_capacity:     199.2785067
  energy:            117.8896265

- temperature:       600.0000000
  free_energy:      -261.8288467
  entropy:           636.1855046
  heat_capacity:     199.2873272
  energy:            119.8824560

- temperature:       610.0000000
  free_energy:      -268.2072178
  entropy:           639.4796547
  heat_capacity:     199.2957181
  energy:            121.8753716

- temperature:       620.0000000
  free_energy:      -274.6182617
  entropy:           642.7203722
  heat_capacity:     199.3037068
  energy:            123.8683690

- temperature:       630.0000000
  free_energy:      -281.0614528
  entropy:           645.9093608
  heat_capacity:     199.3113185
  energy:            125.8614445

- temperature:       640.0000000
  free_energy:      -287.5362820
  entropy:           649.0482440
  heat_capacity:     199.3185767
  energy:            127.8545942

- temperature:       650.0000000
  free_energy:      -294.0422559
  entropy:           652.1385704
  heat_capacity:     199.3255029
  energy:            129.8478149

- temperature:       660.0000000
  free_energy:      -300.5788964
  entropy:           655.1818177
  heat_capacity:     199.3321169
  energy:            131.8411032

- temperature:       670.0000000
  free_energy:      -307.1457400
  entropy:           658.1793974
  heat_capacity:     199.3384374
  energy:            133.8344563

- temperature:       680.0000000
  free_energy:      -313.7423367
  entropy:           661.1326584
  heat_capacity:     199.3444814
  energy:            135.8278711

- temperature:       690.0000000
  free_energy:      -320.3682497
  entropy:           664.0428910
  heat_capacity:     199.3502648
  energy:            137.8213450

- temperature:       700.0000000
  free_energy:      -327.0230552
  entropy:           666.9113296
  heat_capacity:     199.3558023
  energy:            139.8148755

- temperature:       710.0000000
  free_energy:      -333.7063410
  entropy:           669.7391567
  heat_capacity:     199.3611078
  energy:            141.8084603

- temperature:       720.0000000
  free_energy:      -340.4177067
  entropy:           672.5275051
  heat_capacity:     199.3661939
  energy:            143.8020970

- temperature:       730.0000000
  free_energy:      -347.1567631
  entropy:           675.2774611
  heat_capacity:     199.3710727
  energy:            145.7957835

- temperature:       740.0000000
  free_energy:      -353.9231314
  entropy:           677.9900665
  heat_capacity:     199.3757552
  energy:            147.7895178

- temperature:       750.0000000
  free_energy:      -360.7164433
  entropy:           680.6663216
  heat_capacity:     199.3802518
  energy:            149.7832980

- temperature:       760.0000000
  free_energy:      -367.5363399
  entropy:           683.3071870
  heat_capacity:     199.3845722
  energy:            151.7771222

- temperature:       770.0000000
  free_energy:      -374.3824721
  entropy:           685.9135857
  heat_capacity:     199.3887255
  energy:            153.7709888

- temperature:       780.0000000
  free_energy:      -381.2544997
  entropy:           688.4864050
  heat_capacity:     199.3927203
  energy:            155.7648962

- temperature:       790.0000000
  free_energy:      -388.1520911
  entropy:           691.0264986
  heat_capacity:     199.3965644
  energy:            157.7588427

- temperature:       800.0000000
  free_energy:      -395.0749233
  entropy:           693.5346879
  heat_capacity:     199.4002654
  energy:            159.7528270

- temperature:       810.0000000
  free_energy:      -402.0226812
  entropy:           696.0117639
  heat_capacity:     199.4038302
  energy:            161.7468476

- temperature:       820.0000000
  free_energy:      -408.9950574
  entropy:           698.4584886
  heat_capacity:     199.4072656
  energy:            163.7409032

- temperature:       830.0000000
  free_energy:      -415.9917522
  entropy:           700.8755961
  heat_capacity:     199.4105776
  energy:            165.7349925

- temperature:       840.0000000
  free_energy:      -423.0124730
  entropy:           703.2637945
  heat_capacity:     199.4137721
  energy:            167.7291143

- temperature:       850.0000000
  free_energy:      -430.0569340
  entropy:           705.6237666
  heat_capacity:     199.4168546
  energy:            169.7232676

- temperature:       860.0000000
  free_energy:      -437.1248564
  entropy:           707.9561715
  heat_capacity:     199.4198303
  energy:            171.7174511

- temperature:       870.0000000
  free_energy:      -444.2159677
  entropy:           710.2616455
  heat_capacity:     199.4227040
  energy:            173.7116638

- temperature:       880.0000000
  free_energy:      -451.3300016
  entropy:           712.5408028
  heat_capacity:     199.4254804
  energy:            175.7059048

- temperature:       890.0000000
  free_energy:      -458.4666980
  entropy:           714.7942373
  heat_capacity:     199.4281637
  energy:            177.7001731

- temperature:       900.0000000
  free_energy:      -465.6258025
  entropy:           717.0225226
  heat_capacity:     199.4307582
  energy:            179.6944678

- temperature:       910.0000000
  free_energy:      -472.8070665
  entropy:           719.2262138
  heat_capacity:     199.4332677
  energy:            181.6887880

- temperature:       920.0000000
  free_energy:      -480.0102466
  entropy:           721.4058473
  heat_capacity:     199.4356958
  energy:            183.6831329

- temperature:       930.0000000
  free_energy:      -487.2351050
  entropy:           723.5619426
  heat_capacity:     199.4380461
  energy:            185.6775017

- temperature:       940.0000000
  free_energy:      -494.4814087
  entropy:           725.6950024
  heat_capacity:     199.4403218
  energy:            187.6718936

- temperature:       950.0000000
  free_energy:      -501.7489299
  entropy:           727.8055134
  heat_capacity:     199.4425261
  energy:            189.6663079

- temperature:       960.0000000
  free_energy:      -509.0374454
  entropy:           729.8939471
  heat_capacity:     199.4446618
  energy:            191.6607439

- temperature:       970.0000000
  free_energy:      -516.3467368
  entropy:           731.9607605
  heat_capacity:     199.4467319
  energy:            193.6552009

- temperature:       980.0000000
  free_energy:      -523.6765900
  entropy:           734.0063962
  heat_capacity:     199.4487390
  energy:            195.6496783

- temperature:       990.0000000
  free_energy:      -531.0267955
  entropy:           736.0312838
  heat_capacity:     199.4506856
  energy:            197.6441755

- temperature:      1000.0000000
  free_energy:      -538.3971479
  entropy:           738.0358397
  heat_capacity:     199.4525741
  energy:            199.6386918
