4
Lattice="4.032437425081362 1.4744367460925815e-05 2.327861605172939 1.3447976741229004 3.801750271536575 2.3276152074452043 7.771387367410265e-05 5.982944976761963e-05 4.6557021495547035" Properties=species:S:1:pos:R:3:forces:R:3 structure_index=0 total_energy=-11.746597290039062 stress="0.0555482879281044 0.00031806837068870664 -0.00039481022395193577 0.0003181361826136708 0.05981886014342308 -0.0003921587485820055 -0.0003948831290472299 -0.00039216005825437605 0.05519738793373108" pbc="T T T"
Li       3.27722945       0.12338734       4.98396561       0.00046181      -0.00046218      -0.00070897
Li       1.93339279       2.02484201       2.65607742       0.00041491      -0.00199784      -0.00094374
Ga       0.58946602       1.07419176       4.98333946      -0.00059780      -0.00055348       0.00105917
Sn       3.27785165       2.97398662       4.98354185      -0.00027892       0.00301350       0.00059354
12
Lattice="3.9417659471218296 -0.004099041984335919 1.1294419235512732 1.120794404291918 6.996895948856082 3.558001301330871 -0.1555944823792967 -0.12455205222345485 7.986648507187804" Properties=species:S:1:pos:R:3:forces:R:3 structure_index=1 total_energy=-35.269683837890625 stress="0.030092040076851845 0.0011767898686230183 0.010605882853269577 0.001176868099719286 -0.0012259235372766852 -0.0022948370315134525 0.010605761781334877 -0.0022950053680688143 -0.0015779383247718215" pbc="T T T"
Li       2.21764163       3.33870768       9.41980573      -0.00144394       0.00864585       0.00293374
Li       2.43256636       0.41467607       8.65833247      -0.00098093       0.01086527       0.00373411
Li       3.21035397       1.15498240       5.94632601       0.00116375      -0.00091974      -0.00393420
Li       3.06383884       3.97995318       6.46817246       0.00080804      -0.00561984      -0.00272868
Li       4.02373162       1.78840629       3.10909265       0.00094634       0.00541445      -0.00192742
Li       4.50149851       5.21985742       8.89850642      -0.00179889       0.00354662       0.00752567
Ga       1.37847605       5.72380177       4.91351562       0.00210378      -0.01045006      -0.00819972
Ga       3.83815498       4.48385511       3.76605638       0.00061188      -0.00021836       0.00352900
Ga       1.57222395       2.93341065       4.22745409       0.00228782       0.00932002      -0.01153993
Sn       2.02381819       6.16917516      10.10717029      -0.00345913      -0.02079151       0.00815483
Sn       0.73979661       2.32218710       7.12953568      -0.00214519       0.00527095       0.00943294
Sn       1.78138318      -0.01799577       3.48566228       0.00190644      -0.00506364      -0.00698031
20
Lattice="6.868042997977257 0.023241036516951363 -1.7172646547780555 -3.4058870704092983 6.178167130499236 -1.7575303966637092 0.0031525213235804443 0.00451860450754391 8.61559576794732" Properties=species:S:1:pos:R:3:forces:R:3 structure_index=2 total_energy=-57.3013916015625 stress="0.018480202183127403 0.0012602192582562566 -9.394038352183998e-05 0.0012601930648088455 0.010746183805167675 0.004096630960702896 -9.393387153977528e-05 0.0040967026725411415 0.01674250140786171" pbc="T T T"
Li       1.73504441       1.53093475       3.30395898      -0.01112667      -0.01279861       0.00488567
Li       2.73571554       3.70696784       5.39765292      -0.00781558       0.00112092      -0.00521927
Li       6.56374954       0.44390811       6.41268863       0.01618722      -0.01855953      -0.00333979
Li       4.10637466       2.38931897      -1.07498132       0.00279523       0.00661804      -0.00471561
Li       5.13384900       1.94344822       1.61534686      -0.00740868      -0.00245663      -0.00034881
Li       6.50887271       0.13524923       3.36734056       0.01155929      -0.00102849       0.00502228
Li      -1.50697183       4.83789069       2.19301798      -0.01029316      -0.02485224      -0.01129982
Li       0.57035718       5.59070106       5.96153271      -0.00873009       0.00302923      -0.01177769
Li      -1.40720331       4.30308799      -0.88886038       0.00007099       0.03068349       0.00268482
Li       2.79176969       3.62580658       1.14545805       0.00062525       0.00002604       0.00797196
Ga       0.02478611       2.76318220       5.36816780       0.00447074       0.00634509      -0.00285052
Ga      -0.00502700       2.68523938       1.25873384       0.00622522      -0.01336527      -0.00578970
Ga       1.96017870       0.99560517       6.30173840       0.00437460      -0.00681474      -0.00712952
Ga       0.57092346       5.67447682       0.46668443      -0.01648904      -0.00602613       0.00712578
Ga       1.20743683       3.26905773      -0.99014150      -0.00679526       0.00614247       0.00312556
Ga       2.32021177       1.00975940       0.61110431       0.00691769       0.01188840       0.00453031
Sn       1.17203525       4.48408301       3.26050457      -0.01990319      -0.00045844      -0.00107826
Sn      -2.27294824       4.45982552       4.94252732       0.02322760       0.00519430      -0.02115404
Sn       3.18836826       5.68255341      -1.17138344       0.00056919      -0.00896566       0.03019349
Sn       4.36924024       1.44882745       4.74346455       0.01153862       0.02427776       0.00916314
9
Lattice="4.503147239542251 0.006164256653040955 1.4088270464072832 2.3027407299179883 5.146275735077849 0.5226740282765658 0.1381710386995041 0.15455503819546404 7.452127591495848" Properties=species:S:1:pos:R:3:forces:R:3 structure_index=3 total_energy=-26.86166763305664 stress="0.000997847644612193 0.001135133090429008 -0.00046481884783133864 0.0011352946748957038 -0.03480987623333931 -0.005454575642943382 -0.0004649008624255657 -0.005454611033201218 -0.00022500488557852805" pbc="T T T"
Li       1.56692961       1.76732630       3.00003765      -0.00714310      -0.02031570       0.02242764
Li       2.27925500       0.10144279       0.72867220       0.00623759       0.02267137      -0.01931020
Li       5.39444464       3.58721026       6.55868885       0.00026875      -0.00028689      -0.00186961
Ga       0.75768479       0.53276099       5.58898186      -0.00266980       0.04898401       0.00784139
Ga       4.43562122       1.92060505       1.73355134       0.00146121      -0.00250895      -0.01100607
Ga       3.22676910       1.49251802       5.59453665       0.00255280      -0.04861267      -0.00847711
Ga       6.21503545       5.10038118       3.93184904      -0.00199949       0.00465978       0.00587929
Sn       3.73809588       3.76365810       3.95286837      -0.00291767      -0.02453276       0.01012356
Sn       2.54803566       3.40770624       7.75229155       0.00420969       0.01994180      -0.00560888
8
Lattice="4.226246925339738 0.0008829643785831637 -1.4262420933986093 -0.48126118132438883 4.198899192243367 -1.4255575120771866 0.07810040828112699 0.08659117417964281 7.207885846018931" Properties=species:S:1:pos:R:3:forces:R:3 structure_index=4 total_energy=-21.938411712646484 stress="-0.013390160165727139 -0.0013055655872449279 -0.006550441961735487 -0.0013056558091193438 -0.014419871382415295 -0.007126444485038519 -0.006550516467541456 -0.007126449141651392 -0.029391204938292503" pbc="T T T"
Li       1.55836202       4.13006285      -1.74019832       0.00084448       0.00079120       0.00132117
Li       2.31759912       2.61111437       0.50811804       0.00716607       0.00836549       0.02125973
Li       1.36017234       1.53794994       4.64696710      -0.00755296      -0.00856448      -0.02157534
Li       0.44422598       0.51215000       1.93405223       0.00821445       0.00712482       0.02138104
Li       3.23288539       3.63680541       3.22079046      -0.00746612      -0.00690090      -0.02063238
Ga       0.66170887       3.12408111       2.57603855      -0.00739289      -0.00847738      -0.02078702
Ga       3.01587945       1.02514953       2.57921436       0.00737111       0.00825201       0.02098754
Sn       3.91312537       2.03172261      -1.73929372      -0.00118415      -0.00059074      -0.00195478
4
Lattice="4.33720248774389 0.001548531563570487 -0.0039097704499979295 -0.0018329924007857306 4.29064848929018 -0.002515395820544726 0.0032314906878732614 0.001264611042912036 4.2906576359738295" Properties=species:S:1:pos:R:3:forces:R:3 structure_index=5 total_energy=-12.15847396850586 stress="-0.09435341507196426 -0.0015827433671802282 -0.0030854917131364346 -0.0015827635070309043 0.06383651494979858 -0.003582374658435583 -0.003085446311160922 -0.003582462901249528 0.06391682475805283" pbc="T T T"
Li       3.45172430       1.90790650       0.82715675       0.00129462       0.00006270       0.00037645
Ga       1.28607539       1.90772747       2.97492459      -0.00021554       0.00010622      -0.00060848
Ga       1.28386410       4.05269182       0.82786988      -0.00103195      -0.00032192       0.00038671
Sn       3.45412909       4.05377846       2.97127056      -0.00004713       0.00015301      -0.00015470
18
Lattice="6.686287546224622 -0.03158620412538579 -1.4710360680353904 -2.298123860448394 6.675100841089124 -3.28041958030715 0.030670067243988165 0.01620501969649586 6.385620521022161" Properties=species:S:1:pos:R:3:forces:R:3 structure_index=6 total_energy=-47.95414733886719 stress="0.018690066412091255 -0.0014445679262280464 0.004572535399347544 -0.001444496912881732 0.009511280804872513 0.007949103601276875 0.004572424106299877 0.007948917336761951 -0.010016008280217648" pbc="T T T"
Li       4.38437048       4.04741677       0.60285945       0.00519474      -0.01096441       0.00659618
Li       4.38107156       6.19668454      -4.12412108       0.00190867      -0.00232072      -0.00195274
Li       2.09055051       6.27845427      -2.58285021      -0.00559923      -0.00873677       0.02408551
Li      -0.15922593       1.73987667      -0.92415944       0.00801727       0.01018894      -0.01939933
Li       2.22391874       4.09500453      -0.88106336       0.01057619       0.01657740       0.00767246
Li       4.42328496       1.89582137       2.27185351      -0.00763469      -0.00914158       0.00258478
Li       4.36184789       4.07872049      -2.46865596       0.02041656      -0.00224357       0.01037824
Li      -0.07529648       4.03902185       0.58780560       0.01470758       0.00493219      -0.01171558
Li       2.15036805       1.95924689       3.92197901      -0.01488416      -0.02828766      -0.00345535
Li       0.00956648       1.77658291       2.15308422       0.00677114      -0.01025241       0.00524642
Li      -0.06761279       6.35472186       2.07758682       0.00057015      -0.00231764      -0.00657139
Ga       2.18505131       1.81947191       0.61162227       0.00691579       0.00535830       0.00986744
Ga       2.17392901       6.32795713       0.63221578      -0.00207661       0.01820311       0.00281521
Ga       2.29570276       4.04649665       2.13663983       0.00229476       0.00669466      -0.01081773
Ga       4.34766853       6.27639092      -0.93456793       0.00183254       0.00659106       0.00079301
Ga      -0.10081828       6.43256447      -0.88889429      -0.03722184      -0.00496103      -0.01821594
Ga       4.36519684       1.82069946      -0.88432600      -0.01475445      -0.00175432      -0.01006862
Sn      -0.03861411       4.06903553       3.79544134       0.00296559       0.01243450       0.01215748
10
Lattice="4.249436018188523 0.0011807590439385943 9.463480862492032e-05 -0.001122274084202155 4.142409630445468 -0.8731531143253741 0.0003987406641062672 0.025838211938638358 10.382393638531513" Properties=species:S:1:pos:R:3:forces:R:3 structure_index=7 total_energy=-28.626401901245117 stress="-0.03040478192269802 3.683388786157593e-05 3.5547469451557845e-05 3.680495501612313e-05 0.013414540328085423 -0.008651826530694962 3.557521631591953e-05 -0.008651847019791603 -0.027522966265678406" pbc="T T T"
Li       2.07697824       1.08236820       8.78944673      -0.00015914       0.00197726       0.00398277
Li       4.19959759       3.96753425       1.94417201       0.00113465      -0.00122964      -0.00342377
Li       2.07582310       1.88341547       2.32483477       0.00008927      -0.00115659      -0.00686494
Li       4.20089994       2.33886877       4.48136763       0.00006063      -0.00453434      -0.01954387
Li       2.07604542       3.51913411      -0.17877937      -0.00062206      -0.00041002       0.00012194
Ga       2.07710084       2.75897052       6.48382556      -0.00103641      -0.00038046      -0.01000920
Ga       4.20140012       0.67760598       6.86270733       0.00067568      -0.00145773      -0.00392648
Ga       4.20163336       3.13181280       8.24099489      -0.00017461       0.00246683       0.01562841
Sn       2.07660750       0.23789197       4.78229788      -0.00050621       0.00400738       0.01759654
Sn       4.20088226       1.48093667       0.41006516       0.00053821       0.00071731       0.00643858
12
Lattice="5.710528310877791 0.019545984499176713 -0.09136104112490746 -2.778726006587288 4.988596659520083 0.1008897036223598 -0.06771023646929047 0.056373339288388155 8.932319004402528" Properties=species:S:1:pos:R:3:forces:R:3 structure_index=8 total_energy=-36.0847282409668 stress="0.025855056941509247 -0.004031633026897907 -0.00491805374622345 -0.004031733144074678 0.022330747917294502 0.002837315434589982 -0.004918023478239775 0.002837282605469227 0.007626521401107311" pbc="T T T"
Li       2.55454056       4.11921207       1.78772313       0.00652861      -0.00161028      -0.00082703
Li      -0.24046068       2.40967588       6.46014446      -0.00370099       0.00147607       0.00269111
Ga       1.11476253       1.61010275       3.68218156       0.00244703      -0.00173699      -0.02282073
Ga      -1.73420845       3.28625133       8.63301730       0.00124563       0.00052020       0.00237697
Ga       3.95704759       1.51367259       1.70693249      -0.00471586       0.00225847       0.01729859
Ga      -0.19339448       4.15770714       1.79667347      -0.00891463       0.00376586       0.01015705
Ga      -1.63730100       5.01757541       6.53241074       0.00117200      -0.00402196      -0.02110731
Ga       2.50891445       2.37379276       6.44481941       0.00661768      -0.00054209      -0.01343381
Ga       1.19898641       4.92114918       4.55860938       0.00105944      -0.00009545       0.02491623
Sn      -1.69480232       3.25298325       4.16711030      -0.00111088       0.00053436       0.00148456
Sn       1.07397635       1.62617764       0.47282771       0.00202915      -0.00230922      -0.00241527
Sn       1.24343290       4.90519884       7.76931008      -0.00265717       0.00176101       0.00167962
4
Lattice="4.27462309507009 0.00030122448277961403 -0.0007991713010257681 -0.0008885510710145486 4.274582717647965 0.0005309577526482772 0.00047479279623645793 -0.0003134194997684494 4.366034333272098" Properties=species:S:1:pos:R:3:forces:R:3 structure_index=9 total_energy=-12.158624649047852 stress="0.014029507525265217 -0.0017762411152943969 -0.0016478865873068571 -0.0017762401839718223 0.01372950803488493 0.001092590275220573 -0.0016479494515806437 0.001092509482987225 0.09265642613172531" pbc="T T T"
Li       0.08446739       0.33606715       1.98135405      -0.00047500      -0.00022718       0.00038598
Ga       0.08399368       2.47361476       4.16496444      -0.00002617       0.00031532      -0.00072639
Ga       2.22179347       0.33717204       4.16425748       0.00012079      -0.00258389      -0.00061692
Sn       2.22105071       2.47325412       1.98123224       0.00038039       0.00249574       0.00095732
6
Lattice="4.460469241703958 -0.0005776726291092887 -0.002297475724120317 0.0007148079152390516 4.657624551225368 -0.0021971227660609414 0.001346621546665128 0.0016321235404567476 6.610499142742931" Properties=species:S:1:pos:R:3:forces:R:3 structure_index=10 total_energy=-18.459495544433594 stress="-0.052434779703617096 0.0002528516633901745 0.0005950649501755834 0.0002528158074710518 -0.03618942201137543 -7.054342131596059e-05 0.0005953648360446095 -7.055319292703643e-05 -0.05681956559419632" pbc="T T T"
Li       3.49746930       3.42758063       5.06346740      -0.00102474      -0.00134054      -0.01310911
Li       3.48948096       1.09894837       2.99889689       0.00133047      -0.00255302       0.01553766
Ga       1.26497845       3.42472808       3.16886639       0.00276187       0.00193220       0.00878068
Ga       3.49388982       1.09798228       6.60871974      -0.00039781       0.00110180      -0.02375102
Sn       3.49622066       3.42586378       1.44320235      -0.00460320       0.00062938       0.04801719
Sn       1.26300514       1.09706448       4.94025172       0.00193343       0.00023019      -0.03547539
8
Lattice="4.733148198215671 -0.0010331281813369816 0.0007254670530160146 0.002299693838190942 5.00946935018514 -2.8880400913385427 -0.0010041273599845685 0.001983021186885653 5.782741689129205" Properties=species:S:1:pos:R:3:forces:R:3 structure_index=11 total_energy=-20.48432159423828 stress="0.006146721541881561 0.0015863549197092652 0.0012502961326390505 0.0015863128937780857 -0.018408456817269325 0.00025511736748740077 0.001250443048775196 0.0002550831122789532 -0.02348451502621174" pbc="T T T"
Li       3.39294715       3.20315795       2.12686288      -0.00184609      -0.02155114       0.03965620
Li       3.39063976       0.60696922       3.62325503       0.00070116       0.04665363      -0.00037004
Li       1.02702984       4.07579335      -2.16023415      -0.00099965       0.03652149      -0.00445606
Li       1.02650544       1.47085922      -0.66137585      -0.00296943      -0.01978107       0.03596988
Li       1.02624511       1.47030630       2.11647816      -0.00244001      -0.01419065      -0.03418989
Li       3.39205966       3.20179296      -0.65790556       0.00083106      -0.02246591      -0.04381965
Ga       3.39060376       0.66793246       0.73244743       0.00348787      -0.00123652      -0.00181111
Sn       1.02536105       4.00969031       0.72887779       0.00323509      -0.00394986       0.00902065
10
Lattice="2.9759900314324446 -0.0001305782314387659 -0.00014573885577659292 0.00037568026394250504 8.366268206470885 -0.00017602306956447108 0.0004109694990752154 0.0059315022236063 8.4053242961456" Properties=species:S:1:pos:R:3:forces:R:3 structure_index=12 total_energy=-30.957782745361328 stress="-0.005346666555851698 -4.010474583537871e-07 -2.330349616386229e-06 -9.643119369684428e-08 -0.0063339523039758205 -6.559649818882463e-07 -2.1899263629165944e-06 -6.702251198476006e-07 -0.005178866442292929" pbc="T T T"
Li       2.38050802       1.70960102       5.58661881       0.00000513       0.00358535       0.02028588
Li       2.38083305       5.95550384       7.90647434      -0.00000683      -0.00587059       0.01135229
Li       2.38054470       3.67092096       3.77367338      -0.00001814      -0.00357508      -0.02028544
Li       2.38059676       7.79131407       1.45360956      -0.00000701       0.00583870      -0.01135060
Ga       0.89233014       2.68733633       0.47757970      -0.00000461      -0.00000045      -0.00003389
Ga       0.89266989       6.87344193       4.68013790       0.00003347      -0.00001624      -0.00003320
Sn       0.89237886       1.18863540       3.10384452       0.00000083      -0.02292608       0.00409477
Sn       0.89267535       4.19198266       6.25662708      -0.00000446       0.02293335      -0.00411973
Sn       0.89290520       8.44810969       7.36937036       0.00000583      -0.02596614      -0.01022655
Sn       0.89252371       5.29879613       1.99084775      -0.00000416       0.02599717       0.01031645
9
Lattice="4.565077630213944 0.0019989685338966125 -0.0025189055318025648 -2.283934255770004 6.449900629515547 -2.0369340165711476 0.0021779458077758503 -0.1344797815839263 7.183095028002519" Properties=species:S:1:pos:R:3:forces:R:3 structure_index=13 total_energy=-29.65567398071289 stress="0.02122473530471325 0.001073489198461175 -0.0003982124908361584 0.0010735060786828399 0.00722566619515419 0.0016966217663139105 -0.00039806810673326254 0.0016967012779787183 0.03179376199841499" pbc="T T T"
Li       3.65419780       0.57837342       2.57687446      -0.00000488       0.01812147       0.00974688
Li      -0.91359327       6.31605197      -1.75875097       0.00076047      -0.01847262       0.00087956
Ga       3.65179443       1.97938814      -0.16113096       0.00017010      -0.00512271      -0.02241481
Ga       1.36991411       1.29589938       4.83754074       0.00101841       0.00799240      -0.01903032
Sn       1.36994845       2.46149139       1.85560516       0.00038276      -0.01252674      -0.01901876
Sn       1.37012053       5.76506597       3.36755225       0.00069914       0.01799257       0.00556047
Sn       1.37092517       4.21113998      -0.94625178      -0.00125917      -0.00446252       0.00763959
Sn      -0.91218946       3.32034582       4.03831647       0.00001840       0.00716860       0.00010134
Sn      -0.91044842       5.01039601       1.13834186      -0.00178526      -0.01069046       0.03653603
8
Lattice="4.30225394639072 0.0008780244970805117 -0.0017318411685415354 -0.0008640893684015552 4.302294392349388 -0.00212834468343961 0.0018527093441924936 0.002162110300471051 8.458205069094584" Properties=species:S:1:pos:R:3:forces:R:3 structure_index=14 total_energy=-23.325950622558594 stress="-0.0020534605719149113 5.170824806555174e-05 0.00012157509627286345 5.173076715436764e-05 -0.0021246292162686586 5.1073962822556496e-05 0.00012149384565418586 5.0924805691465735e-05 0.002521294169127941" pbc="T T T"
Li       0.62861260       2.89632559       7.10293862      -0.00061332      -0.00014735      -0.00051850
Ga       0.62772544       0.74295456       0.57800863      -0.00064643       0.00082455      -0.01815861
Ga       2.77949369       0.74590063       7.09854777       0.00057238      -0.00085379       0.00935551
Ga       0.62735841       0.74469454       5.17156532       0.00042799      -0.00085257       0.01391210
Ga       2.77755129       0.74436381       2.87126265       0.00199289      -0.00087637       0.00000683
Ga       2.77885968       2.89543938       5.16963201      -0.00011290       0.00124272       0.01392904
Ga       2.77816379       2.89565880       0.57572539       0.00003107      -0.00027867      -0.01742561
Sn       0.62691373       2.89468949       2.87554615      -0.00165170       0.00094145      -0.00110076
10
Lattice="3.294326812790632 0.0006285084719921298 0.0003901522891505237 -0.0006292343785257255 3.2943300342440285 9.983437860409745e-05 -0.0018576809376853823 -0.0002150102293557238 17.984635082572" Properties=species:S:1:pos:R:3:forces:R:3 structure_index=15 total_energy=-30.93844223022461 stress="-0.023870758712291718 -1.4798391930526122e-05 -8.222916221711785e-06 -1.4807900697633158e-05 -0.023829855024814606 -0.00012213144509587437 -8.169402462954167e-06 -0.00012233154848217964 -0.01610925979912281" pbc="T T T"
Li       2.72591264       2.11489366      17.13263208      -0.00038646       0.00138209      -0.03688004
Li       2.72704857       2.11556998       2.86608038      -0.00077385      -0.00176546      -0.00349586
Li       2.72648727       2.11584353      14.17587893       0.00021856       0.00079494       0.03065281
Li       2.72565613       2.11360214       6.66413083       0.00043927       0.00033957       0.00520249
Li       2.72590502       2.11349482      10.45894386       0.00100350       0.00241852       0.01091318
Ga       1.07930442       0.46870941      15.64981284       0.00012280      -0.00199076       0.00991290
Sn       1.07913364       0.46592006       4.77845769       0.00052363       0.00169217      -0.00727303
Sn       1.08008399       0.46750431       0.97296664       0.00075369       0.00058279       0.04557579
Sn       1.08032263       0.46871173      12.35165897      -0.00149049      -0.00220075      -0.04810029
Sn       1.07922887       0.46695774       8.55425828      -0.00041068      -0.00125311      -0.00650797
14
Lattice="5.343881363464118 0.06256895358555457 -1.5056287456805433 -0.9173859703333571 5.1472320237631495 -1.2815414540581227 -0.03227956276586325 0.152184562718064 9.791568455682045" Properties=species:S:1:pos:R:3:forces:R:3 structure_index=16 total_energy=-40.69929504394531 stress="0.011017516255378723 -0.00016735182725824416 -0.0013306383043527603 -0.00016727251932024956 0.014106565155088902 -0.0021443357691168785 -0.001330433413386345 -0.0021445152815431356 0.013983309268951416" pbc="T T T"
Li       4.45664650       1.42232504       0.84075143       0.00483277       0.01255674      -0.00704860
Li       2.47405642       3.41996972       5.87535046       0.00296206       0.00397322       0.00605978
Li       4.48328884       3.78972530      -1.61727228      -0.01524931      -0.00589741       0.00467566
Li       1.28635717       0.50778111       5.71675300       0.00572525      -0.00006035       0.00028768
Li       3.93325406       0.40118229       4.89163066      -0.00056772       0.01134740      -0.01059102
Li       1.57211884       1.95817686       0.41395746       0.00830763      -0.00716857       0.00289362
Ga       0.43869996       2.36163301       7.66980988      -0.01165624       0.00518053       0.00183241
Ga       1.59022333       3.06855012       3.18047632       0.03787872      -0.02629123       0.01324519
Ga       1.84279973       4.37071066      -1.08863729      -0.00763990       0.00372260       0.00257362
Ga      -0.39493916       4.90862059       7.10631233      -0.00935238       0.00354302       0.00610920
Ga       3.68017182       4.13148190       1.03732577      -0.01615379       0.00710436      -0.00707532
Sn       4.64495588       2.92370566       3.49654660       0.02238608       0.01972094      -0.01724173
Sn       3.43317275       1.22187774       7.79818772      -0.00707430       0.00229918      -0.00369013
Sn       1.82943920       0.20972872       2.79007199      -0.01439884      -0.03003043       0.00796966
6
Lattice="4.557521887721519 0.0027434319864861347 0.0002602707473445595 -2.281202521300113 3.9492262882146196 -0.0004505801050470219 4.078905571988571e-05 0.0002429906979150035 7.464185235826889" Properties=species:S:1:pos:R:3:forces:R:3 structure_index=17 total_energy=-18.662336349487305 stress="-0.05508236587047577 0.0006643249071203172 -0.00020605517784133554 0.0006644729292020202 -0.057369548827409744 9.059964213520288e-06 -0.00020604312885552645 8.829024409351405e-06 -0.030871694907546043" pbc="T T T"
Li       1.11729884       3.44893530       1.38220159       0.00153141       0.00722441      -0.03611956
Li       1.11821021       3.47264106       5.11416446      -0.00003380      -0.00783733      -0.03686433
Ga      -1.15984661       2.14770946       4.29372828       0.00015703       0.00153427       0.02009033
Ga       1.12004042       0.82142122       0.56014544      -0.00149495      -0.00113851       0.03018973
Sn      -1.15948492       2.13832595       7.11745852      -0.00038773       0.00143592       0.00882977
Sn       1.11972585       0.83091556       3.38470824       0.00022807      -0.00121876       0.01387409
6
Lattice="3.2500498284852624 0.00011391007242204763 -0.00041120830054123354 -0.00013113848163117322 3.2500405391826015 -0.0001533210841029751 0.0009201049897994478 0.00022837250878900888 10.676253008308977" Properties=species:S:1:pos:R:3:forces:R:3 structure_index=18 total_energy=-18.178529739379883 stress="-0.03496015816926956 -8.420189988100901e-05 -0.0014438990037888288 -8.424573024967685e-05 -0.03504212200641632 2.270280492666643e-05 -0.0014438566286116838 2.2691227059112862e-05 0.06885980814695358" pbc="T T T"
Li       3.00967488       1.46736476       9.03905057       0.00009930      -0.00002157      -0.00345387
Li       3.00945407       1.46708587       2.21227425      -0.00020247       0.00003834       0.00004350
Li       3.00971576       1.46698840       6.06060672      -0.00011276       0.00004219       0.00463590
Ga       1.38457793       3.09212255       7.55007617       0.00007529       0.00005442      -0.00022679
Sn       1.38371167       3.09240125       0.26310127       0.00044701      -0.00048595       0.00511762
Sn       1.38468538       3.09174777       4.16159947      -0.00030637       0.00037256      -0.00611637
4
Lattice="4.129900393940218 -0.00020250200343343143 2.386068190658876 1.3742408455587403 3.8922475322289705 2.3834417248965005 0.0005681185924392347 -0.0001656979685826273 4.769416723390301" Properties=species:S:1:pos:R:3:forces:R:3 structure_index=19 total_energy=-11.497342109680176 stress="0.10214368999004364 0.005004612263292074 -0.008569742552936077 0.005004864651709795 0.08280688524246216 0.00516931526362896 -0.008569859899580479 0.005169460084289312 0.08309803903102875" pbc="T T T"
Li       2.81983711       1.93471541       3.57105539       0.00052910      -0.00040499      -0.00132452
Li       1.44431001       0.96161643       5.95390256       0.00010785      -0.00049243       0.00125426
Ga       4.19678104       2.90716298       5.95555124      -0.00210839       0.00191857      -0.00182289
Sn       1.44238872       3.88075715       5.95304670       0.00147145      -0.00102113       0.00189314
12
Lattice="4.305307317260231 -0.00010633792093172367 -1.2807429387566747 -0.8261210499500751 5.742341402233584 -2.77353881265233 -0.022061821557746532 0.16110269695458787 7.799651480876458" Properties=species:S:1:pos:R:3:forces:R:3 structure_index=20 total_energy=-33.365360260009766 stress="0.003968541510403156 -0.012570285238325596 -0.0009699668153189123 -0.01257030013948679 0.005556309130042791 -0.023213587701320648 -0.0009700388764031231 -0.023213529959321022 -0.009740176610648632" pbc="T T T"
Li       1.70915803       1.71389243       3.07527298       0.00372203       0.01411035       0.01165397
Li       2.89907149       3.60911475      -0.80046739      -0.00382699       0.00937113      -0.01368283