20
Lattice="6.949561646564683 0.10111080538989 -0.43577310444270356 -0.3701206669942004 7.039307345866344 -0.06093467493526607 0.2017467452871608 0.031423306275654865 8.94638891623072" Properties=species:S:1:pos:R:3:forces:R:3 structure_index=0 total_energy=-65.031005859375 stress="0.0008314736187458038 0.008464645594358444 0.01101105660200119 0.008464716374874115 -0.004604744724929333 0.005706451833248138 0.01101104449480772 0.005706468131393194 -0.0006134840659797192" pbc="T T T"
Li       1.16463446       3.07839973       8.61994156      -0.02098574       0.00678616       0.03768661
Li       2.56618703       0.15569642       4.13506135      -0.00748498      -0.00812871      -0.01317896
Li       6.59178023       5.86927321       8.27794837       0.00326747      -0.00487280      -0.00062990
Li       3.73419990       4.39325466       4.00313602       0.00751216       0.00395299       0.01850465
Li       4.21235926       6.69925237       1.62874532       0.01714707       0.01117272       0.01497553
Li       0.48083710       0.88104033       6.38352692      -0.03024270      -0.00961114      -0.03627538
Li       0.94011553       3.04180339       4.13550302      -0.01267505       0.00640965       0.00048115
Ga       5.81621773       3.81254477       1.63377849       0.00852127      -0.01694659      -0.03940702
Ga       3.04514960       2.37436930       6.19901792       0.04388611       0.00899079       0.01518624
Ga       5.83335603       3.69372693       6.13911282       0.00849281       0.00039377      -0.01153569
Ga       3.07112029       2.34051442       1.88559646       0.02195179       0.01087282      -0.02519853
Sn       1.57597013       5.05643451       6.33232997      -0.02206934      -0.00244133      -0.00060729
Sn       5.15478376       1.78249169       3.93420599      -0.00316944       0.00182474      -0.00344213
Sn       3.91836529       4.40506636       8.53707621      -0.02847550      -0.01959197      -0.02293065
Sn       2.57943927       0.38261453       8.57056514       0.02171135      -0.01084687       0.00373262
Sn       6.38014180       5.87535860       3.72221242       0.00717473      -0.02130111       0.01231212
Sn       1.63567336       5.04919734       1.88333831       0.00185625       0.01329217       0.01105859
Sn       0.37047744       0.93886295       2.06866582       0.01164892       0.00562971       0.00982196
Sn       5.45594583       1.60954374       8.30939752       0.01153094       0.00203792       0.03131018
Sn       4.41588737       6.48165258       6.07186635      -0.03959810       0.02237708      -0.00186407
10
Lattice="4.765475707372123 0.0014887374627146307 -0.00019570992507957899 -2.3841262382947055 4.126092686272234 0.0003509172598179019 0.0002556013678135905 -0.0016401833244112057 12.35065863293753" Properties=species:S:1:pos:R:3:forces:R:3 structure_index=1 total_energy=-33.974483489990234 stress="0.008215236477553844 5.6686180869292e-06 -1.9817216525552794e-05 5.687095381290419e-06 0.008162666112184525 -3.1432857213076204e-05 -1.996304126805626e-05 -3.124201248283498e-05 -0.023972483351826668" pbc="T T T"
Li       3.03542377       0.02479725      12.03136348       0.00018274      -0.00030739       0.03659420
Li       3.03448497       2.77751080       1.43868803       0.00005576      -0.00021489       0.02089094
Li       3.03601026       0.02570069       6.14629591      -0.00072157       0.00048718      -0.04571167
Ga       3.03491091       2.77688328       4.18158204      -0.00153192       0.00169000      -0.00236997
Sn       3.03540033       0.02570411       2.63135377      -0.00002629       0.00033019       0.01761588
Sn       0.65263582       1.39995803       7.92988692       0.00098305      -0.00071438      -0.03708280
Sn       0.65225442       1.40119247       0.53999632      -0.00018848      -0.00002461      -0.00954363
Sn       3.03642492       0.02459435       9.17801711      -0.00087127       0.00066056      -0.00578394
Sn       3.03456188       2.77559282      10.94055873      -0.00006703       0.00044290      -0.00746827
Sn       0.65178782       1.40146675       4.96942128       0.00218501      -0.00234955       0.03285928
12
Lattice="5.227131863163447 0.0005128644850238394 0.0028845803232896944 -0.00047832408160005817 5.59641506810676 -0.0023357336650881603 -0.004397240956896934 0.0026873929438158517 8.04811169281394" Properties=species:S:1:pos:R:3:forces:R:3 structure_index=2 total_energy=-35.56543731689453 stress="0.012845374643802643 9.429826604900882e-05 -0.00039337307680398226 9.432041406398639e-05 0.027676373720169067 0.00012933870311826468 -0.00039329490391537547 0.00012920370500069112 0.009953907690942287" pbc="T T T"
Li       5.11410385       2.54899636       3.63969220      -0.00007705       0.00146678      -0.00086483
Li       5.11400796       5.35363369       3.63717506      -0.00030783      -0.00146835       0.00104176
Li       2.49794665       5.33386525       7.98652866      -0.00011403       0.00836198      -0.00282766
Li       2.49771290       2.57149216       7.98666463       0.00001558      -0.00894188      -0.00144743
Li       2.49978359       1.14655108       5.23745083      -0.00006174       0.00369080      -0.00432178
Li       5.11260318       1.15421346       6.49146353      -0.00002333      -0.00050298       0.03382423
Ga       3.80956997       3.94823091       5.87433180       0.00212980       0.00077676      -0.02638721
Ga       5.11538604       1.15363584       1.10155533      -0.00007143       0.00024681      -0.03660458
Ga       1.18863209       3.95232928       5.87325831      -0.00200303      -0.00046317      -0.02687159
Sn       5.11531651       3.95189606       0.46677359       0.00016960      -0.00178352      -0.00914532
Sn       2.50067780       3.95211748       3.21288413       0.00004250      -0.00136185       0.04431865
Sn       2.50092806       1.15367742       2.44207272       0.00030095      -0.00002140       0.02928581
8
Lattice="4.290684635649997 0.007114602536009392 1.350765453623712 1.6440083296253853 4.498774576825744 2.2526206263324102 0.1184587895202024 0.418917254973296 7.1190889055971915" Properties=species:S:1:pos:R:3:forces:R:3 structure_index=3 total_energy=-22.250688552856445 stress="0.0037102047353982925 -0.00994250550866127 0.005734244827181101 -0.009942382574081421 0.010428684763610363 0.04510066658258438 0.005734702572226524 0.04510048031806946 -0.0022030253894627094" pbc="T T T"
Li       3.62736545       0.75572190       2.58363203       0.00392176      -0.00632458      -0.01353146
Li       0.27637027       0.59798452       5.74169994       0.00566854      -0.00124911      -0.01569230
Li       2.79408514       1.56629955       5.23009751       0.00006323      -0.00062180       0.00001397
Li       1.02130413       2.52637008       3.36741506      -0.00574741       0.00109169       0.01577774
Li       1.96063542       2.37468993       7.87734820      -0.00361912       0.00773969       0.01242659
Ga       2.70459943       4.30031494       5.50257054      -0.00025044       0.01573391       0.00912802
Ga       4.52781914       3.33050723       7.20936450       0.00003779      -0.01629688      -0.00809756
Sn       3.55704336       3.60537285       2.79647224      -0.00007433      -0.00007294      -0.00002500
9
Lattice="4.170627914107001 -0.0014348401461494976 1.2180717900782154 1.9026197878658349 5.215770326668751 1.2066413544793038 -0.03806047895541661 0.14135028211427944 7.894908719592942" Properties=species:S:1:pos:R:3:forces:R:3 structure_index=4 total_energy=-27.17226791381836 stress="-0.01932660862803459 0.009426609613001347 -0.004460433963686228 0.009426703676581383 0.0016351487720385194 -0.03392054885625839 -0.004460430704057217 -0.033920761197805405 -0.00450114207342267" pbc="T T T"
Li       2.10681550       4.83657745       7.24454774       0.00113141       0.04406910      -0.00583283
Li       3.65155967       0.95205934       1.95415207      -0.00097583      -0.04491580       0.00320224
Ga       4.26597565       2.87412780       7.61194684      -0.00424127       0.03008041       0.01411782
Ga       3.62813585       4.35200863       2.01750959      -0.00015598      -0.02245799       0.00096672
Ga       2.13079013       1.43559297       7.17591909       0.00014240       0.02188805      -0.00037642
Ga       1.05941050       0.69064425       3.08948026       0.00395882      -0.03025386      -0.01408179
Ga       4.69827668       5.09793301       6.10646705      -0.00291135       0.03076669       0.01199196
Ga       1.49433211       2.91194600       1.57650481       0.00351910      -0.02902688      -0.01105673
Sn       2.88028633       2.89479422       4.59524091      -0.00046731      -0.00014972       0.00106903
4
Lattice="4.039799414699094 9.096932906575008e-06 2.332154863808689 1.346449432909319 3.8089631148681034 2.3325952957572516 -2.314533927300813e-05 -4.140431715371625e-05 4.664532553321984" Properties=species:S:1:pos:R:3:forces:R:3 structure_index=5 total_energy=-12.011094093322754 stress="0.026377832517027855 -0.00034385849721729755 0.00017386925173923373 -0.000343916704878211 0.028688928112387657 0.0004959400976076722 0.0001736220729071647 0.0004959759535267949 0.02534891664981842" pbc="T T T"
Li       4.31632359       1.78008851       7.40434703       0.00015830      -0.00010680      -0.00063620
Li       2.96935683       3.68477788       5.07223923       0.00048473      -0.00043784      -0.00053393
Ga       1.62340437       2.73369151       2.74050686      -0.00043570      -0.00133679      -0.00065517
Sn       2.96975658       0.82697252       5.07100991      -0.00020734       0.00188143       0.00182531
8
Lattice="4.397349447607977 0.0012353519230009506 0.0002756331551559706 -2.1997807318080294 3.807542603095372 -0.0008688752469053693 -0.00021776838887670096 0.001293417568277002 9.447410859706046" Properties=species:S:1:pos:R:3:forces:R:3 structure_index=6 total_energy=-23.299087524414062 stress="0.029060157015919685 4.9200563807971776e-05 -0.00020030605082865804 4.9400157877244055e-05 0.029231861233711243 0.00015528772200923413 -0.0002001225366257131 0.0001550048909848556 0.036806896328926086" pbc="T T T"
Li       3.60465365       1.17075552       7.43721081       0.00017952      -0.00024335       0.02213366
Li       3.60496975       1.16947255       1.01616949       0.00023788      -0.00011816       0.00919503
Li       3.60540020       1.16942650       3.92773654      -0.00017236       0.00017565      -0.02258658
Ga       1.40704893       2.43697757       2.44735956      -0.00031982       0.00043135      -0.02234606
Ga       1.40568072       2.43961317       9.31978918      -0.00024947       0.00007304      -0.02519202
Ga      -0.79306351       3.70769517       6.14304478      -0.00009218       0.00007354       0.01001878
Ga      -0.79345190       3.70840564       8.82787642       0.00033620      -0.00027253       0.02511724
Sn       1.40605899       2.43872354       5.24446696       0.00008025      -0.00011958       0.00365998
10
Lattice="3.3996089883454617 0.000416944685190487 -0.0004980208846641123 -0.00017058655666608597 3.399588328635767 -0.0006281738604867613 0.005603891156772676 0.0066595736523324565 17.022334757270304" Properties=species:S:1:pos:R:3:forces:R:3 structure_index=7 total_energy=-31.547142028808594 stress="0.00467172684147954 0.0007221103878691792 0.0019951490685343742 0.000722131400834769 0.00462340097874403 0.002354501513764262 0.00199530809186399 0.0023542908020317554 -0.004287370480597019" pbc="T T T"
Li       0.77468829       1.70903771      15.00320199       0.00065439       0.00056754      -0.00472494
Li       0.77277105       1.70556591       5.11299931      -0.00081888      -0.00079994      -0.00312928
Li       0.77399938       1.70684108      11.48728046       0.00003074       0.00029182       0.03970027
Li       0.77085850       1.70433044       1.54200196       0.00018678       0.00000766       0.00222884
Li       0.77328339       1.70546594       8.62578944      -0.00039085      -0.00026131      -0.04356672
Ga       2.47342676       0.00627426      10.05651095       0.00010103       0.00042081      -0.00103565
Sn       2.47443980       0.00890785      13.19814688      -0.00024512      -0.00072852       0.00741172
Sn       2.47130847       0.00499649       3.31147372       0.00038086       0.00036925       0.01613510
Sn       2.47215942       0.00513412       6.90889323       0.00079308       0.00080148       0.00237319
Sn       2.47615142       0.01109168      16.79873758      -0.00069201      -0.00066878      -0.01539250
5
Lattice="3.8382000739940367 0.04319748721765575 1.645023996893622 1.8970800517691657 4.938790599003556 0.7477279942555661 0.03288072529661815 0.060960080630380255 5.2660138189107935" Properties=species:S:1:pos:R:3:forces:R:3 structure_index=8 total_energy=-15.510375022888184 stress="-0.03911793977022171 0.00594482384622097 0.0062228478491306305 0.005944926291704178 -0.02826296165585518 0.012414522469043732 0.006222790572792292 0.012414518743753433 0.010735150426626205" pbc="T T T"
Li       1.86711677       0.54524313       2.94034569       0.00374924      -0.00388863      -0.00588350
Ga       2.58364423       4.44735052       1.14233853       0.00871001      -0.01140231      -0.00798617
Ga       1.48862785       3.51515870       3.76692140      -0.00893494       0.01315207      -0.00237202
Ga       4.13581508       2.62459926       2.88248529      -0.00388318       0.00346201       0.01103249
Sn       3.01611358       1.54673269       5.55061075       0.00035887      -0.00132312       0.00520920
3
Lattice="3.925277471542359 0.0 2.2691686153411865 1.3067503384263552 3.7004245507293994 2.269842147827148 0.0 0.0 4.532672882080078" Properties=species:S:1:pos:R:3:forces:R:3 structure_index=9 total_energy=-9.717023849487305 stress="0.08814045041799545 -0.003537246258929372 0.013822410255670547 -0.0035372276324778795 0.08250240981578827 0.011653476394712925 0.013822480104863644 0.011653384193778038 0.09213801473379135" pbc="T T T"
Li       3.18983995       1.50805313       2.69518791      -0.00136805      -0.00116550      -0.00061383
Ga       1.88044403       0.58187490       4.95992408      -0.00046370      -0.00027131      -0.00241010
Sn       1.87868523       3.35693597       4.96143834       0.00183174       0.00143682       0.00302393
7
Lattice="4.370416876295366 0.0014051158938154788 1.5101233496935342 1.923127046784627 3.9245804214978692 1.5107700025857593 -0.03225565253990637 -0.019207532595773028 7.165417143802509" Properties=species:S:1:pos:R:3:forces:R:3 structure_index=10 total_energy=-19.533145904541016 stress="0.0392083115875721 -0.0006038736319169402 0.0050518629141151905 -0.0006038809078745544 0.036760132759809494 0.003831904148682952 0.005051868036389351 0.003832156304270029 0.03153042122721672" pbc="T T T"
Li       2.41949110       2.51805495       3.56787158       0.00653633       0.00423200      -0.01794497
Li       1.48767375       1.93742569       6.27580497       0.00067312       0.00063250      -0.01321750
Li       3.30438481       3.07100416       8.08967074       0.00271132       0.00142935      -0.00469455
Li       3.15879678       0.25426339       1.44287373      -0.00670757      -0.00435415       0.01459604
Ga       4.23467048       3.65091999       5.39024602      -0.00067603      -0.00035333       0.00861707
Ga       5.02819503       1.42017283       3.10430213      -0.01019875      -0.00631651       0.03325345
Sn       4.04883533       0.81024018       5.93547677       0.00766159       0.00473017      -0.02060956
7
Lattice="4.4808100938714395 -0.02300974901053413 0.00289148644479246 -2.2085516368059253 5.021800747069531 -0.4104998699541434 -0.02479036102499568 -0.08216111926053093 6.396422890303965" Properties=species:S:1:pos:R:3:forces:R:3 structure_index=11 total_energy=-21.969104766845703 stress="-0.021043557673692703 -0.0012171472189947963 -0.006848998833447695 -0.0012171671260148287 -0.0051262835040688515 -0.012371938675642014 -0.0068489909172058105 -0.012371932156383991 0.01672826148569584" pbc="T T T"
Li      -1.27796509       4.76073345       5.45231064       0.00067498       0.00003732      -0.01712372
Li      -1.28040570       3.17054304       2.79787686      -0.00069200      -0.00033655       0.01629563
Ga       0.97316413       3.99572620       0.92753702       0.00080029       0.00014300      -0.00004759
Ga       3.18140693       0.16083133       3.95917594      -0.00054084      -0.04093870      -0.00299662
Ga       0.94933112       2.72590245       4.70137945       0.00197391       0.04084293      -0.00462535
Sn       3.20903612       1.91549238      -0.04020709      -0.00549306       0.01804730       0.03130131
Sn       0.94813395       1.05436674       2.29703558       0.00327674      -0.01779528      -0.02280366
10
Lattice="4.700609089698725 0.0004992408934043584 0.0012127841726981864 -2.3504617046619525 4.07086534527274 0.0007098912236695487 -0.0016571901707972826 -0.0045795911972344 10.795408694985662" Properties=species:S:1:pos:R:3:forces:R:3 structure_index=12 total_energy=-29.067291259765625 stress="0.008789023384451866 -8.295341103803366e-06 -2.2995611743681366e-06 -8.25409824756207e-06 0.00877355970442295 -6.514838332805084e-06 -2.2419483229896287e-06 -6.5987242123810574e-06 0.011312969028949738" pbc="T T T"
Li       0.46175440       0.41227808       9.83750620       0.00001810      -0.00001394       0.00243964
Li       0.46333938       0.41382627       4.50119374      -0.00000568      -0.00000550      -0.00467089
Li       0.46301067       3.12721955       6.08270460      -0.00000355      -0.00000527      -0.01279208
Li       0.46284287       3.13073705       0.20151018       0.00000800      -0.00002009      -0.04028443
Li       2.81400001       1.77131618       3.42090948       0.00002688      -0.00001545       0.05258976
Li       0.46339214       0.41532075       1.76166160      -0.00002454       0.00004008      -0.00135708
Ga       2.81268439       1.76993324       8.05789458      -0.00002035       0.00003074       0.00305023
Sn       0.46273417       0.41285856       7.18774124      -0.00001361       0.00001820      -0.00263460
Sn       2.81325451       1.77375260       0.42627914       0.00000303       0.00001238       0.01836877
Sn       0.46364720       3.12833868       3.03328774       0.00001172      -0.00004116      -0.01470933
12
Lattice="4.3325158734312685 0.0015949205561731701 1.537015007772075 2.040197268175446 6.580873584637769 1.1243324443683838 -0.03903281683008959 -0.03735132890590228 6.981719639831063" Properties=species:S:1:pos:R:3:forces:R:3 structure_index=13 total_energy=-32.61998748779297 stress="0.02833365462720394 -0.0025286837480962276 0.01311563327908516 -0.0025284711737185717 -0.019508719444274902 0.008923875167965889 0.013115759938955307 0.008923495188355446 -0.004840778652578592" pbc="T T T"
Li       5.09520436       4.79423271       5.99341653      -0.00776416       0.02121692       0.01997265
Li       2.37080018       3.15778356       6.79530177      -0.00474449      -0.01722850       0.00964928
Li       3.29581073       3.76026639       4.19109279      -0.00133825       0.00987981       0.00392313
Li       4.16727067       4.20301917       8.59919934      -0.00354345      -0.00676773       0.00844968
Li       3.19147599       1.01375945       4.47527936       0.00286477       0.00545356      -0.00583726
Li       4.08421490       1.55236667       1.96733406       0.00303774      -0.00847384      -0.00754623
Li       3.43755386       6.56256394       3.78548282       0.00477053       0.01125611      -0.01737707
Ga       5.97756392       5.35489982       3.49066993      -0.00919544      -0.01832111       0.03822119
Ga       2.56903959       5.80476126       6.23924779       0.00489400      -0.01629454      -0.01673207
Ga       1.50562096       2.71358372       2.36415917      -0.00210010      -0.00145910       0.00041730
Ga       4.96338907       2.11167436       6.35713321       0.00537355       0.04145753      -0.01250683
Sn       2.27539051       0.39943640       7.06434179       0.00774530      -0.02071916      -0.02063377
8
Lattice="4.209695215453077 0.00025013455471195584 -0.00015277192840436264 -0.0009086520805082722 4.24901898510153 -0.0007832740608949739 0.00014316257119494888 0.00040273323153005577 8.411901484220467" Properties=species:S:1:pos:R:3:forces:R:3 structure_index=14 total_energy=-23.98120880126953 stress="-0.0394546240568161 -0.0005150054348632693 -0.00011515682126628235 -0.0005150166689418256 0.04010295495390892 -0.0004384768253657967 -0.00011516475933603942 -0.00043846198241226375 -0.05247515067458153" pbc="T T T"
Li       2.84837669       3.33402572       2.25568268       0.00112598      -0.00273463      -0.00047567
Li       0.74636284       3.33722504       0.15214805      -0.00063938      -0.00488267       0.00229606
Li       0.74508187       3.33042413       4.35584713       0.00025023       0.00138333       0.00339189
Li       2.85203446       3.33309172       6.46752409      -0.00078744       0.00037673      -0.00261653
Ga       2.85178033       1.20911968       0.15155536      -0.00135031       0.00097449       0.00374727
Ga       2.85256043       1.20968876       4.36269350      -0.00230993      -0.00240382      -0.00402434
Sn       0.74438572       1.20527417       2.25967198       0.00192430       0.00608168      -0.00602274
Sn       0.74634421       1.20838576       6.46125976       0.00178655       0.00120490       0.00370407
7
Lattice="4.435412646131061 0.00023699096736296476 1.2325346388479037 2.0486823993516206 3.933630700586341 1.2323907821128186 -0.050456326754038924 -0.031209113212231167 8.773420159234428" Properties=species:S:1:pos:R:3:forces:R:3 structure_index=15 total_energy=-22.905792236328125 stress="-0.01617841050028801 0.0024660115595906973 0.007552978117018938 0.0024660550989210606 -0.01893572323024273 0.0041293068788945675 0.0075527941808104515 0.004129129461944103 -0.03766724467277527" pbc="T T T"
Li       2.77848437       2.99711873       3.48540834      -0.01317980      -0.00815593       0.04483755
Li       2.53344133       0.15704858       4.35219639       0.01224864       0.00747436      -0.04152831
Ga       4.52923170       1.36768767       5.77014021       0.00193369       0.00142311      -0.00618253
Ga       5.21633841       1.78549264       3.30820407      -0.00149179      -0.00070432       0.00354011
Sn       1.96359952       2.50180640       6.40727519       0.00139168       0.00091823      -0.00366579
Sn       3.65637882       3.52904381       8.92683270      -0.00002951      -0.00002770      -0.00107197
Sn       3.34748562       0.65190789       1.43417805      -0.00087291      -0.00092777       0.00407096
12
Lattice="3.0030414297293233 0.0004738699529606341 -0.0007799662461613011 -0.0008741340717406077 7.413324396610099 1.2668660402059904 0.002109284293235496 0.13244575782962728 10.55031511084493" Properties=species:S:1:pos:R:3:forces:R:3 structure_index=16 total_energy=-37.02488327026367 stress="0.006129058543592691 2.221842805738561e-05 -2.8600086352525977e-06 2.2249143512453884e-05 0.021638333797454834 0.009280137717723846 -2.805097210512031e-06 0.009280173107981682 0.021190470084547997" pbc="T T T"
Li       0.94017076       5.40341471       8.26315878       0.00003469       0.02856255       0.02642087
Li       0.93891668       7.34623158       4.53399743       0.00047237      -0.01509245       0.00510484
Li       0.93905234       3.58502990       1.44770089      -0.00003322       0.03191394      -0.01482291
Li       0.94084339       0.68488398       8.49226963      -0.00010467      -0.03700572      -0.01049117
Ga       2.44147540       5.88382879      10.74596452       0.00037350       0.00961394       0.02523337
Ga       2.44155043       5.33379030       5.59984818      -0.00014074      -0.02424444       0.01351681
Ga       2.44167516       3.36669712       9.74144614       0.00022282       0.01544179      -0.01176766
Ga       2.44274425       0.12020869       5.86540004      -0.00031977       0.00832266      -0.00332604
Ga       2.44160844       5.40043703       2.94447053      -0.00058769      -0.01669838       0.00561919
Sn       2.44025853       0.84961361       0.76469057       0.00043093       0.00112684      -0.00805051
Sn       2.44206304       2.87870731       6.98615951      -0.00006583       0.01748947       0.00512382
Sn       2.44176807       2.50062486       3.82977154      -0.00028239      -0.01943019      -0.03256061
8
Lattice="5.308870167948388 -0.008242697413724225 2.913115684929621 1.7947028775014624 4.990464236185466 3.037466270791455 0.10009203258995698 0.033011130261291 6.109928202128414" Properties=species:S:1:pos:R:3:forces:R:3 structure_index=17 total_energy=-25.065752029418945 stress="0.01685137115418911 -0.003948938567191362 -0.02113199420273304 -0.003948883153498173 0.04893574118614197 0.0074791498482227325 -0.021132132038474083 0.007479028310626745 0.04081929475069046" pbc="T T T"
Li       5.33517093       1.23415900       3.69473638      -0.00135351       0.00152585       0.00031586
Li       3.62298345       3.75492212       6.81380393      -0.00001202      -0.00093460       0.00127860
Ga       2.72753919       1.25837878       5.29699410      -0.00007552       0.00162914      -0.00133772
Ga       6.22868532       3.73209429       5.21475525       0.00012999      -0.00064177       0.00156144
Ga       5.38138411       1.25373017       6.75068587       0.00021427       0.00154826       0.00119632
Ga       3.57433954       3.73828260       3.76017858      -0.00027952      -0.00283001      -0.00016650
Sn       2.67862793       1.24143473       2.24247480      -0.00018466       0.00208390      -0.00119360
Sn       6.27723522       3.74966818       8.27073396       0.00156096      -0.00238075      -0.00165438
5
Lattice="3.9189522753275394 -0.0004548951007414349 -1.3109454141021757 -0.4375595821278878 3.8938346693775636 -1.3104105067757854 0.012005025782898115 0.013227929129498318 6.55600311108008" Properties=species:S:1:pos:R:3:forces:R:3 structure_index=18 total_energy=-15.384784698486328 stress="0.057053182274103165 -0.0030197249725461006 -0.014635469764471054 -0.003019694471731782 0.0573853924870491 -0.016119442880153656 -0.014635475352406502 -0.016119353473186493 1.544297811051365e-05" pbc="T T T"
Li       1.87077765       1.91019716       0.58668534       0.00177516       0.00212441       0.00435806
Ga      -0.30614568       3.85787596       0.58811706       0.00280061      -0.00017840       0.00426225
Ga       2.59532818       0.52673989       2.74625409      -0.01504980      -0.01556448      -0.03980874
Ga       3.32927885       1.34799588      -1.56681107       0.01082208       0.01376193       0.03202088
Sn       0.79022718       2.89122780       3.86874797      -0.00034803      -0.00014347      -0.00083247
14
Lattice="6.199633917346235 0.0018571980066546623 -2.89904574528219 -1.2641574175995196 5.823403933328304 -2.6959461929577646 -0.07600052659779827 -0.024831729402037303 7.912560894808268" Properties=species:S:1:pos:R:3:forces:R:3 structure_index=19 total_energy=-41.44841766357422 stress="-0.021366596221923828 0.008311806246638298 0.013641073368489742 0.008311773650348186 -0.018266048282384872 0.016819411888718605 0.013641128316521645 0.016819413751363754 0.0017724863719195127" pbc="T T T"
Li      -0.66555264       3.14201931      -0.58327073       0.01693860       0.00603067      -0.00363877
Li       6.11506089       0.17584487      -2.23588206       0.01529921      -0.00197941      -0.01406709
Li       0.98578545       1.44028345       3.45746540       0.00144864      -0.00333399       0.00082559
Li       2.63176566       0.17224236      -0.60029563      -0.02154540      -0.00134941      -0.00159886
Li       4.09014081       1.44409343       2.00711517      -0.00062931      -0.00628689       0.00253639
Li       2.79892275       3.76539502       3.29617483       0.01033750      -0.01159351       0.02220028
Li       2.04441017       3.13446004      -1.85060578      -0.01534740       0.01138738       0.01093247
Li       4.68375206       2.30086210      -0.75282646      -0.00170365      -0.02703494      -0.00600905
Ga       0.28303850       4.68715113       1.95456616      -0.00193462       0.00974732      -0.00483054
Ga       3.38116950       4.68713636       0.50667864      -0.00264486       0.01208687      -0.00686071
Sn       3.47245269       0.94241457       4.73124457      -0.00085587       0.03138080       0.00010494
Sn      -0.41054859       3.71347327       4.50944089       0.01410798      -0.01039260       0.02558231
Sn       1.66668291       2.47832193       0.87350953      -0.00370458      -0.03150452      -0.00294350
Sn       3.99715783       5.18000189      -2.21578052      -0.00976624       0.02284225      -0.02223344
11
Lattice="4.425398524950959 0.047265724604752354 1.512081119023062 1.4494542973753342 6.235841339266997 3.124850227886473 -0.0931544656283713 0.1583512671665697 7.283258599971301" Properties=species:S:1:pos:R:3:forces:R:3 structure_index=20 total_energy=-31.39906120300293 stress="-0.019514912739396095 -0.01201353408396244 0.00298243947327137 -0.012013573199510574 -0.015697870403528214 -0.0025505986995995045 0.002982417121529579 -0.0025508799590170383 -0.006569418124854565" pbc="T T T"
Li       4.44078568       4.20470788       5.59358393       0.00728111       0.03576559      -0.00476385
Li       1.88718400       2.31606454       5.72001282      -0.01242889      -0.00742592       0.01865486
Li       5.23647220       6.01363948      10.41317611       0.01327022       0.00057594      -0.01486998
Li       2.74573812       3.79389748       3.34690484      -0.01178058      -0.04377631       0.02022588
Li       2.85976907       0.88452475       2.92035200      -0.01390593      -0.01047551       0.00668801
Li       3.51706776       5.69768396       8.26824242       0.00988021      -0.03210085       0.02245588
Ga       1.16132417       0.44878274       7.71851285       0.00721464      -0.01179950      -0.00787502