# Thermal properties / unit cell (natom)

unit:
  temperature:   K
  free_energy:   kJ/mol
  entropy:       J/K/mol
  heat_capacity: J/K/mol

natom: 6    
cutoff_frequency: 0.00000
num_modes: 199962
num_integrated_modes: 199960

zero_point_energy:      24.4786887

thermal_properties:
- temperature:         0.0000000
  free_energy:        24.4786887
  entropy:             0.0000000
  heat_capacity:       0.0000000
  energy:             24.4786887

- temperature:        10.0000000
  free_energy:        24.4779923
  entropy:             0.2638440
  heat_capacity:       0.8358522
  energy:             24.4806307

- temperature:        20.0000000
  free_energy:        24.4676974
  entropy:             2.1476740
  heat_capacity:       5.8077814
  energy:             24.5106509

- temperature:        30.0000000
  free_energy:        24.4291151
  entropy:             5.7895264
  heat_capacity:      12.7097908
  energy:             24.6028009

- temperature:        40.0000000
  free_energy:        24.3486563
  entropy:            10.4240602
  heat_capacity:      19.8968597
  energy:             24.7656188

- temperature:        50.0000000
  free_energy:        24.2186188
  entropy:            15.6710710
  heat_capacity:      27.5092611
  energy:             25.0021723

- temperature:        60.0000000
  free_energy:        24.0336219
  entropy:            21.4034760
  heat_capacity:      35.7169527
  energy:             25.3178304

- temperature:        70.0000000
  free_energy:        23.7891514
  entropy:            27.5547288
  heat_capacity:      44.3602996
  energy:             25.7179824

- temperature:        80.0000000
  free_energy:        23.4813790
  entropy:            34.0499497
  heat_capacity:      53.1058092
  energy:             26.2053750

- temperature:        90.0000000
  free_energy:        23.1073017
  entropy:            40.8003310
  heat_capacity:      61.6243891
  energy:             26.7793315

- temperature:       100.0000000
  free_energy:        22.6648269
  entropy:            47.7146447
  heat_capacity:      69.6750092
  energy:             27.4362914

- temperature:       110.0000000
  free_energy:        22.1527416
  entropy:            54.7095661
  heat_capacity:      77.1170330
  energy:             28.1707939

- temperature:       120.0000000
  free_energy:        21.5706022
  entropy:            61.7149828
  heat_capacity:      83.8913456
  energy:             28.9764002

- temperature:       130.0000000
  free_energy:        20.9185938
  entropy:            68.6752851
  heat_capacity:      89.9948000
  energy:             29.8463809

- temperature:       140.0000000
  free_energy:        20.1973885
  entropy:            75.5483724
  heat_capacity:      95.4581789
  energy:             30.7741607

- temperature:       150.0000000
  free_energy:        19.4080200
  entropy:            82.3036834
  heat_capacity:     100.3302013
  energy:             31.7535725

- temperature:       160.0000000
  free_energy:        18.5517790
  entropy:            88.9200103
  heat_capacity:     104.6670187
  energy:             32.7789806

- temperature:       170.0000000
  free_energy:        17.6301300
  entropy:            95.3834697
  heat_capacity:     108.5258278
  energy:             33.8453198

- temperature:       180.0000000
  free_energy:        16.6446472
  entropy:           101.6857737
  heat_capacity:     111.9612813
  energy:             34.9480865

- temperature:       190.0000000
  free_energy:        15.5969657
  entropy:           107.8228256
  heat_capacity:     115.0236887
  energy:             36.0833025

- temperature:       200.0000000
  free_energy:        14.4887452
  entropy:           113.7936151
  heat_capacity:     117.7583018
  energy:             37.2474682

- temperature:       210.0000000
  free_energy:        13.3216437
  entropy:           119.5993642
  heat_capacity:     120.2052292
  energy:             38.4375102

- temperature:       220.0000000
  free_energy:        12.0972988
  entropy:           125.2428769
  heat_capacity:     122.3996883
  energy:             39.6507317

- temperature:       230.0000000
  free_energy:        10.8173140
  entropy:           130.7280490
  heat_capacity:     124.3724216
  energy:             40.8847653

- temperature:       240.0000000
  free_energy:         9.4832503
  entropy:           136.0595014
  heat_capacity:     126.1501737
  energy:             42.1375306

- temperature:       250.0000000
  free_energy:         8.0966195
  entropy:           141.2423083
  heat_capacity:     127.7561701
  energy:             43.4071966

- temperature:       260.0000000
  free_energy:         6.6588818
  entropy:           146.2817967
  heat_capacity:     129.2105700
  energy:             44.6921490

- temperature:       270.0000000
  free_energy:         5.1714432
  entropy:           151.1834002
  heat_capacity:     130.5308765
  energy:             45.9909613

- temperature:       280.0000000
  free_energy:         3.6356553
  entropy:           155.9525540
  heat_capacity:     131.7323010
  energy:             47.3023704

- temperature:       290.0000000
  free_energy:         2.0528157
  entropy:           160.5946193
  heat_capacity:     132.8280816
  energy:             48.6252553

- temperature:       300.0000000
  free_energy:         0.4241691
  entropy:           165.1148315
  heat_capacity:     133.8297587
  energy:             49.9586185

- temperature:       310.0000000
  free_energy:        -1.2490916
  entropy:           169.5182652
  heat_capacity:     134.7474123
  energy:             51.3015706

- temperature:       320.0000000
  free_energy:        -2.9658233
  entropy:           173.8098110
  heat_capacity:     135.5898651
  energy:             52.6533162

- temperature:       330.0000000
  free_energy:        -4.7249306
  entropy:           177.9941627
  heat_capacity:     136.3648563
  energy:             54.0131431

- temperature:       340.0000000
  free_energy:        -6.5253642
  entropy:           182.0758102
  heat_capacity:     137.0791897
  energy:             55.3804113

- temperature:       350.0000000
  free_energy:        -8.3661187
  entropy:           186.0590386
  heat_capacity:     137.7388608
  energy:             56.7545448

- temperature:       360.0000000
  free_energy:       -10.2462305
  entropy:           189.9479293
  heat_capacity:     138.3491646
  energy:             58.1350240

- temperature:       370.0000000
  free_energy:       -12.1647758
  entropy:           193.7463649
  heat_capacity:     138.9147882
  energy:             59.5213792

- temperature:       380.0000000
  free_energy:       -14.1208686
  entropy:           197.4580352
  heat_capacity:     139.4398899
  energy:             60.9131847

- temperature:       390.0000000
  free_energy:       -16.1136590
  entropy:           201.0864443
  heat_capacity:     139.9281672
  energy:             62.3100543

- temperature:       400.0000000
  free_energy:       -18.1423311
  entropy:           204.6349186
  heat_capacity:     140.3829149
  energy:             63.7116364

- temperature:       410.0000000
  free_energy:       -20.2061015
  entropy:           208.1066150
  heat_capacity:     140.8070756
  energy:             65.1176107

- temperature:       420.0000000
  free_energy:       -22.3042175
  entropy:           211.5045290
  heat_capacity:     141.2032823
  energy:             66.5276847

- temperature:       430.0000000
  free_energy:       -24.4359556
  entropy:           214.8315038
  heat_capacity:     141.5738961
  energy:             67.9415910

- temperature:       440.0000000
  free_energy:       -26.6006201
  entropy:           218.0902376
  heat_capacity:     141.9210389
  energy:             69.3590844

- temperature:       450.0000000
  free_energy:       -28.7975414
  entropy:           221.2832920
  heat_capacity:     142.2466204
  energy:             70.7799399

- temperature:       460.0000000
  free_energy:       -31.0260751
  entropy:           224.4130997
  heat_capacity:     142.5523635
  energy:             72.2039507

- temperature:       470.0000000
  free_energy:       -33.2856003
  entropy:           227.4819715
  heat_capacity:     142.8398249
  energy:             73.6309263

- temperature:       480.0000000
  free_energy:       -35.5755188
  entropy:           230.4921037
  heat_capacity:     143.1104139
  energy:             75.0606910

- temperature:       490.0000000
  free_energy:       -37.8952536
  entropy:           233.4455840
  heat_capacity:     143.3654084
  energy:             76.4930826

- temperature:       500.0000000
  free_energy:       -40.2442482
  entropy:           236.3443986
  heat_capacity:     143.6059692
  energy:             77.9279511

- temperature:       510.0000000
  free_energy:       -42.6219656
  entropy:           239.1904374
  heat_capacity:     143.8331525
  energy:             79.3651574

- temperature:       520.0000000
  free_energy:       -45.0278871
  entropy:           241.9854997
  heat_capacity:     144.0479208
  energy:             80.8045727

- temperature:       530.0000000
  free_energy:       -47.4615114
  entropy:           244.7312996
  heat_capacity:     144.2511525
  energy:             82.2460774

- temperature:       540.0000000
  free_energy:       -49.9223543
  entropy:           247.4294710
  heat_capacity:     144.4436506
  energy:             83.6895600

- temperature:       550.0000000
  free_energy:       -52.4099473
  entropy:           250.0815716
  heat_capacity:     144.6261502
  energy:             85.1349171

- temperature:       560.0000000
  free_energy:       -54.9238371
  entropy:           252.6890877
  heat_capacity:     144.7993253
  energy:             86.5820519

- temperature:       570.0000000
  free_energy:       -57.4635852
  entropy:           255.2534381
  heat_capacity:     144.9637943
  energy:             88.0308746

- temperature:       580.0000000
  free_energy:       -60.0287665
  entropy:           257.7759780
  heat_capacity:     145.1201260
  energy:             89.4813007

- temperature:       590.0000000
  free_energy:       -62.6189697
  entropy:           260.2580023
  heat_capacity:     145.2688437
  energy:             90.9332517

- temperature:       600.0000000
  free_energy:       -65.2337957
  entropy:           262.7007492
  heat_capacity:     145.4104298
  energy:             92.3866538

- temperature:       610.0000000
  free_energy:       -67.8728577
  entropy:           265.1054028
  heat_capacity:     145.5453294
  energy:             93.8414380

- temperature:       620.0000000
  free_energy:       -70.5357805
  entropy:           267.4730968
  heat_capacity:     145.6739536
  energy:             95.2975395

- temperature:       630.0000000
  free_energy:       -73.2222001
  entropy:           269.8049167
  heat_capacity:     145.7966827
  energy:             96.7548974

- temperature:       640.0000000
  free_energy:       -75.9317628
  entropy:           272.1019022
  heat_capacity:     145.9138690
  energy:             98.2134547

- temperature:       650.0000000
  free_energy:       -78.6641253
  entropy:           274.3650504
  heat_capacity:     146.0258387
  energy:             99.6731574

- temperature:       660.0000000
  free_energy:       -81.4189542
  entropy:           276.5953170
  heat_capacity:     146.1328950
  energy:            101.1339551

- temperature:       670.0000000
  free_energy:       -84.1959251
  entropy:           278.7936194
  heat_capacity:     146.2353191
  energy:            102.5957999

- temperature:       680.0000000
  free_energy:       -86.9947229
  entropy:           280.9608380
  heat_capacity:     146.3333727
  energy:            104.0586469

- temperature:       690.0000000
  free_energy:       -89.8150411
  entropy:           283.0978184
  heat_capacity:     146.4272995
  energy:            105.5224536

- temperature:       700.0000000
  free_energy:       -92.6565812
  entropy:           285.2053730
  heat_capacity:     146.5173264
  energy:            106.9871799

- temperature:       710.0000000
  free_energy:       -95.5190531
  entropy:           287.2842829
  heat_capacity:     146.6036650
  energy:            108.4527878

- temperature:       720.0000000
  free_energy:       -98.4021739
  entropy:           289.3352993
  heat_capacity:     146.6865130
  energy:            109.9192415

- temperature:       730.0000000
  free_energy:      -101.3056685
  entropy:           291.3591446
  heat_capacity:     146.7660549
  energy:            111.3865071

- temperature:       740.0000000
  free_energy:      -104.2292686
  entropy:           293.3565145
  heat_capacity:     146.8424634
  energy:            112.8545522

- temperature:       750.0000000
  free_energy:      -107.1727128
  entropy:           295.3280789
  heat_capacity:     146.9159001
  energy:            114.3233464

- temperature:       760.0000000
  free_energy:      -110.1357463
  entropy:           297.2744830
  heat_capacity:     146.9865162
  energy:            115.7928608

- temperature:       770.0000000
  free_energy:      -113.1181206
  entropy:           299.1963486
  heat_capacity:     147.0544537
  energy:            117.2630678

- temperature:       780.0000000
  free_energy:      -116.1195935
  entropy:           301.0942754
  heat_capacity:     147.1198456
  energy:            118.7339414

- temperature:       790.0000000
  free_energy:      -119.1399283
  entropy:           302.9688417
  heat_capacity:     147.1828171
  energy:            120.2054567

- temperature:       800.0000000
  free_energy:      -122.1788943
  entropy:           304.8206054
  heat_capacity:     147.2434854
  energy:            121.6775901

- temperature:       810.0000000
  free_energy:      -125.2362662
  entropy:           306.6501052
  heat_capacity:     147.3019611
  energy:            123.1503191

- temperature:       820.0000000
  free_energy:      -128.3118239
  entropy:           308.4578612
  heat_capacity:     147.3583481
  energy:            124.6236223

- temperature:       830.0000000
  free_energy:      -131.4053526
  entropy:           310.2443759
  heat_capacity:     147.4127442
  energy:            126.0974794

- temperature:       840.0000000
  free_energy:      -134.5166422
  entropy:           312.0101347
  heat_capacity:     147.4652418
  energy:            127.5718709

- temperature:       850.0000000
  free_energy:      -137.6454877
  entropy:           313.7556069
  heat_capacity:     147.5159277
  energy:            129.0467782

- temperature:       860.0000000
  free_energy:      -140.7916883
  entropy:           315.4812464
  heat_capacity:     147.5648840
  energy:            130.5221837

- temperature:       870.0000000
  free_energy:      -143.9550479
  entropy:           317.1874923
  heat_capacity:     147.6121883
  energy:            131.9980704

- temperature:       880.0000000
  free_energy:      -147.1353749
  entropy:           318.8747694
  heat_capacity:     147.6579138
  energy:            133.4744222

- temperature:       890.0000000
  free_energy:      -150.3324815
  entropy:           320.5434889
  heat_capacity:     147.7021296
  energy:            134.9512236

- temperature:       900.0000000
  free_energy:      -153.5461841
  entropy:           322.1940490
  heat_capacity:     147.7449013
  energy:            136.4284599

- temperature:       910.0000000
  free_energy:      -156.7763032
  entropy:           323.8268354
  heat_capacity:     147.7862908
  energy:            137.9061170

- temperature:       920.0000000
  free_energy:      -160.0226628
  entropy:           325.4422220
  heat_capacity:     147.8263569
  energy:            139.3841814

- temperature:       930.0000000
  free_energy:      -163.2850909
  entropy:           327.0405708
  heat_capacity:     147.8651552
  energy:            140.8626399

- temperature:       940.0000000
  free_energy:      -166.5634186
  entropy:           328.6222330
  heat_capacity:     147.9027384
  energy:            142.3414804

- temperature:       950.0000000
  free_energy:      -169.8574810
  entropy:           330.1875493
  heat_capacity:     147.9391565
  energy:            143.8206908

- temperature:       960.0000000
  free_energy:      -173.1671162
  entropy:           331.7368501
  heat_capacity:     147.9744572
  energy:            145.3002598

- temperature:       970.0000000
  free_energy:      -176.4921657
  entropy:           333.2704558
  heat_capacity:     148.0086855
  energy:            146.7801764

- temperature:       980.0000000
  free_energy:      -179.8324741
  entropy:           334.7886777
  heat_capacity:     148.0418842
  energy:            148.2604301

- temperature:       990.0000000
  free_energy:      -183.1878890
  entropy:           336.2918180
  heat_capacity:     148.0740942
  energy:            149.7410108

- temperature:      1000.0000000
  free_energy:      -186.5582611
  entropy:           337.7801700
  heat_capacity:     148.1053542
  energy:            151.2219088
