# Tetrahedron method
       -1.1382998304        0.0000000000
       -1.0700018466        0.0000000000
       -1.0017038628        0.0000000000
       -0.9334058791        0.0000000000
       -0.8651078953        0.0000000000
       -0.7968099115        0.0000000000
       -0.7285119278        0.0000000000
       -0.6602139440        0.0000000000
       -0.5919159602        0.0000000000
       -0.5236179765        0.0000000000
       -0.4553199927        0.0000000000
       -0.3870220090        0.0000000000
       -0.3187240252        0.0000000000
       -0.2504260414        0.0000000000
       -0.1821280577        0.0000000000
       -0.1138300739        0.0000000000
       -0.0455320901        0.0000000000
        0.0227658936        0.0006988830
        0.0910638774        0.0108231995
        0.1593618612        0.0427756418
        0.2276598449        0.1027920556
        0.2959578287        0.1800576381
        0.3642558124        0.2939966178
        0.4325537962        0.4254702833
        0.5008517800        0.6122951939
        0.5691497637        0.8113785407
        0.6374477475        1.0082950282
        0.7057457313        1.3324367619
        0.7740437150        1.4905096386
        0.8423416988        1.5855406912
        0.9106396826        1.6734702711
        0.9789376663        1.9203824145
        1.0472356501        2.4431888681
        1.1155336338        2.7776891880
        1.1838316176        3.3248332369
        1.2521296014        3.8288202640
        1.3204275851        4.5850609077
        1.3887255689        4.8723970297
        1.4570235527        6.4651337507
        1.5253215364        5.5102753140
        1.5936195202        5.9327479123
        1.6619175040        7.7463000880
        1.7302154877        8.2069639617
        1.7985134715        9.5120931707
        1.8668114553        9.2130208764
        1.9351094390        9.0667090870
        2.0034074228       12.3932730584
        2.0717054065        6.1882161695
        2.1400033903        5.8930820371
        2.2083013741        6.2012677335
        2.2765993578        7.5714273306
        2.3448973416        5.2688833630
        2.4131953254        6.8258204007
        2.4814933091        5.7094494334
        2.5497912929        6.2018514616
        2.6180892767        7.3811466112
        2.6863872604        3.7970323001
        2.7546852442        3.4769285443
        2.8229832279        2.3842126303
        2.8912812117        4.2709057980
        2.9595791955        3.9336005766
        3.0278771792        4.0100962214
        3.0961751630        9.2186577694
        3.1644731468        4.2119515867
        3.2327711305        2.6372769294
        3.3010691143        2.5311204101
        3.3693670981        2.8983378318
        3.4376650818        6.2116349932
        3.5059630656        2.6725742125
        3.5742610493        0.7648985281
        3.6425590331        0.0276025637
        3.7108570169        0.0000000000
        3.7791550006        0.0000000000
        3.8474529844        0.0000000000
        3.9157509682        0.0000000000
        3.9840489519        0.0000000000
        4.0523469357        0.0000000000
        4.1206449195        0.0000000000
        4.1889429032        0.0000000000
        4.2572408870        0.0000000000
        4.3255388707        0.0000000000
        4.3938368545        0.0000000000
        4.4621348383        0.0000000000
        4.5304328220        0.5064430448
        4.5987308058        0.6534728975
        4.6670287896        0.7827286475
        4.7353267733        1.1597683294
        4.8036247571        1.1407487806
        4.8719227409        0.8673449196
        4.9402207246        0.8000280317
        5.0085187084        0.7607350618
        5.0768166921        1.0405002017
        5.1451146759        1.2618465562
        5.2134126597        1.3172921381
        5.2817106434        1.3659776046
        5.3500086272        1.4926561050
        5.4183066110        1.6332320465
        5.4866045947        1.9678955803
        5.5549025785        3.9022368041
        5.6232005623        2.9729902870
        5.6914985460        1.6309525338
        5.7597965298        1.6338475328
        5.8280945136        4.6153719148
        5.8963924973        2.2430389430
        5.9646904811        4.8757022301
        6.0329884648        4.0251918535
        6.1012864486        4.1453351661
        6.1695844324        4.5782899428
        6.2378824161        5.7014242177
        6.3061803999        4.5283797869
        6.3744783837        3.5492589113
        6.4427763674        3.0839233322
        6.5110743512        3.6516656443
        6.5793723350        4.0125558901
        6.6476703187        3.6467012201
        6.7159683025        2.3258711974
        6.7842662862        5.6128528407
        6.8525642700        4.1037085657
        6.9208622538        5.5853802290
        6.9891602375        6.3475340755
        7.0574582213        4.5696008368
        7.1257562051        2.8548080516
        7.1940541888        5.6681363336
        7.2623521726        4.7535149523
        7.3306501564        3.6034656480
        7.3989481401        4.0942927969
        7.4672461239        4.8063437467
        7.5355441076        4.2006548827
        7.6038420914        3.6281284466
        7.6721400752        5.1805767306
        7.7404380589        3.7412588836
        7.8087360427        3.4013793098
        7.8770340265        4.7537008273
        7.9453320102        2.9249350796
        8.0136299940        6.5863675805
        8.0819279778        4.8418036379
        8.1502259615        2.7691119000
        8.2185239453        6.4598912429
        8.2868219290        3.4192668048
        8.3551199128        4.6196061156
        8.4234178966        2.8436800554
        8.4917158803        2.6681473397
        8.5600138641        3.5019412367
        8.6283118479        5.6484998388
        8.6966098316        4.6325846319
        8.7649078154        4.0259096467
        8.8332057992        2.5118192779
        8.9015037829        4.6504704624
        8.9698017667        3.1982277086
        9.0380997504        2.5610073701
        9.1063977342        2.2736558688
        9.1746957180        4.6976824511
        9.2429937017        5.5991208561
        9.3112916855        5.7606553286
        9.3795896693        3.0772089378
        9.4478876530        0.0000000000
        9.5161856368        0.0000000000
        9.5844836206        0.0000000000
        9.6527816043        0.0000000000
        9.7210795881        4.8721831720
        9.7893775719        3.3089111832
        9.8576755556        4.9296553346
        9.9259735394        0.3188187797
        9.9942715231        5.2868168703
       10.0625695069        5.2799501277
       10.1308674907        4.1246435781
       10.1991654744        0.0000000000
       10.2674634582        0.0000000000
       10.3357614420        0.0000000000
       10.4040594257        0.0000000000
       10.4723574095        0.0000000000
       10.5406553933        0.0000000000
       10.6089533770        0.0000000000
       10.6772513608        0.0000000000
       10.7455493445        0.5245699966
       10.8138473283        3.5810610114
       10.8821453121       11.4051606402
       10.9504432958        1.5137271015
       11.0187412796        2.8875897412
       11.0870392634        2.2339010444
       11.1553372471        1.7966958003
       11.2236352309        1.9830619324
       11.2919332147        3.8353021812
       11.3602311984        0.6356070184
       11.4285291822        0.0000000000
       11.4968271659        0.0000000000
       11.5651251497        0.0000000000
       11.6334231335        0.0000000000
       11.7017211172        0.0000000000
       11.7700191010        0.0000000000
       11.8383170848        0.0000000000
       11.9066150685        0.0000000000
       11.9749130523        0.0000000000
       12.0432110361        0.0000000000
       12.1115090198        0.0000000000
       12.1798070036        0.0000000000
       12.2481049873        0.0000000000
       12.3164029711        0.0000000000
       12.3847009549        0.0000000000
       12.4529989386        0.0000000000
       12.5212969224        0.0000000000
