4
Lattice="4.228738123245448 -0.0037572746637834368 0.004143521831359846 0.004868046094418087 4.228416769112512 0.004034541804233405 -0.0016377112307234662 -0.0016140272877017557 4.215827999737288" Properties=species:S:1:pos:R:3:forces:R:3 structure_index=0 total_energy=-11.990550994873047 stress="0.10533720254898071 0.0013845163630321622 0.0021126314532011747 0.0013845619978383183 0.1042356863617897 0.002031344221904874 0.002112679649144411 0.00203131977468729 -0.008332842029631138" pbc="T T T"
Li       2.42655023       1.37042788       3.28544872      -0.00050987      -0.00007613      -0.00012412
Li       0.31403906       3.48678915       3.28546464      -0.00020680      -0.00022642      -0.00020394
Ga       0.31267734       1.37356411       1.17522761      -0.00072865      -0.00073852       0.00026889
Sn       2.42843939       3.48497402       1.17950016       0.00144533       0.00104108       0.00005918
5
Lattice="3.2541849873211683 0.0003059915748453902 -0.004309613923068649 -1.6273202179199147 4.310173237145509 -1.2366228913047297 0.004149124594636023 -0.03757959311063934 6.935946475795711" Properties=species:S:1:pos:R:3:forces:R:3 structure_index=1 total_energy=-14.896801948547363 stress="0.022047121077775955 -0.0008072648197412491 -0.0005074439104646444 -0.0008072963682934642 0.03385553136467934 0.00514806155115366 -0.0005075015360489488 0.0051480429247021675 -0.031269144266843796" pbc="T T T"
Li      -0.60248818       3.67329458       0.60328654      -0.00062869       0.00053235       0.00622917
Li       2.65541586       0.47044409       4.28388628      -0.00052420       0.01523237       0.00064486
Ga       1.02499960       2.56446591       5.43297965       0.00182194      -0.00655970      -0.02691519
Ga       2.64993094       0.95284998       0.06547339      -0.00075300      -0.02668894      -0.01971130
Sn       1.02413049       2.07908368       2.46183701       0.00008394       0.01748391       0.03975247
4
Lattice="4.267796516418457 0.0 2.461942672729492 1.4204264918526806 4.0200571507390315 2.461080551147461 0.0 0.0 4.924616813659668" Properties=species:S:1:pos:R:3:forces:R:3 structure_index=2 total_energy=-12.29641342163086 stress="-0.05660869926214218 -0.003491035895422101 -0.0008274880819953978 -0.0034912535920739174 -0.06835664808750153 0.0015984138008207083 -0.0008273221319541335 0.0015984802739694715 -0.06801934540271759" pbc="T T T"
Li       3.31590026       2.97250609       6.42773746       0.00026729       0.00010077       0.00014018
Ga       1.89472784       1.96719193       3.96669168      -0.00106989      -0.00050152      -0.00075618
Ga       4.73828645       3.97831087       8.88944029      -0.00263846       0.00014705      -0.00047248
Sn       0.47066099       0.96259966       1.50369951       0.00344107       0.00025372       0.00108847
12
Lattice="4.13817619247528 0.002597796195211802 0.9832496771067444 1.7115497322260689 6.664671346636012 1.9834690597126945 -0.02693881134415199 -0.026638235832842697 9.31888056250902" Properties=species:S:1:pos:R:3:forces:R:3 structure_index=3 total_energy=-38.99973678588867 stress="0.010595942847430706 -0.0013015407603234053 -0.0006510589155368507 -0.0013015205040574074 0.008426186628639698 0.00748875318095088 -0.0006509771919809282 0.007488713599741459 0.013678929768502712" pbc="T T T"
Li       4.91921237       5.58141216       5.85484072       0.00400136       0.00405482      -0.01543846
Li       3.93720799       4.53752020       9.98313126      -0.00226503       0.02570402       0.01704708
Li       3.60553444       1.72783473       2.18868968      -0.00559407       0.01182190       0.02260912
Li       4.54191905       2.74763976       7.44579761       0.00508160      -0.03019468      -0.01814673
Ga       0.05154025       0.06567755       7.95651342       0.00779487       0.00727690      -0.03754612
Ga       1.41665477       3.96232491       2.19637489       0.00660863      -0.01767601      -0.02957735
Ga       2.58403614       0.55975639       6.49691109      -0.00886991       0.03239229       0.03623994
Sn       2.98979711       3.40380643       4.77599849      -0.00780330      -0.00267605       0.03791173
Sn       1.98365171       2.33815522       9.01344009       0.00028616      -0.03612413       0.00173092
Sn       2.35549522       5.00015349       7.45232758      -0.00080267      -0.00229623      -0.00606087
Sn       3.37361701       6.16908631       3.15534627       0.00123622       0.01423318      -0.00305312
Sn       1.01964522       1.10209330       3.87893161       0.00032613      -0.00651602      -0.00571613
8
Lattice="4.2509199983942 -0.00026066505280044754 0.005034766901192831 0.0003360411633970175 4.316100271494963 0.002010521333629361 -0.007473549025743534 -0.00207225887143972 8.180474865846817" Properties=species:S:1:pos:R:3:forces:R:3 structure_index=4 total_energy=-23.986858367919922 stress="0.025764843448996544 0.00010023275535786524 0.0010541339870542288 0.00010014980216510594 0.01252809353172779 0.0012667839182540774 0.0010541195515543222 0.0012667245464399457 0.04445780813694" pbc="T T T"
Li       2.15665435       0.56111937       4.26290633      -0.00029963      -0.00023421       0.01259727
Li       0.03353748       0.56220080       2.15756023      -0.00075178      -0.00022519      -0.00292651
Li       0.02624534       2.71806362       8.12462351       0.00049093      -0.00005789       0.00274581
Li       2.15417807       2.71830958       6.02353267       0.00051628       0.00013284      -0.01189176
Ga       0.03159306       2.71873389       4.31668469      -0.00140325       0.00060104      -0.01690773
Ga       0.02850736       0.56022288       5.96513584       0.00073541      -0.00012703       0.01727608
Sn       2.15205033       0.55975072       7.98008462      -0.00016472       0.00006392      -0.02964012
Sn       2.15831008       2.71999905       2.30737977       0.00087675      -0.00015350       0.02874698
12
Lattice="5.054856229783545 0.0011072642131010127 -0.0033270482955803453 -0.0026703507770505833 6.734795174750326 0.21556832594288564 0.0022980183903011566 -0.06273100224763437 6.740153908219617" Properties=species:S:1:pos:R:3:forces:R:3 structure_index=5 total_energy=-34.57282257080078 stress="-0.022778617218136787 -3.52931056113448e-05 -0.00010761280282167718 -3.5239470889791846e-05 -0.020915068686008453 0.013104060664772987 -0.00010753316018963233 0.013104011304676533 -0.020771395415067673" pbc="T T T"
Li       3.97636953       0.88016838       5.43818402       0.00003423      -0.00357676       0.02533267
Li       3.97538182       1.89540407       1.90275607      -0.00088419       0.00391242       0.00436174
Li       1.44705456       5.23675999       5.38831132      -0.00025853       0.00313354       0.00414247
Li       3.97254842       5.46089619       1.03811295       0.00026721       0.02797308      -0.00259248
Li       1.44637779       4.27500142       2.17393233       0.00025554      -0.00152445       0.02694684
Li       1.44767406       2.06355252       4.29899240       0.00040827       0.02717930      -0.00210207
Ga       2.71342199       3.13940896       6.59811573       0.00018419       0.00197855       0.00284097
Ga       0.18584482       3.13754401       6.60293171      -0.00023587       0.00197299       0.00187716
Ga       2.71124700       6.53373291       3.34318774      -0.00116365       0.00160885       0.00173158
Ga       0.18340059       6.53555355       3.34277674       0.00088270       0.00119595       0.00201927
Sn       3.97474092       3.87031841       3.96100277       0.00008391      -0.03009585      -0.02977774
Sn       1.44730841       0.53835450       0.49254691       0.00042621      -0.03375760      -0.03478042
16
Lattice="6.1830693926678375 0.06758682452099242 -0.07637033736976015 -3.130987880442686 5.211738915122768 0.17197893834392375 -0.07748309041537477 0.10718320487720247 9.461727942566315" Properties=species:S:1:pos:R:3:forces:R:3 structure_index=6 total_energy=-46.62004470825195 stress="-0.008116585202515125 -0.014344367198646069 0.00689886836335063 -0.01434437558054924 0.013279875740408897 -0.009792819619178772 0.006898881867527962 -0.009792878292500973 -3.49049769283738e-05" pbc="T T T"
Li       1.82984782       0.77970224       4.00105484      -0.01966609      -0.02574203      -0.01952788
Li       1.85727223       2.53634394       1.61055823       0.02868116       0.01227990       0.00041523
Li      -2.90556149       5.12988132       6.44013277       0.01479189       0.01754558      -0.02315839
Li       0.30308164       3.35426651       4.07602048      -0.01955374      -0.01951255      -0.01372989
Li      -1.27710850       2.44620745       1.67306053      -0.00002822       0.01470218       0.01481368
Li       1.82284583       0.79861189       8.62837292       0.00324844       0.00110111       0.00419674
Li      -2.86273117       5.09088312       1.76606593       0.00270505       0.01359749       0.01190186
Li       0.33626725       5.13752707       6.47065953       0.03294505       0.01908587       0.02231900
Li      -1.31418526       2.40267774       6.36105186       0.02706843      -0.01409654       0.01145990
Ga       1.78963795       2.41860020       6.27632415      -0.00421073       0.00419032       0.00411994
Ga       4.85828015       0.79014081       8.67507023      -0.00376269       0.00458053       0.00902722
Ga       4.95979351       0.82272948       3.89058831      -0.02606930      -0.02364408      -0.01594013
Sn       3.36216438       3.40014292       4.10156760      -0.02347999      -0.01696801       0.02229150
Sn       3.27338563       3.47025280       8.61422210      -0.00987241       0.01664495      -0.02527640
Sn       0.25554897       5.14554717       1.77622133       0.00541753       0.00496095      -0.01172791
Sn       0.18675706       3.31607341       8.70239721      -0.00821439      -0.00872565       0.00881554
10
Lattice="4.513993299253274 -0.000767270159099807 -0.0035337060189642023 -2.2632542450439512 3.9085787430859353 0.0014358255526560099 0.0023244152501109886 0.0024469495155445397 13.699256016458277" Properties=species:S:1:pos:R:3:forces:R:3 structure_index=7 total_energy=-33.2945671081543 stress="-0.025185998529195786 7.40260147722438e-05 -0.00019631729810498655 7.401714537991211e-05 -0.024586711078882217 -0.0001720978325465694 -0.00019635741773527116 -0.0001721943262964487 0.02121102623641491" pbc="T T T"
Li      -0.39128708       3.39035433       7.64762338      -0.00029977      -0.00062779      -0.00380732
Li      -0.39001074       3.39049458      12.89697968       0.00003910      -0.00022709       0.00766695
Ga      -0.39334073       3.38927913       1.84792851       0.00175082      -0.00113086       0.03947755
Ga      -0.39036259       3.39014047      10.28612415       0.00073057      -0.00060391      -0.00522956
Ga      -0.38815771       0.78372542       3.02076167       0.00028945       0.00029055       0.00166435
Sn       1.86597029       2.08720043       9.02790833      -0.00197500       0.00072563       0.02394512
Sn      -0.39397682       3.38996252       4.72015587      -0.00067502      -0.00039031      -0.01312714
Sn       1.86406564       2.08564940       0.62403473      -0.00254490       0.00117980       0.00856425
Sn      -0.38652412       0.78415856       6.29500683       0.00145461       0.00033616      -0.04339176
Sn      -0.38292241       0.78410218      11.57682606       0.00123013       0.00044781      -0.01576247
16
Lattice="4.461953520949884 0.0005979766659345514 -0.00034956741436367245 -2.2275063346267507 5.175289208611965 0.004650203111674114 0.0005328534041052784 -0.015560467601267993 15.67746536247191" Properties=species:S:1:pos:R:3:forces:R:3 structure_index=8 total_energy=-50.70260238647461 stress="0.006130374502390623 0.00017246465722564608 0.0001116259372793138 0.00017234236293006688 0.0070520672015845776 -0.001752900192514062 0.00011177617852808908 -0.0017527749296277761 0.004712033085525036" pbc="T T T"
Li       0.43954431       0.67962083       7.05867593       0.00000287       0.00208777      -0.03157475
Li       0.43838848       0.69445147       3.27966079       0.00086582      -0.00105716       0.03225768
Li       0.43685945       1.77350044      11.11715699       0.00011491      -0.00517127       0.03070921
Li       0.43654283       4.46416860      13.01869154       0.00109046       0.00165447      -0.00405824
Li       2.67494911       3.14942188       5.16212126      -0.00109279       0.00867170       0.00360950
Li       0.43813065       1.75971001      14.89212274      -0.00025547      -0.00258654      -0.02845006
Ga       0.44169252       3.64920471       7.26160022      -0.00010891       0.02652189       0.03008562
Ga       2.66955778       3.97601217      10.91724477       0.00016965      -0.02662104      -0.02815343
Ga       2.67138746       3.96423109      15.10859235      -0.00048725      -0.02108340       0.02500919
Ga       0.44155348       3.66262295       3.07306880      -0.00006751       0.02058321      -0.02867098
Sn       2.67008593       0.16150913       5.16712324       0.00050745       0.01899455       0.00273541
Sn       2.66835199       2.28761087      13.00850121      -0.00023000      -0.01950677      -0.00320004
Sn       2.67258315       2.54635063       8.42573598      -0.00053179      -0.01002018      -0.01704220
Sn       0.43870605       5.07911075       9.75324000       0.00032599       0.00957408       0.01965965
Sn       0.44010356       5.09212461       0.58744551       0.00004693       0.00804013      -0.01851138
Sn       2.67232446       2.55265403       1.91572535      -0.00035033      -0.01008146       0.01559476
12
Lattice="4.268423079013254 0.0030599980174174585 0.00015168889500292345 -0.003675224060945378 4.293431133246559 -0.0024868447862580116 -0.0002841643753083127 0.002448249400168409 12.916707113110448" Properties=species:S:1:pos:R:3:forces:R:3 structure_index=9 total_energy=-37.053443908691406 stress="-0.003117199055850506 -0.0012204553931951523 2.3008651623968035e-05 -0.0012204475933685899 -0.020099572837352753 0.00023176702961791307 2.300549931533169e-05 0.00023177964612841606 0.014104115776717663" pbc="T T T"
Li       1.72244190       3.49575879       3.71270716      -0.00023060      -0.00090868      -0.00424523
Li       1.72154354       3.50075855       7.92930238       0.00013284       0.00005630       0.01616687
Li       3.85543540       3.49176477       1.53920337       0.00068921      -0.00086978       0.00406282
Li       3.85739683       1.35405910      12.24132275       0.00044999      -0.00228535       0.00376598
Ga       1.72221687       3.49165197      12.35514462      -0.00083924       0.00241973      -0.00853423
Ga       3.85734765       1.35563979       7.98197307       0.00111038       0.00173909      -0.03970619
Ga       3.85789514       1.35085648       3.58129349       0.00042931      -0.00138131       0.02358385
Ga       1.72348208       1.35743907      10.13239766       0.00030364      -0.00160164      -0.01751130
Ga       3.85716737       3.50126165       5.68770810      -0.00044333      -0.00085567       0.04458825
Sn       1.72359056       1.34098811       1.47809302      -0.00022773       0.00591601       0.01442256
Sn       1.72466590       1.35259017       5.82696360      -0.00098969       0.00024375      -0.02307085
Sn       3.85617569       3.50581148      10.17541811      -0.00038478      -0.00247243      -0.01352256
12
Lattice="4.138639287913201 -6.070173946018568e-05 -0.0014754058010979882 -2.0670256840260652 6.260581539142158 -0.1231658543421151 -0.0004930156344756185 -0.02238777099003498 8.513611109770455" Properties=species:S:1:pos:R:3:forces:R:3 structure_index=10 total_energy=-35.48555374145508 stress="0.004605923313647509 0.00010749512875918299 -0.00017803146329242736 0.00010749244393082336 0.0021800228860229254 -0.0024750332813709974 -0.00017803366063162684 -0.0024750588927417994 0.011836609803140163" pbc="T T T"
Li       2.44091972       0.52213260       4.43064416      -0.00023542      -0.00184103      -0.00378984
Li       2.44238295       4.73664058       4.29767143       0.00009449       0.00977270       0.00746871
Li       0.37194474       2.58452219       4.40065290       0.00004769      -0.00428224       0.01617146
Li       0.37082460       2.68686858       0.11873989       0.00079944       0.04082913      -0.00443077
Li       2.44268519       0.47616761       0.17159692      -0.00033361      -0.03783004       0.00483434
Ga       2.44494636       4.75778607       0.13019110      -0.00152048       0.01220042       0.00577125
Ga       0.37260942       0.65117984       6.56101158      -0.00072849      -0.00907579       0.01723665
Ga       0.37075785       0.44362419       2.29878596       0.00009454       0.00589179      -0.01377832
Ga       0.37230797       4.78946435       2.25974019       0.00078090      -0.02717652      -0.04006745
Ga       2.44110474       2.50340484       6.53678621       0.00117388       0.01790408       0.01061446
Sn       2.44045339       2.56477566       2.27104226       0.00014540       0.00100921      -0.00582200
Sn       0.37428218       4.71473559       6.42146363      -0.00031833      -0.00740171       0.00579152
10
Lattice="4.60158154217208 -0.004132633100956374 0.00011553172870321099 0.0037069822280038655 4.443900829858616 -1.0087217845749346 -0.001633006792169043 -0.3589488851520816 8.716626819606091" Properties=species:S:1:pos:R:3:forces:R:3 structure_index=11 total_energy=-28.622882843017578 stress="-0.0193158071488142 -0.00043442900641821325 -0.00023904441331978887 -0.00043448625365272164 0.004773675464093685 0.00048758205957710743 -0.00023920592502690852 0.00048732178402133286 0.017564594745635986" pbc="T T T"
Li       1.08547019       1.18144209       5.19592375      -0.00009048       0.00270797       0.01019235
Li       1.08662016       2.29064184      -0.21705361       0.00064381      -0.00791731      -0.03295630
Li       3.38734125       0.06066228       0.26495431      -0.00009263      -0.00710350      -0.03423793
Li       3.38895211       3.41538295       4.75436073      -0.00005445       0.00704485       0.02888221
Li       1.08745050       3.05172077       3.14025352       0.00025810       0.00175226       0.00717062
Li       3.38778886       2.67880666       1.50610534       0.00044167      -0.00209622      -0.00979863
Ga       1.08877137       3.75445397       6.23715083      -0.00046623       0.00270761       0.01249617
Ga       3.38693365       0.83973053       3.69831161       0.00009146       0.00503927       0.02259403
Sn       3.38573334       1.56417349       6.89112272       0.00051596      -0.00567765      -0.02153819
Sn       1.08658271       0.46346088       2.02880185      -0.00124723       0.00354274       0.01719572
16
Lattice="4.364598970169355 -0.0029324607951472905 -0.0008226266536368816 -2.180455242832509 4.951001821832979 -0.007587727308046545 0.003077850830907515 0.021412208097300642 15.153465717057372" Properties=species:S:1:pos:R:3:forces:R:3 structure_index=12 total_energy=-49.47374725341797 stress="0.0012430597562342882 -3.663413008325733e-05 -2.8912352263432695e-06 -3.656001717899926e-05 -0.00012215446622576565 -0.00029265519697219133 -2.97556084660755e-06 -0.0002925835724454373 -0.001583301112987101" pbc="T T T"
Li       1.33242919       0.97925123      15.17042372      -0.00117133      -0.01990055      -0.00099422
Li      -0.85763490       4.15660300       8.54054842       0.00129328       0.02341541      -0.00569804
Li      -0.85291267       3.06754926      11.19695798      -0.00072640      -0.02326357       0.00817963
Li       3.50477583       1.28068887       7.59271501       0.00107675       0.02063156      -0.00203944
Li       3.50538296       1.26260609       4.57670963       0.00093279       0.02075017       0.00142460
Li      -0.85631580       4.13099426       3.62490859       0.00085805       0.02679499       0.00889035
Li       1.32993412       0.98739211      12.15204512      -0.00058406      -0.01967733       0.00175931
Li      -0.85212203       3.03956742       0.97158358      -0.00156619      -0.02586836      -0.00942110
Ga       1.32120152       0.29640510       6.08543188       0.00138567       0.04273680       0.00093006
Ga      -0.85045134       1.97499723      13.65785872       0.00069767      -0.04280091       0.00412575
Sn       3.50924068       0.11612590      10.43457464      -0.00028195      -0.01248332       0.01304519
Sn       1.32642202       2.12773775       2.85804328      -0.00016602       0.01205123       0.01316905
Sn       3.50985988       0.08545323       1.74309041      -0.00062166      -0.00832622      -0.01618674
Sn       1.32565488       2.15680872       9.31078989      -0.00014165       0.00931640      -0.01270273
Sn       1.32224304       3.28941655       6.08371358       0.00025688       0.04502819      -0.00163471
Sn       1.33353273       3.92766924      13.66179362      -0.00124183      -0.04840448      -0.00284697
10
Lattice="4.223977234664697 -0.001529119608807624 -0.7935223425249394 -0.14575762977395873 4.152447500318704 -0.7843947673725029 -0.11172642921424136 -0.07972643172539842 11.015889849952684" Properties=species:S:1:pos:R:3:forces:R:3 structure_index=13 total_energy=-30.495351791381836 stress="-0.013667103834450245 8.832354797050357e-05 0.0013491054996848106 8.835569315124303e-05 -0.0011556866811588407 -0.0007773511460982263 0.0013489387929439545 -0.000777459645178169 -0.009668733924627304" pbc="T T T"
Li      -0.03097266       1.99010833       5.66560425      -0.00361491      -0.00324815      -0.01368371
Li       2.84627273       0.63011107       9.34812340       0.00368207       0.00545077       0.01868639
Li       0.38295743       0.26987792       7.87918797      -0.00064408      -0.00239930      -0.00657089
Ga       0.61428740       2.66345513       9.11013097      -0.00364232      -0.00546936      -0.02198030
Ga       3.79371842       3.72413682       2.74479656      -0.00391902      -0.00387051      -0.01185840
Ga       2.04135631       4.09847473       5.05562081       0.00101987       0.00156643       0.00693199
Ga       3.30333238       3.22259969       0.16634713       0.00235989       0.00276478       0.00719474
Ga       2.42687511       2.34891820       7.11757019       0.00454751       0.00519025       0.02330312
Sn       1.70728864       1.59804417       3.29018613       0.00300889       0.00356440       0.00690352
Sn       1.17128217       1.05299691       0.45524619      -0.00279792      -0.00354931      -0.00892648
7
Lattice="4.461010478000654 0.0009088586518064386 1.4069501521092767 2.008280474330143 3.985440885727783 1.4097635359113971 0.020706612234659298 0.015040463770400194 7.727694516898285" Properties=species:S:1:pos:R:3:forces:R:3 structure_index=14 total_energy=-21.428672790527344 stress="0.01992107555270195 0.0004143858386669308 0.013979712501168251 0.00041454462916590273 0.025475211441516876 0.008780186995863914 0.013979816809296608 0.008780082687735558 -0.006053004413843155" pbc="T T T"
Li       3.38979305       2.18854207       3.43739653      -0.00178485      -0.00097784       0.00472418
Li       0.58800323       0.46291086       4.54714937       0.00025195      -0.00001402      -0.00014268
Li       4.25552412       2.72181519       8.47474510       0.00134496       0.00119281      -0.00394597
Ga       1.56353804       1.06166504       1.44529567       0.00999599       0.00695877      -0.03099070
Ga       6.06125563       3.83344408       2.73626569      -0.01118183      -0.00770941       0.03523199
Sn       5.16650197       3.28461179       5.58200087       0.00077774      -0.00052905      -0.00134968
Sn       2.47799183       1.62664021       6.33250746       0.00059606       0.00107874      -0.00352716
4
Lattice="4.207709337370141 -0.0007547139953891453 0.004020149008393458 0.0018422999278204805 4.207953009151818 0.0006518069292179932 -0.0009048723194214356 -0.0001456615137495647 4.25805596979045" Properties=species:S:1:pos:R:3:forces:R:3 structure_index=15 total_energy=-11.990571022033691 stress="-0.015345018357038498 0.0013701790012419224 0.002355479635298252 0.0013702218420803547 -0.014518355019390583 0.0003810052003245801 0.002355569042265415 0.0003809997870121151 0.09394166618585587" pbc="T T T"
Li       0.90099192       2.87000400       3.45481268      -0.00039851      -0.00011769      -0.00033098
Li       3.00333154       0.76547305       3.45648971       0.00002390       0.00007018      -0.00032176
Ga       3.00493518       2.86928582       1.32763763      -0.00038699       0.00041516       0.00005517
Sn       0.89962614       0.76611158       1.32504975       0.00076161      -0.00036765       0.00059757
6
Lattice="4.24058488181568 -0.013205694700128865 1.375246713207707 1.4849857082397206 5.224604733696871 1.8032107187720565 0.27867940359895027 -0.24134051398850653 6.007360987977129" Properties=species:S:1:pos:R:3:forces:R:3 structure_index=16 total_energy=-19.029542922973633 stress="-0.044573839753866196 -0.013505455106496811 0.013515294529497623 -0.01350545883178711 0.01958705298602581 0.0395796000957489 0.01351513247936964 0.03957945853471756 0.003513709641993046" pbc="T T T"
Li       4.47106611       3.54785635       7.30425216       0.00240588       0.01390880       0.01204024
Li       4.09268642       0.41312219       2.25509674      -0.00190580      -0.01328179      -0.01209406
Ga       2.67478911       1.43306940       5.97509015       0.01045296      -0.01572692       0.02698346
Ga       1.64896347       2.54230793       2.20865684      -0.00950398       0.01518885      -0.02550528
Sn       0.97887096       0.49399956       4.02323845      -0.00924315       0.00453382       0.03296075
Sn       3.34546493       3.48117327       4.16121667       0.00779407      -0.00462277      -0.03438510
3
Lattice="3.8618564866219858 0.018220754803191647 2.142676695310574 1.274912186591866 3.6419391968119497 2.1111376617062487 0.02451144305734417 0.02121750510874896 4.397820873894723" Properties=species:S:1:pos:R:3:forces:R:3 structure_index=17 total_energy=-9.19936466217041 stress="-0.06774597615003586 -0.0010172735201194882 -0.008324005641043186 -0.0010172930778935552 -0.0677344799041748 -0.03069799765944481 -0.00832424033433199 -0.030697954818606377 -0.10101249814033508" pbc="T T T"
Li       1.99458104       3.55087436       3.75253866       0.00475820      -0.00142822       0.00293924
Ga       2.02881621       0.83805152       3.82927159      -0.01658902      -0.01066034      -0.02669506
Sn       4.54772466       2.63673016       3.70503511       0.01183080       0.01208855       0.02375581
12
Lattice="3.2885556643991753 0.002927218965920201 -0.0018957726947948122 -0.003796560795095111 5.264973233539616 -0.6833113665894374 0.0057128238431061575 -0.28375662481115943 15.294201124392432" Properties=species:S:1:pos:R:3:forces:R:3 structure_index=18 total_energy=-39.18950653076172 stress="0.018951090052723885 0.0006822103750891984 0.00013648004096467048 0.000682198500726372 0.02265075594186783 -0.01380192767828703 0.00013641225814353675 -0.013802002184092999 0.02616174891591072" pbc="T T T"
Li       2.33362038       2.57667020      10.09515583      -0.00020450      -0.01699916       0.02564090
Li       0.68905736       0.47579216       2.93597249      -0.00058416      -0.01523029       0.03643670
Li       2.33200043       0.45489782       7.98218344       0.00031679       0.00343646       0.00177826
Ga       0.68609969       1.97472101       0.27064317      -0.00077676      -0.00423884      -0.03471402
Ga       0.68644128       3.82986421      12.34343950       0.00109333       0.03508919      -0.01015143
Ga       2.33161066       1.92057660       5.43768454      -0.00060358       0.00550384      -0.04226941
Ga       0.68583870       2.96290795       7.61329021       0.00085550       0.01185662      -0.02062885
Sn       2.33017439       3.09918093       2.67954989       0.00005620       0.02954643      -0.00263871
Sn       0.68399778       4.59918674       5.07827547       0.00050825      -0.01943024       0.03284429
Sn       0.69170672      -0.09682282      10.37302554      -0.00099377      -0.01076415      -0.04440618
Sn       2.32603871       4.58293879      -0.30464406       0.00072251      -0.00424338       0.03307045
Sn       2.33566815       1.27835654      12.95716536      -0.00038982      -0.01452651       0.02503802
12
Lattice="4.817430697152244 -0.002375666718671769 -0.0026876564132209922 -2.4130338891531484 4.168485530148771 -0.0015249611661356927 -8.49843475066803e-05 -0.006075971656805335 12.503402901668046" Properties=species:S:1:pos:R:3:forces:R:3 structure_index=19 total_energy=-37.9641227722168 stress="-0.026560867205262184 0.0005006192368455231 9.103024058276787e-05 0.0005005940911360085 -0.02590523287653923 -8.48649360705167e-05 9.096634312300012e-05 -8.478944801026955e-05 0.02549087069928646" pbc="T T T"
Li       2.98957467       0.36245576      12.09969196      -0.00050122       0.00037104      -0.00041756
Li       2.98982503       0.36474099       8.98052027      -0.00006312      -0.00006748      -0.00148420
Li       2.98923579       0.36716248       2.72761071      -0.00005185       0.00002067      -0.00123141
Li       2.98886179       0.36623340       5.85049146       0.00049694      -0.00036423       0.00024155
Ga       2.98729476       3.13979101      10.74624236       0.00034460      -0.00119534      -0.01937658
Ga       2.98822198       3.14638042       0.94463976       0.00092313       0.00026577       0.02196560
Ga       0.57872455       1.75769651       7.20082534      -0.00046037       0.00114425       0.02075197
Ga       0.57699836       1.75672236       4.49964573      -0.00072446      -0.00019798      -0.02187699
Sn       0.57859450       1.75193477      10.31776048       0.00002453       0.00134701       0.03703625
Sn       2.98497207       3.14315356       4.06782388       0.00086872       0.00065770       0.03282066
Sn       0.58030612       1.75995043       1.37504989      -0.00083309      -0.00067114      -0.03185195