# Thermal properties / unit cell (natom)

unit:
  temperature:   K
  free_energy:   kJ/mol
  entropy:       J/K/mol
  heat_capacity: J/K/mol

natom: 2    
cutoff_frequency: 0.00000
num_modes: 138384
num_integrated_modes: 138381

zero_point_energy:       5.6251482

thermal_properties:
- temperature:         0.0000000
  free_energy:         5.6251482
  entropy:             0.0000000
  heat_capacity:       0.0000000
  energy:              5.6251482

- temperature:        10.0000000
  free_energy:         5.6245104
  entropy:             0.2686882
  heat_capacity:       0.8762070
  energy:              5.6271972

- temperature:        20.0000000
  free_energy:         5.6135872
  entropy:             2.3030404
  heat_capacity:       6.2498572
  energy:              5.6596480

- temperature:        30.0000000
  free_energy:         5.5727019
  entropy:             6.0349831
  heat_capacity:      12.3233738
  energy:              5.7537514

- temperature:        40.0000000
  free_energy:         5.4914616
  entropy:            10.2266050
  heat_capacity:      16.7985351
  energy:              5.9005258

- temperature:        50.0000000
  free_energy:         5.3684031
  entropy:            14.3604201
  heat_capacity:      20.2724192
  energy:              6.0864241

- temperature:        60.0000000
  free_energy:         5.2048175
  entropy:            18.3277050
  heat_capacity:      23.2857646
  energy:              6.3044798

- temperature:        70.0000000
  free_energy:         5.0024113
  entropy:            22.1265361
  heat_capacity:      26.0331095
  energy:              6.5512689

- temperature:        80.0000000
  free_energy:         4.7628053
  entropy:            25.7696443
  heat_capacity:      28.5498336
  energy:              6.8243768

- temperature:        90.0000000
  free_energy:         4.4875061
  entropy:            29.2663396
  heat_capacity:      30.8300712
  energy:              7.1214766

- temperature:       100.0000000
  free_energy:         4.1779475
  entropy:            32.6222776
  heat_capacity:      32.8698230
  energy:              7.4401753

- temperature:       110.0000000
  free_energy:         3.8355159
  entropy:            35.8416174
  heat_capacity:      34.6760805
  energy:              7.7780938

- temperature:       120.0000000
  free_energy:         3.4615569
  entropy:            38.9284527
  heat_capacity:      36.2648042
  energy:              8.1329712

- temperature:       130.0000000
  free_energy:         3.0573732
  entropy:            41.8873917
  heat_capacity:      37.6568530
  energy:              8.5027341

- temperature:       140.0000000
  free_energy:         2.6242181
  entropy:            44.7236391
  heat_capacity:      38.8746598
  energy:              8.8855276

- temperature:       150.0000000
  free_energy:         2.1632905
  entropy:            47.4428610
  heat_capacity:      39.9401148
  energy:              9.2797197

- temperature:       160.0000000
  free_energy:         1.6757312
  entropy:            50.0509903
  heat_capacity:      40.8734294
  energy:              9.6838896

- temperature:       170.0000000
  free_energy:         1.1626210
  entropy:            52.5540425
  heat_capacity:      41.6926513
  energy:             10.0968082

- temperature:       180.0000000
  free_energy:         0.6249808
  entropy:            54.9579693
  heat_capacity:      42.4135651
  energy:             10.5174152

- temperature:       190.0000000
  free_energy:         0.0637727
  entropy:            57.2685513
  heat_capacity:      43.0497989
  energy:             10.9447975

- temperature:       200.0000000
  free_energy:        -0.5200976
  entropy:            59.4913283
  heat_capacity:      43.6130285
  energy:             11.3781680

- temperature:       210.0000000
  free_energy:        -1.1257787
  entropy:            61.6315560
  heat_capacity:      44.1132129
  energy:             11.8168480

- temperature:       220.0000000
  free_energy:        -1.7524701
  entropy:            63.6941848
  heat_capacity:      44.5588302
  energy:             12.2602505

- temperature:       230.0000000
  free_energy:        -2.3994193
  entropy:            65.6838529
  heat_capacity:      44.9570940
  energy:             12.7078669

- temperature:       240.0000000
  free_energy:        -3.0659184
  entropy:            67.6048900
  heat_capacity:      45.3141471
  energy:             13.1592552

- temperature:       250.0000000
  free_energy:        -3.7513018
  entropy:            69.4613272
  heat_capacity:      45.6352277
  energy:             13.6140300

- temperature:       260.0000000
  free_energy:        -4.4549422
  entropy:            71.2569114
  heat_capacity:      45.9248121
  energy:             14.0718548

- temperature:       270.0000000
  free_energy:        -5.1762488
  entropy:            72.9951218
  heat_capacity:      46.1867345
  energy:             14.5324341

- temperature:       280.0000000
  free_energy:        -5.9146641
  entropy:            74.6791873
  heat_capacity:      46.4242878
  energy:             14.9955083

- temperature:       290.0000000
  free_energy:        -6.6696620
  entropy:            76.3121041
  heat_capacity:      46.6403081
  energy:             15.4608482

- temperature:       300.0000000
  free_energy:        -7.4407450
  entropy:            77.8966531
  heat_capacity:      46.8372454
  energy:             15.9282509

- temperature:       310.0000000
  free_energy:        -8.2274425
  entropy:            79.4354163
  heat_capacity:      47.0172217
  energy:             16.3975366

- temperature:       320.0000000
  free_energy:        -9.0293087
  entropy:            80.9307929
  heat_capacity:      47.1820811
  energy:             16.8685450

- temperature:       330.0000000
  free_energy:        -9.8459212
  entropy:            82.3850132
  heat_capacity:      47.3334304
  energy:             17.3411332

- temperature:       340.0000000
  free_energy:       -10.6768788
  entropy:            83.8001529
  heat_capacity:      47.4726738
  energy:             17.8151732

- temperature:       350.0000000
  free_energy:       -11.5218004
  entropy:            85.1781453
  heat_capacity:      47.6010423
  energy:             18.2905504

- temperature:       360.0000000
  free_energy:       -12.3803239
  entropy:            86.5207925
  heat_capacity:      47.7196173
  energy:             18.7671615

- temperature:       370.0000000
  free_energy:       -13.2521041
  entropy:            87.8297767
  heat_capacity:      47.8293521
  energy:             19.2449133

- temperature:       380.0000000
  free_energy:       -14.1368124
  entropy:            89.1066692
  heat_capacity:      47.9310889
  energy:             19.7237218

- temperature:       390.0000000
  free_energy:       -15.0341354
  entropy:            90.3529393
  heat_capacity:      48.0255739
  energy:             20.2035109

- temperature:       400.0000000
  free_energy:       -15.9437737
  entropy:            91.5699628
  heat_capacity:      48.1134694
  energy:             20.6842114

- temperature:       410.0000000
  free_energy:       -16.8654415
  entropy:            92.7590288
  heat_capacity:      48.1953654
  energy:             21.1657603

- temperature:       420.0000000
  free_energy:       -17.7988652
  entropy:            93.9213467
  heat_capacity:      48.2717880
  energy:             21.6481004

- temperature:       430.0000000
  free_energy:       -18.7437830
  entropy:            95.0580522
  heat_capacity:      48.3432079
  energy:             22.1311794

- temperature:       440.0000000
  free_energy:       -19.6999444
  entropy:            96.1702130
  heat_capacity:      48.4100468
  energy:             22.6149493

- temperature:       450.0000000
  free_energy:       -20.6671088
  entropy:            97.2588337
  heat_capacity:      48.4726836
  energy:             23.0993663

- temperature:       460.0000000
  free_energy:       -21.6450458
  entropy:            98.3248607
  heat_capacity:      48.5314593
  energy:             23.5843901

- temperature:       470.0000000
  free_energy:       -22.6335337
  entropy:            99.3691860
  heat_capacity:      48.5866812
  energy:             24.0699837

- temperature:       480.0000000
  free_energy:       -23.6323600
  entropy:           100.3926517
  heat_capacity:      48.6386273
  energy:             24.5561128

- temperature:       490.0000000
  free_energy:       -24.6413199
  entropy:           101.3960531
  heat_capacity:      48.6875489
  energy:             25.0427461

- temperature:       500.0000000
  free_energy:       -25.6602167
  entropy:           102.3801423
  heat_capacity:      48.7336742
  energy:             25.5298545

- temperature:       510.0000000
  free_energy:       -26.6888607
  entropy:           103.3456308
  heat_capacity:      48.7772102
  energy:             26.0174110

- temperature:       520.0000000
  free_energy:       -27.7270695
  entropy:           104.2931927
  heat_capacity:      48.8183454
  energy:             26.5053907

- temperature:       530.0000000
  free_energy:       -28.7746670
  entropy:           105.2234669
  heat_capacity:      48.8572518
  energy:             26.9937705

- temperature:       540.0000000
  free_energy:       -29.8314833
  entropy:           106.1370594
  heat_capacity:      48.8940861
  energy:             27.4825288

- temperature:       550.0000000
  free_energy:       -30.8973545
  entropy:           107.0345459
  heat_capacity:      48.9289916
  energy:             27.9716458

- temperature:       560.0000000
  free_energy:       -31.9721223
  entropy:           107.9164732
  heat_capacity:      48.9620999
  energy:             28.4611027

- temperature:       570.0000000
  free_energy:       -33.0556338
  entropy:           108.7833614
  heat_capacity:      48.9935311
  energy:             28.9508822

- temperature:       580.0000000
  free_energy:       -34.1477411
  entropy:           109.6357054
  heat_capacity:      49.0233960
  energy:             29.4409681

- temperature:       590.0000000
  free_energy:       -35.2483010
  entropy:           110.4739767
  heat_capacity:      49.0517961
  energy:             29.9313452

- temperature:       600.0000000
  free_energy:       -36.3571752
  entropy:           111.2986244
  heat_capacity:      49.0788251
  energy:             30.4219994

- temperature:       610.0000000
  free_energy:       -37.4742295
  entropy:           112.1100770
  heat_capacity:      49.1045692
  energy:             30.9129174

- temperature:       620.0000000
  free_energy:       -38.5993341
  entropy:           112.9087434
  heat_capacity:      49.1291082
  energy:             31.4040868

- temperature:       630.0000000
  free_energy:       -39.7323631
  entropy:           113.6950141
  heat_capacity:      49.1525156
  energy:             31.8954958

- temperature:       640.0000000
  free_energy:       -40.8731943
  entropy:           114.4692623
  heat_capacity:      49.1748596
  energy:             32.3871336

- temperature:       650.0000000
  free_energy:       -42.0217094
  entropy:           115.2318448
  heat_capacity:      49.1962032
  energy:             32.8789897

- temperature:       660.0000000
  free_energy:       -43.1777935
  entropy:           115.9831030
  heat_capacity:      49.2166050
  energy:             33.3710545

- temperature:       670.0000000
  free_energy:       -44.3413348
  entropy:           116.7233637
  heat_capacity:      49.2361192
  energy:             33.8633188

- temperature:       680.0000000
  free_energy:       -45.5122251
  entropy:           117.4529400
  heat_capacity:      49.2547964
  energy:             34.3557741

- temperature:       690.0000000
  free_energy:       -46.6903590
  entropy:           118.1721321
  heat_capacity:      49.2726835
  energy:             34.8484121

- temperature:       700.0000000
  free_energy:       -47.8756341
  entropy:           118.8812277
  heat_capacity:      49.2898243
  energy:             35.3412253

- temperature:       710.0000000
  free_energy:       -49.0679508
  entropy:           119.5805030
  heat_capacity:      49.3062594
  energy:             35.8342063

- temperature:       720.0000000
  free_energy:       -50.2672123
  entropy:           120.2702230
  heat_capacity:      49.3220270
  energy:             36.3273482

- temperature:       730.0000000
  free_energy:       -51.4733243
  entropy:           120.9506425
  heat_capacity:      49.3371624
  energy:             36.8206447

- temperature:       740.0000000
  free_energy:       -52.6861950
  entropy:           121.6220060
  heat_capacity:      49.3516990
  energy:             37.3140895

- temperature:       750.0000000
  free_energy:       -53.9057350
  entropy:           122.2845491
  heat_capacity:      49.3656678
  energy:             37.8076768

- temperature:       760.0000000
  free_energy:       -55.1318573
  entropy:           122.9384979
  heat_capacity:      49.3790978
  energy:             38.3014011

- temperature:       770.0000000
  free_energy:       -56.3644771
  entropy:           123.5840702
  heat_capacity:      49.3920163
  energy:             38.7952570

- temperature:       780.0000000
  free_energy:       -57.6035115
  entropy:           124.2214760
  heat_capacity:      49.4044489
  energy:             39.2892398

- temperature:       790.0000000
  free_energy:       -58.8488800
  entropy:           124.8509171
  heat_capacity:      49.4164194
  energy:             39.7833445

- temperature:       800.0000000
  free_energy:       -60.1005039
  entropy:           125.4725883
  heat_capacity:      49.4279505
  energy:             40.2775667

- temperature:       810.0000000
  free_energy:       -61.3583065
  entropy:           126.0866773
  heat_capacity:      49.4390633
  energy:             40.7719021

- temperature:       820.0000000
  free_energy:       -62.6222128
  entropy:           126.6933652
  heat_capacity:      49.4497778
  energy:             41.2663466

- temperature:       830.0000000
  free_energy:       -63.8921497
  entropy:           127.2928266
  heat_capacity:      49.4601126
  energy:             41.7608964

- temperature:       840.0000000
  free_energy:       -65.1680458
  entropy:           127.8852304
  heat_capacity:      49.4700855
  energy:             42.2555477

- temperature:       850.0000000
  free_energy:       -66.4498314
  entropy:           128.4707392
  heat_capacity:      49.4797130
  energy:             42.7502969

- temperature:       860.0000000
  free_energy:       -67.7374382
  entropy:           129.0495104
  heat_capacity:      49.4890110
  energy:             43.2451408

- temperature:       870.0000000
  free_energy:       -69.0307996
  entropy:           129.6216962
  heat_capacity:      49.4979942
  energy:             43.7400761

- temperature:       880.0000000
  free_energy:       -70.3298506
  entropy:           130.1874436
  heat_capacity:      49.5066766
  energy:             44.2350997

- temperature:       890.0000000
  free_energy:       -71.6345275
  entropy:           130.7468946
  heat_capacity:      49.5150715
  energy:             44.7302087

- temperature:       900.0000000
  free_energy:       -72.9447680
  entropy:           131.3001869
  heat_capacity:      49.5231915
  energy:             45.2254002

- temperature:       910.0000000
  free_energy:       -74.2605111
  entropy:           131.8474536
  heat_capacity:      49.5310482
  energy:             45.7206716

- temperature:       920.0000000
  free_energy:       -75.5816974
  entropy:           132.3888236
  heat_capacity:      49.5386530
  energy:             46.2160203

- temperature:       930.0000000
  free_energy:       -76.9082684
  entropy:           132.9244218
  heat_capacity:      49.5460165
  energy:             46.7114439

- temperature:       940.0000000
  free_energy:       -78.2401670
  entropy:           133.4543690
  heat_capacity:      49.5531488
  energy:             47.2069399

- temperature:       950.0000000
  free_energy:       -79.5773373
  entropy:           133.9787826
  heat_capacity:      49.5600594
  energy:             47.7025061

- temperature:       960.0000000
  free_energy:       -80.9197246
  entropy:           134.4977760
  heat_capacity:      49.5667573
  energy:             48.1981404

- temperature:       970.0000000
  free_energy:       -82.2672751
  entropy:           135.0114595
  heat_capacity:      49.5732513
  energy:             48.6938406

- temperature:       980.0000000
  free_energy:       -83.6199364
  entropy:           135.5199400
  heat_capacity:      49.5795495
  energy:             49.1896048

- temperature:       990.0000000
  free_energy:       -84.9776569
  entropy:           136.0233211
  heat_capacity:      49.5856596
  energy:             49.6854310

- temperature:      1000.0000000
  free_energy:       -86.3403862
  entropy:           136.5217035
  heat_capacity:      49.5915891
  energy:             50.1813173
