# Thermal properties / unit cell (natom)

unit:
  temperature:   K
  free_energy:   kJ/mol
  entropy:       J/K/mol
  heat_capacity: J/K/mol

natom: 12   
cutoff_frequency: 0.00000
num_modes: 126720
num_integrated_modes: 126718

zero_point_energy:      29.1873879

thermal_properties:
- temperature:         0.0000000
  free_energy:        29.1873879
  entropy:             0.0000000
  heat_capacity:       0.0000000
  energy:             29.1873879

- temperature:        10.0000000
  free_energy:        29.1814175
  entropy:             2.5204299
  heat_capacity:       8.4070348
  energy:             29.2066218

- temperature:        20.0000000
  free_energy:        29.0833249
  entropy:            19.8889106
  heat_capacity:      49.6017738
  energy:             29.4811032

- temperature:        30.0000000
  free_energy:        28.7476060
  entropy:            48.1183274
  heat_capacity:      90.3783206
  energy:             30.1911558

- temperature:        40.0000000
  free_energy:        28.1150753
  entropy:            78.3324743
  heat_capacity:     119.4426760
  energy:             31.2483742

- temperature:        50.0000000
  free_energy:        27.1849092
  entropy:           107.4348228
  heat_capacity:     141.4113099
  energy:             32.5566503

- temperature:        60.0000000
  free_energy:        25.9719392
  entropy:           134.8848275
  heat_capacity:     159.8323939
  energy:             34.0650289

- temperature:        70.0000000
  free_energy:        24.4924450
  entropy:           160.7661495
  heat_capacity:     176.0572601
  energy:             35.7460755

- temperature:        80.0000000
  free_energy:        22.7613195
  entropy:           185.2352149
  heat_capacity:     190.4640399
  energy:             37.5801367

- temperature:        90.0000000
  free_energy:        20.7920234
  entropy:           208.4184820
  heat_capacity:     203.1701711
  energy:             39.5496868

- temperature:       100.0000000
  free_energy:        18.5969106
  entropy:           230.4129955
  heat_capacity:     214.2786343
  energy:             41.6382102

- temperature:       110.0000000
  free_energy:        16.1874564
  entropy:           251.2993750
  heat_capacity:     223.9263683
  energy:             43.8303877

- temperature:       120.0000000
  free_energy:        13.5743744
  entropy:           271.1502398
  heat_capacity:     232.2739362
  energy:             46.1124032

- temperature:       130.0000000
  free_energy:        10.7676752
  entropy:           290.0339267
  heat_capacity:     239.4869884
  energy:             48.4720857

- temperature:       140.0000000
  free_energy:         7.7767022
  entropy:           308.0156102
  heat_capacity:     245.7229201
  energy:             50.8988876

- temperature:       150.0000000
  free_energy:         4.6101625
  entropy:           325.1573351
  heat_capacity:     251.1238507
  energy:             53.3837628

- temperature:       160.0000000
  free_energy:         1.2761595
  entropy:           341.5177390
  heat_capacity:     255.8141144
  energy:             55.9189977

- temperature:       170.0000000
  free_energy:        -2.2177716
  entropy:           357.1517947
  heat_capacity:     259.9003850
  energy:             58.4980335

- temperature:       180.0000000
  free_energy:        -5.8646262
  entropy:           372.1106748
  heat_capacity:     263.4731154
  energy:             61.1152952

- temperature:       190.0000000
  free_energy:        -9.6578928
  entropy:           386.4417481
  heat_capacity:     266.6084945
  energy:             63.7660394

- temperature:       200.0000000
  free_energy:       -13.5915145
  entropy:           400.1886805
  heat_capacity:     269.3704876
  energy:             66.4462216

- temperature:       210.0000000
  free_energy:       -17.6598534
  entropy:           413.3916080
  heat_capacity:     271.8127449
  energy:             69.1523843

- temperature:       220.0000000
  free_energy:       -21.8576563
  entropy:           426.0873545
  heat_capacity:     273.9802918
  energy:             71.8815616

- temperature:       230.0000000
  free_energy:       -26.1800227
  entropy:           438.3096693
  heat_capacity:     275.9109784
  energy:             74.6312013

- temperature:       240.0000000
  free_energy:       -30.6223750
  entropy:           450.0894730
  heat_capacity:     277.6366982
  energy:             77.3990985

- temperature:       250.0000000
  free_energy:       -35.1804318
  entropy:           461.4550964
  heat_capacity:     279.1844026
  energy:             80.1833423

- temperature:       260.0000000
  free_energy:       -39.8501831
  entropy:           472.4325110
  heat_capacity:     280.5769389
  energy:             82.9822697

- temperature:       270.0000000
  free_energy:       -44.6278676
  entropy:           483.0455429
  heat_capacity:     281.8337403
  energy:             85.7944289

- temperature:       280.0000000
  free_energy:       -49.5099525
  entropy:           493.3160719
  heat_capacity:     282.9713931
  energy:             88.6185476

- temperature:       290.0000000
  free_energy:       -54.4931146
  entropy:           503.2642132
  heat_capacity:     284.0041034
  energy:             91.4535072

- temperature:       300.0000000
  free_energy:       -59.5742240
  entropy:           512.9084826
  heat_capacity:     284.9440809
  energy:             94.2983208

- temperature:       310.0000000
  free_energy:       -64.7503284
  entropy:           522.2659464
  heat_capacity:     285.8018558
  energy:             97.1521150

- temperature:       320.0000000
  free_energy:       -70.0186396
  entropy:           531.3523561
  heat_capacity:     286.5865407
  energy:            100.0141144

- temperature:       330.0000000
  free_energy:       -75.3765207
  entropy:           540.1822706
  heat_capacity:     287.3060473
  energy:            102.8836286

- temperature:       340.0000000
  free_energy:       -80.8214750
  entropy:           548.7691652
  heat_capacity:     287.9672672
  energy:            105.7600411

- temperature:       350.0000000
  free_energy:       -86.3511356
  entropy:           557.1255300
  heat_capacity:     288.5762219
  energy:            108.6427998

- temperature:       360.0000000
  free_energy:       -91.9632559
  entropy:           565.2629582
  heat_capacity:     289.1381890
  energy:            111.5314090

- temperature:       370.0000000
  free_energy:       -97.6557010
  entropy:           573.1922258
  heat_capacity:     289.6578074
  energy:            114.4254225

- temperature:       380.0000000
  free_energy:      -103.4264401
  entropy:           580.9233626
  heat_capacity:     290.1391664
  energy:            117.3244377

- temperature:       390.0000000
  free_energy:      -109.2735391
  entropy:           588.4657166
  heat_capacity:     290.5858807
  energy:            120.2280904

- temperature:       400.0000000
  free_energy:      -115.1951543
  entropy:           595.8280121
  heat_capacity:     291.0011539
  energy:            123.1360505

- temperature:       410.0000000
  free_energy:      -121.1895263
  entropy:           603.0184013
  heat_capacity:     291.3878327
  energy:            126.0480182

- temperature:       420.0000000
  free_energy:      -127.2549748
  entropy:           610.0445122
  heat_capacity:     291.7484525
  energy:            128.9637204

- temperature:       430.0000000
  free_energy:      -133.3898929
  entropy:           616.9134903
  heat_capacity:     292.0852775
  energy:            131.8829080

- temperature:       440.0000000
  free_energy:      -139.5927432
  entropy:           623.6320376
  heat_capacity:     292.4003338
  energy:            134.8053534

- temperature:       450.0000000
  free_energy:      -145.8620532
  entropy:           630.2064475
  heat_capacity:     292.6954386
  energy:            137.7308482

- temperature:       460.0000000
  free_energy:      -152.1964114
  entropy:           636.6426360
  heat_capacity:     292.9722255
  energy:            140.6592011

- temperature:       470.0000000
  free_energy:      -158.5944638
  entropy:           642.9461709
  heat_capacity:     293.2321657
  energy:            143.5902365

- temperature:       480.0000000
  free_energy:      -165.0549102
  entropy:           649.1222977
  heat_capacity:     293.4765871
  energy:            146.5237927

- temperature:       490.0000000
  free_energy:      -171.5765016
  entropy:           655.1759635
  heat_capacity:     293.7066905
  energy:            149.4597206

- temperature:       500.0000000
  free_energy:      -178.1580368
  entropy:           661.1118386
  heat_capacity:     293.9235635
  energy:            152.3978824

- temperature:       510.0000000
  free_energy:      -184.7983604
  entropy:           666.9343362
  heat_capacity:     294.1281936
  energy:            155.3381510

- temperature:       520.0000000
  free_energy:      -191.4963596
  entropy:           672.6476309
  heat_capacity:     294.3214782
  energy:            158.2804085

- temperature:       530.0000000
  free_energy:      -198.2509622
  entropy:           678.2556750
  heat_capacity:     294.5042348
  energy:            161.2245455

- temperature:       540.0000000
  free_energy:      -205.0611348
  entropy:           683.7622136
  heat_capacity:     294.6772091
  energy:            164.1704606

- temperature:       550.0000000
  free_energy:      -211.9258800
  entropy:           689.1707989
  heat_capacity:     294.8410822
  energy:            167.1180594

- temperature:       560.0000000
  free_energy:      -218.8442355
  entropy:           694.4848026
  heat_capacity:     294.9964776
  energy:            170.0672540

- temperature:       570.0000000
  free_energy:      -225.8152715
  entropy:           699.7074282
  heat_capacity:     295.1439664
  energy:            173.0179626

- temperature:       580.0000000
  free_energy:      -232.8380896
  entropy:           704.8417212
  heat_capacity:     295.2840729
  energy:            175.9701087

- temperature:       590.0000000
  free_energy:      -239.9118211
  entropy:           709.8905800
  heat_capacity:     295.4172788
  energy:            178.9236210

- temperature:       600.0000000
  free_energy:      -247.0356257
  entropy:           714.8567640
  heat_capacity:     295.5440274
  energy:            181.8784328

- temperature:       610.0000000
  free_energy:      -254.2086896
  entropy:           719.7429033
  heat_capacity:     295.6647272
  energy:            184.8344814

- temperature:       620.0000000
  free_energy:      -261.4302253
  entropy:           724.5515059
  heat_capacity:     295.7797550
  energy:            187.7917084

- temperature:       630.0000000
  free_energy:      -268.6994693
  entropy:           729.2849652
  heat_capacity:     295.8894589
  energy:            190.7500588

- temperature:       640.0000000
  free_energy:      -276.0156817
  entropy:           733.9455666
  heat_capacity:     295.9941608
  energy:            193.7094809

- temperature:       650.0000000
  free_energy:      -283.3781450
  entropy:           738.5354944
  heat_capacity:     296.0941589
  energy:            196.6699263

- temperature:       660.0000000
  free_energy:      -290.7861630
  entropy:           743.0568369
  heat_capacity:     296.1897294
  energy:            199.6313493

- temperature:       670.0000000
  free_energy:      -298.2390598
  entropy:           747.5115923
  heat_capacity:     296.2811287
  energy:            202.5937070

- temperature:       680.0000000
  free_energy:      -305.7361793
  entropy:           751.9016736
  heat_capacity:     296.3685951
  energy:            205.5569588

- temperature:       690.0000000
  free_energy:      -313.2768838
  entropy:           756.2289136
  heat_capacity:     296.4523501
  energy:            208.5210665

- temperature:       700.0000000
  free_energy:      -320.8605539
  entropy:           760.4950687
  heat_capacity:     296.5325998
  energy:            211.4859941

- temperature:       710.0000000
  free_energy:      -328.4865872
  entropy:           764.7018235
  heat_capacity:     296.6095363
  energy:            214.4517075

- temperature:       720.0000000
  free_energy:      -336.1543978
  entropy:           768.8507947
  heat_capacity:     296.6833389
  energy:            217.4181744

- temperature:       730.0000000
  free_energy:      -343.8634157
  entropy:           772.9435343
  heat_capacity:     296.7541749
  energy:            220.3853644

- temperature:       740.0000000
  free_energy:      -351.6130860
  entropy:           776.9815332
  heat_capacity:     296.8222005
  energy:            223.3532485

- temperature:       750.0000000
  free_energy:      -359.4028687
  entropy:           780.9662242
  heat_capacity:     296.8875620
  energy:            226.3217995

- temperature:       760.0000000
  free_energy:      -367.2322374
  entropy:           784.8989852
  heat_capacity:     296.9503962
  energy:            229.2909913

- temperature:       770.0000000
  free_energy:      -375.1006797
  entropy:           788.7811417
  heat_capacity:     297.0108312
  energy:            232.2607994

- temperature:       780.0000000
  free_energy:      -383.0076958
  entropy:           792.6139695
  heat_capacity:     297.0689874
  energy:            235.2312004

- temperature:       790.0000000
  free_energy:      -390.9527988
  entropy:           796.3986971
  heat_capacity:     297.1249774
  energy:            238.2021720

- temperature:       800.0000000
  free_energy:      -398.9355134
  entropy:           800.1365081
  heat_capacity:     297.1789073
  energy:            241.1736931

- temperature:       810.0000000
  free_energy:      -406.9553763
  entropy:           803.8285431
  heat_capacity:     297.2308764
  energy:            244.1457436

- temperature:       820.0000000
  free_energy:      -415.0119353
  entropy:           807.4759021
  heat_capacity:     297.2809786
  energy:            247.1183044

- temperature:       830.0000000
  free_energy:      -423.1047490
  entropy:           811.0796460
  heat_capacity:     297.3293018
  energy:            250.0913572

- temperature:       840.0000000
  free_energy:      -431.2333863
  entropy:           814.6407989
  heat_capacity:     297.3759290
  energy:            253.0648847

- temperature:       850.0000000
  free_energy:      -439.3974263
  entropy:           818.1603491
  heat_capacity:     297.4209386
  energy:            256.0388704

- temperature:       860.0000000
  free_energy:      -447.5964578
  entropy:           821.6392513
  heat_capacity:     297.4644042
  energy:            259.0132984

- temperature:       870.0000000
  free_energy:      -455.8300789
  entropy:           825.0784281
  heat_capacity:     297.5063955
  energy:            261.9881536

- temperature:       880.0000000
  free_energy:      -464.0978969
  entropy:           828.4787710
  heat_capacity:     297.5469783
  energy:            264.9634216

- temperature:       890.0000000
  free_energy:      -472.3995278
  entropy:           831.8411420
  heat_capacity:     297.5862146
  energy:            267.9390886

- temperature:       900.0000000
  free_energy:      -480.7345960
  entropy:           835.1663750
  heat_capacity:     297.6241633
  energy:            270.9151416

- temperature:       910.0000000
  free_energy:      -489.1027342
  entropy:           838.4552769
  heat_capacity:     297.6608799
  energy:            273.8915678

- temperature:       920.0000000
  free_energy:      -497.5035830
  entropy:           841.7086285
  heat_capacity:     297.6964172
  energy:            276.8683553

- temperature:       930.0000000
  free_energy:      -505.9367908
  entropy:           844.9271862
  heat_capacity:     297.7308248
  energy:            279.8454924

- temperature:       940.0000000
  free_energy:      -514.4020132
  entropy:           848.1116823
  heat_capacity:     297.7641502
  energy:            282.8229681

- temperature:       950.0000000
  free_energy:      -522.8989132
  entropy:           851.2628265
  heat_capacity:     297.7964381
  energy:            285.8007719

- temperature:       960.0000000
  free_energy:      -531.4271608
  entropy:           854.3813067
  heat_capacity:     297.8277311
  energy:            288.7788936

- temperature:       970.0000000
  free_energy:      -539.9864327
  entropy:           857.4677898
  heat_capacity:     297.8580695
  energy:            291.7573234

- temperature:       980.0000000
  free_energy:      -548.5764121
  entropy:           860.5229225
  heat_capacity:     297.8874916
  energy:            294.7360519

- temperature:       990.0000000
  free_energy:      -557.1967888
  entropy:           863.5473323
  heat_capacity:     297.9160340
  energy:            297.7150703

- temperature:      1000.0000000
  free_energy:      -565.8472584
  entropy:           866.5416282
  heat_capacity:     297.9437313
  energy:            300.6943698
