# Thermal properties / unit cell (natom)

unit:
  temperature:   K
  free_energy:   kJ/mol
  entropy:       J/K/mol
  heat_capacity: J/K/mol

natom: 12   
cutoff_frequency: 0.00000
num_modes: 172800
num_integrated_modes: 172798

zero_point_energy:      34.4471874

thermal_properties:
- temperature:         0.0000000
  free_energy:        34.4471874
  entropy:             0.0000000
  heat_capacity:       0.0000000
  energy:             34.4471874

- temperature:        10.0000000
  free_energy:        34.4447942
  entropy:             0.9651505
  heat_capacity:       3.2371983
  energy:             34.4544457

- temperature:        20.0000000
  free_energy:        34.4028963
  entropy:             9.1476394
  heat_capacity:      26.7506686
  energy:             34.5858491

- temperature:        30.0000000
  free_energy:        34.2305431
  entropy:            26.4926682
  heat_capacity:      61.1950641
  energy:             35.0253231

- temperature:        40.0000000
  free_energy:        33.8580779
  entropy:            48.4067095
  heat_capacity:      91.5257686
  energy:             35.7943463

- temperature:        50.0000000
  free_energy:        33.2585582
  entropy:            71.5437061
  heat_capacity:     115.9132643
  energy:             36.8357435

- temperature:        60.0000000
  free_energy:        32.4278209
  entropy:            94.5236676
  heat_capacity:     136.2603609
  energy:             38.0992410

- temperature:        70.0000000
  free_energy:        31.3701688
  entropy:           116.8877093
  heat_capacity:     153.9874225
  energy:             39.5523084

- temperature:        80.0000000
  free_energy:        30.0925885
  entropy:           138.4979664
  heat_capacity:     169.7333870
  energy:             41.1724258

- temperature:        90.0000000
  free_energy:        28.6028557
  entropy:           159.3152255
  heat_capacity:     183.7510098
  energy:             42.9412260

- temperature:       100.0000000
  free_energy:        26.9089545
  entropy:           179.3317678
  heat_capacity:     196.1740864
  energy:             44.8421313

- temperature:       110.0000000
  free_energy:        25.0188696
  entropy:           198.5538686
  heat_capacity:     207.1238766
  energy:             46.8597951

- temperature:       120.0000000
  free_energy:        22.9404737
  entropy:           216.9972442
  heat_capacity:     216.7342372
  energy:             48.9801430

- temperature:       130.0000000
  free_energy:        20.6814441
  entropy:           234.6849796
  heat_capacity:     225.1480549
  energy:             51.1904914

- temperature:       140.0000000
  free_energy:        18.2491980
  entropy:           251.6456708
  heat_capacity:     232.5079443
  energy:             53.4795919

- temperature:       150.0000000
  free_energy:        15.6508467
  entropy:           267.9116089
  heat_capacity:     238.9487472
  energy:             55.8375881

- temperature:       160.0000000
  free_energy:        12.8931672
  entropy:           283.5171671
  heat_capacity:     244.5931947
  energy:             58.2559139

- temperature:       170.0000000
  free_energy:         9.9825875
  entropy:           298.4974967
  heat_capacity:     249.5501547
  energy:             60.7271619

- temperature:       180.0000000
  free_energy:         6.9251847
  entropy:           312.8875475
  heat_capacity:     253.9145642
  energy:             63.2449433

- temperature:       190.0000000
  free_energy:         3.7266904
  entropy:           326.7213781
  heat_capacity:     257.7683044
  energy:             65.8037523

- temperature:       200.0000000
  free_energy:         0.3925020
  entropy:           340.0317004
  heat_capacity:     261.1815160
  energy:             68.3988421

- temperature:       210.0000000
  free_energy:        -3.0723024
  entropy:           352.8496049
  heat_capacity:     264.2140507
  energy:             71.0261146

- temperature:       220.0000000
  free_energy:        -6.6629467
  entropy:           365.2044164
  heat_capacity:     266.9168895
  energy:             73.6820249

- temperature:       230.0000000
  free_energy:       -10.3749390
  entropy:           377.1236427
  heat_capacity:     269.3334439
  energy:             76.3634989

- temperature:       240.0000000
  free_energy:       -14.2040534
  entropy:           388.6329870
  heat_capacity:     271.5007073
  energy:             79.0678635

- temperature:       250.0000000
  free_energy:       -18.1463124
  entropy:           399.7564009
  heat_capacity:     273.4502507
  energy:             81.7927878

- temperature:       260.0000000
  free_energy:       -22.1979695
  entropy:           410.5161639
  heat_capacity:     275.2090714
  energy:             84.5362332

- temperature:       270.0000000
  free_energy:       -26.3554927
  entropy:           420.9329766
  heat_capacity:     276.8003107
  energy:             87.2964110

- temperature:       280.0000000
  free_energy:       -30.6155500
  entropy:           431.0260622
  heat_capacity:     278.2438561
  energy:             90.0717474

- temperature:       290.0000000
  free_energy:       -34.9749945
  entropy:           440.8132678
  heat_capacity:     279.5568462
  energy:             92.8608532

- temperature:       300.0000000
  free_energy:       -39.4308512
  entropy:           450.3111662
  heat_capacity:     280.7540931
  energy:             95.6624987

- temperature:       310.0000000
  free_energy:       -43.9803049
  entropy:           459.5351520
  heat_capacity:     281.8484349
  energy:             98.4755922

- temperature:       320.0000000
  free_energy:       -48.6206890
  entropy:           468.4995335
  heat_capacity:     282.8510319
  energy:            101.2991617

- temperature:       330.0000000
  free_energy:       -53.3494747
  entropy:           477.2176190
  heat_capacity:     283.7716134
  energy:            104.1323396

- temperature:       340.0000000
  free_energy:       -58.1642618
  entropy:           485.7017966
  heat_capacity:     284.6186856
  energy:            106.9743491

- temperature:       350.0000000
  free_energy:       -63.0627695
  entropy:           493.9636078
  heat_capacity:     285.3997064
  energy:            109.8244932

- temperature:       360.0000000
  free_energy:       -68.0428287
  entropy:           502.0138157
  heat_capacity:     286.1212324
  energy:            112.6821450

- temperature:       370.0000000
  free_energy:       -73.1023740
  entropy:           509.8624674
  heat_capacity:     286.7890435
  energy:            115.5467389

- temperature:       380.0000000
  free_energy:       -78.2394375
  entropy:           517.5189511
  heat_capacity:     287.4082480
  energy:            118.4177639

- temperature:       390.0000000
  free_energy:       -83.4521418
  entropy:           524.9920482
  heat_capacity:     287.9833725
  energy:            121.2947570

- temperature:       400.0000000
  free_energy:       -88.7386947
  entropy:           532.2899813
  heat_capacity:     288.5184377
  energy:            124.1772979

- temperature:       410.0000000
  free_energy:       -94.0973833
  entropy:           539.4204573
  heat_capacity:     289.0170234
  energy:            127.0650042

- temperature:       420.0000000
  free_energy:       -99.5265698
  entropy:           546.3907076
  heat_capacity:     289.4823249
  energy:            129.9575274

- temperature:       430.0000000
  free_energy:      -105.0246861
  entropy:           553.2075241
  heat_capacity:     289.9172000
  energy:            132.8545493

- temperature:       440.0000000
  free_energy:      -110.5902301
  entropy:           559.8772925
  heat_capacity:     290.3242106
  energy:            135.7557786

- temperature:       450.0000000
  free_energy:      -116.2217618
  entropy:           566.4060225
  heat_capacity:     290.7056580
  energy:            138.6609483

- temperature:       460.0000000
  free_energy:      -121.9178994
  entropy:           572.7993756
  heat_capacity:     291.0636140
  energy:            141.5698134

- temperature:       470.0000000
  free_energy:      -127.6773159
  entropy:           579.0626903
  heat_capacity:     291.3999468
  energy:            144.4821485

- temperature:       480.0000000
  free_energy:      -133.4987365
  entropy:           585.2010052
  heat_capacity:     291.7163450
  energy:            147.3977460

- temperature:       490.0000000
  free_energy:      -139.3809352
  entropy:           591.2190803
  heat_capacity:     292.0143371
  energy:            150.3164141

- temperature:       500.0000000
  free_energy:      -145.3227324
  entropy:           597.1214167
  heat_capacity:     292.2953095
  energy:            153.2379760

- temperature:       510.0000000
  free_energy:      -151.3229920
  entropy:           602.9122741
  heat_capacity:     292.5605217
  energy:            156.1622678

- temperature:       520.0000000
  free_energy:      -157.3806197
  entropy:           608.5956874
  heat_capacity:     292.8111201
  energy:            159.0891377

- temperature:       530.0000000
  free_energy:      -163.4945604
  entropy:           614.1754817
  heat_capacity:     293.0481496
  energy:            162.0184450

- temperature:       540.0000000
  free_energy:      -169.6637961
  entropy:           619.6552865
  heat_capacity:     293.2725640
  energy:            164.9500587

- temperature:       550.0000000
  free_energy:      -175.8873443
  entropy:           625.0385480
  heat_capacity:     293.4852357
  energy:            167.8838571

- temperature:       560.0000000
  free_energy:      -182.1642562
  entropy:           630.3285412
  heat_capacity:     293.6869636
  energy:            170.8197269

- temperature:       570.0000000
  free_energy:      -188.4936146
  entropy:           635.5283807
  heat_capacity:     293.8784800
  energy:            173.7575623

- temperature:       580.0000000
  free_energy:      -194.8745332
  entropy:           640.6410308
  heat_capacity:     294.0604579
  energy:            176.6972647

- temperature:       590.0000000
  free_energy:      -201.3061540
  entropy:           645.6693149
  heat_capacity:     294.2335157
  energy:            179.6387418

- temperature:       600.0000000
  free_energy:      -207.7876472
  entropy:           650.6159240
  heat_capacity:     294.3982232
  energy:            182.5819072

- temperature:       610.0000000
  free_energy:      -214.3182088
  entropy:           655.4834246
  heat_capacity:     294.5551056
  energy:            185.5266802

- temperature:       620.0000000
  free_energy:      -220.8970602
  entropy:           660.2742662
  heat_capacity:     294.7046475
  energy:            188.4729848

- temperature:       630.0000000
  free_energy:      -227.5234464
  entropy:           664.9907882
  heat_capacity:     294.8472972
  energy:            191.4207501

- temperature:       640.0000000
  free_energy:      -234.1966357
  entropy:           669.6352264
  heat_capacity:     294.9834692
  energy:            194.3699092

- temperature:       650.0000000
  free_energy:      -240.9159178
  entropy:           674.2097185
  heat_capacity:     295.1135477
  energy:            197.3203992

- temperature:       660.0000000
  free_energy:      -247.6806037
  entropy:           678.7163102
  heat_capacity:     295.2378887
  energy:            200.2721610

- temperature:       670.0000000
  free_energy:      -254.4900242
  entropy:           683.1569600
  heat_capacity:     295.3568230
  energy:            203.2251390

- temperature:       680.0000000
  free_energy:      -261.3435294
  entropy:           687.5335439
  heat_capacity:     295.4706580
  energy:            206.1792805

- temperature:       690.0000000
  free_energy:      -268.2404876
  entropy:           691.8478604
  heat_capacity:     295.5796796
  energy:            209.1345361

- temperature:       700.0000000
  free_energy:      -275.1802848
  entropy:           696.1016339
  heat_capacity:     295.6841539
  energy:            212.0908589

- temperature:       710.0000000
  free_energy:      -282.1623240
  entropy:           700.2965194
  heat_capacity:     295.7843292
  energy:            215.0482048

- temperature:       720.0000000
  free_energy:      -289.1860242
  entropy:           704.4341058
  heat_capacity:     295.8804372
  energy:            218.0065320

- temperature:       730.0000000
  free_energy:      -296.2508202
  entropy:           708.5159191
  heat_capacity:     295.9726939
  energy:            220.9658007

- temperature:       740.0000000
  free_energy:      -303.3561616
  entropy:           712.5434260
  heat_capacity:     296.0613016
  energy:            223.9259737

- temperature:       750.0000000
  free_energy:      -310.5015124
  entropy:           716.5180368
  heat_capacity:     296.1464493
  energy:            226.8870152

- temperature:       760.0000000
  free_energy:      -317.6863505
  entropy:           720.4411082
  heat_capacity:     296.2283142
  energy:            229.8488917

- temperature:       770.0000000
  free_energy:      -324.9101671
  entropy:           724.3139458
  heat_capacity:     296.3070622
  energy:            232.8115711

- temperature:       780.0000000
  free_energy:      -332.1724662
  entropy:           728.1378067
  heat_capacity:     296.3828488
  energy:            235.7750231

- temperature:       790.0000000
  free_energy:      -339.4727640
  entropy:           731.9139022
  heat_capacity:     296.4558201
  energy:            238.7392187

- temperature:       800.0000000
  free_energy:      -346.8105889
  entropy:           735.6433993
  heat_capacity:     296.5261134
  energy:            241.7041306

- temperature:       810.0000000
  free_energy:      -354.1854804
  entropy:           739.3274234
  heat_capacity:     296.5938576
  energy:            244.6697325

- temperature:       820.0000000
  free_energy:      -361.5969894
  entropy:           742.9670598
  heat_capacity:     296.6591741
  energy:            247.6359996

- temperature:       830.0000000
  free_energy:      -369.0446772
  entropy:           746.5633560
  heat_capacity:     296.7221771
  energy:            250.6029083

- temperature:       840.0000000
  free_energy:      -376.5281154
  entropy:           750.1173229
  heat_capacity:     296.7829741
  energy:            253.5704358

- temperature:       850.0000000
  free_energy:      -384.0468858
  entropy:           753.6299371
  heat_capacity:     296.8416667
  energy:            256.5385607

- temperature:       860.0000000
  free_energy:      -391.6005795
  entropy:           757.1021418
  heat_capacity:     296.8983505
  energy:            259.5072625

- temperature:       870.0000000
  free_energy:      -399.1887970
  entropy:           760.5348486
  heat_capacity:     296.9531159
  energy:            262.4765214

- temperature:       880.0000000
  free_energy:      -406.8111477
  entropy:           763.9289391
  heat_capacity:     297.0060482
  energy:            265.4463187

- temperature:       890.0000000
  free_energy:      -414.4672499
  entropy:           767.2852656
  heat_capacity:     297.0572281
  energy:            268.4166365

- temperature:       900.0000000
  free_energy:      -422.1567299
  entropy:           770.6046528
  heat_capacity:     297.1067318
  energy:            271.3874576

- temperature:       910.0000000
  free_energy:      -429.8792225
  entropy:           773.8878992
  heat_capacity:     297.1546316
  energy:            274.3587658

- temperature:       920.0000000
  free_energy:      -437.6343700
  entropy:           777.1357773
  heat_capacity:     297.2009957
  energy:            277.3305452

- temperature:       930.0000000
  free_energy:      -445.4218226
  entropy:           780.3490359
  heat_capacity:     297.2458890
  energy:            280.3027808

- temperature:       940.0000000
  free_energy:      -453.2412377
  entropy:           783.5284000
  heat_capacity:     297.2893728
  energy:            283.2754582

- temperature:       950.0000000
  free_energy:      -461.0922800
  entropy:           786.6745723
  heat_capacity:     297.3315055
  energy:            286.2485637

- temperature:       960.0000000
  free_energy:      -468.9746208
  entropy:           789.7882342
  heat_capacity:     297.3723421
  energy:            289.2220840

- temperature:       970.0000000
  free_energy:      -476.8879385
  entropy:           792.8700463
  heat_capacity:     297.4119353
  energy:            292.1960064

- temperature:       980.0000000
  free_energy:      -484.8319177
  entropy:           795.9206495
  heat_capacity:     297.4503348
  energy:            295.1703188

- temperature:       990.0000000
  free_energy:      -492.8062495
  entropy:           798.9406655
  heat_capacity:     297.4875881
  energy:            298.1450093

- temperature:      1000.0000000
  free_energy:      -500.8106311
  entropy:           801.9306979
  heat_capacity:     297.5237402
  energy:            301.1200668
