phonopy:
  version: "2.37.1"
  frequency_unit_conversion_factor: 15.633302
  symmetry_tolerance: 1.00000e-05

space_group:
  type: "I4/mmm"
  number: 139
  Hall_symbol: "-I 4 2"

primitive_matrix:
- [  0.000000000000000,  1.000000000000000, -1.000000000000000 ]
- [  1.000000000000000,  0.000000000000000, -1.000000000000000 ]
- [  0.000000000000000,  0.000000000000000, -1.000000000000000 ]

supercell_matrix:
- [   3,   0,   0 ]
- [   0,   3,   0 ]
- [   0,   0,   3 ]

primitive_cell:
  lattice:
  - [    -1.590361428018891,     2.931422316503177,     0.000000000000000 ] # a
  - [     3.335039171643379,     0.000000000000001,     0.000000000000000 ] # b
  - [    -0.872338866421947,    -1.465711148628138,    -2.865868531785735 ] # c
  points:
  - symbol: Sn # 1
    coordinates: [  0.000000000000000,  0.000000000000000,  0.000000000000000 ]
    mass: 118.710000
  reciprocal_lattice: # without 2pi
  - [    -0.000000000000000,     0.341131332176278,    -0.174467178508564 ] # a*
  - [     0.299846553078787,     0.162673385426690,    -0.174467178543848 ] # b*
  - [     0.000000000000000,     0.000000000000000,    -0.348934359308135 ] # c*

unit_cell:
  lattice:
  - [     3.335039171643380,     0.000000000000000,     0.000000000000000 ] # a
  - [    -1.590361428018891,     2.931422316503178,     0.000000000000000 ] # b
  - [    -0.872338877202541,    -1.465711167875040,     2.865868531785735 ] # c
  points:
  - symbol: Sn # 1
    coordinates: [  0.000000000000000,  0.000000000000000,  0.000000000000000 ]
    mass: 118.710000
    reduced_to: 1

supercell:
  lattice:
  - [    10.005117514930140,     0.000000000000000,     0.000000000000000 ] # a
  - [    -4.771084284056673,     8.794266949509534,     0.000000000000000 ] # b
  - [    -2.617016631607624,    -4.397133503625120,     8.597605595357205 ] # c
  points:
  - symbol: Sn # 1
    coordinates: [  0.000000000000000,  0.000000000000000,  0.000000000000000 ]
    mass: 118.710000
    reduced_to: 1
  - symbol: Sn # 2
    coordinates: [  0.333333333333333,  0.000000000000000,  0.000000000000000 ]
    mass: 118.710000
    reduced_to: 1
  - symbol: Sn # 3
    coordinates: [  0.666666666666667,  0.000000000000000,  0.000000000000000 ]
    mass: 118.710000
    reduced_to: 1
  - symbol: Sn # 4
    coordinates: [  0.000000000000000,  0.333333333333333,  0.000000000000000 ]
    mass: 118.710000
    reduced_to: 1
  - symbol: Sn # 5
    coordinates: [  0.333333333333333,  0.333333333333333,  0.000000000000000 ]
    mass: 118.710000
    reduced_to: 1
  - symbol: Sn # 6
    coordinates: [  0.666666666666667,  0.333333333333333,  0.000000000000000 ]
    mass: 118.710000
    reduced_to: 1
  - symbol: Sn # 7
    coordinates: [  0.000000000000000,  0.666666666666667,  0.000000000000000 ]
    mass: 118.710000
    reduced_to: 1
  - symbol: Sn # 8
    coordinates: [  0.333333333333333,  0.666666666666667,  0.000000000000000 ]
    mass: 118.710000
    reduced_to: 1
  - symbol: Sn # 9
    coordinates: [  0.666666666666667,  0.666666666666667,  0.000000000000000 ]
    mass: 118.710000
    reduced_to: 1
  - symbol: Sn # 10
    coordinates: [  0.000000000000000,  0.000000000000000,  0.333333333333333 ]
    mass: 118.710000
    reduced_to: 1
  - symbol: Sn # 11
    coordinates: [  0.333333333333333,  0.000000000000000,  0.333333333333333 ]
    mass: 118.710000
    reduced_to: 1
  - symbol: Sn # 12
    coordinates: [  0.666666666666667,  0.000000000000000,  0.333333333333333 ]
    mass: 118.710000
    reduced_to: 1
  - symbol: Sn # 13
    coordinates: [  0.000000000000000,  0.333333333333333,  0.333333333333333 ]
    mass: 118.710000
    reduced_to: 1
  - symbol: Sn # 14
    coordinates: [  0.333333333333333,  0.333333333333333,  0.333333333333333 ]
    mass: 118.710000
    reduced_to: 1
  - symbol: Sn # 15
    coordinates: [  0.666666666666667,  0.333333333333333,  0.333333333333333 ]
    mass: 118.710000
    reduced_to: 1
  - symbol: Sn # 16
    coordinates: [  0.000000000000000,  0.666666666666667,  0.333333333333333 ]
    mass: 118.710000
    reduced_to: 1
  - symbol: Sn # 17
    coordinates: [  0.333333333333333,  0.666666666666667,  0.333333333333333 ]
    mass: 118.710000
    reduced_to: 1
  - symbol: Sn # 18
    coordinates: [  0.666666666666667,  0.666666666666667,  0.333333333333333 ]
    mass: 118.710000
    reduced_to: 1
  - symbol: Sn # 19
    coordinates: [  0.000000000000000,  0.000000000000000,  0.666666666666667 ]
    mass: 118.710000
    reduced_to: 1
  - symbol: Sn # 20
    coordinates: [  0.333333333333333,  0.000000000000000,  0.666666666666667 ]
    mass: 118.710000
    reduced_to: 1
  - symbol: Sn # 21
    coordinates: [  0.666666666666667,  0.000000000000000,  0.666666666666667 ]
    mass: 118.710000
    reduced_to: 1
  - symbol: Sn # 22
    coordinates: [  0.000000000000000,  0.333333333333333,  0.666666666666667 ]
    mass: 118.710000
    reduced_to: 1
  - symbol: Sn # 23
    coordinates: [  0.333333333333333,  0.333333333333333,  0.666666666666667 ]
    mass: 118.710000
    reduced_to: 1
  - symbol: Sn # 24
    coordinates: [  0.666666666666667,  0.333333333333333,  0.666666666666667 ]
    mass: 118.710000
    reduced_to: 1
  - symbol: Sn # 25
    coordinates: [  0.000000000000000,  0.666666666666667,  0.666666666666667 ]
    mass: 118.710000
    reduced_to: 1
  - symbol: Sn # 26
    coordinates: [  0.333333333333333,  0.666666666666667,  0.666666666666667 ]
    mass: 118.710000
    reduced_to: 1
  - symbol: Sn # 27
    coordinates: [  0.666666666666667,  0.666666666666667,  0.666666666666667 ]
    mass: 118.710000
    reduced_to: 1

displacements:
- atom:    1
  displacement:
    [   0.0100000000000000,  0.0000000000000000,  0.0000000000000000 ]
  forces:
  - [  -0.0115855941548944, -0.0008187664207071,  0.0000000294821803 ]
  - [   0.0040786666795611,  0.0001307015627390, -0.0000004961714239 ]
  - [   0.0038806889206171,  0.0001243216102012, -0.0000003793902579 ]
  - [   0.0002592094533611, -0.0018623400246724, -0.0000001970838639 ]
  - [   0.0005076767411083,  0.0012339735403657, -0.0000000840591383 ]
  - [   0.0006622812361456, -0.0000956888543442, -0.0000001528751454 ]
  - [   0.0002666415239219, -0.0019139496143907,  0.0000004342364264 ]
  - [   0.0006623617373407, -0.0000989433610812, -0.0000000353611540 ]
  - [   0.0004935017786920,  0.0011974014341831, -0.0000000647196430 ]
  - [  -0.0001165564826806,  0.0004463615769055, -0.0010728407651186 ]
  - [  -0.0001157256774604, -0.0000100984470919,  0.0001446576497983 ]
  - [   0.0003693471080624,  0.0000934616109589, -0.0001469496201025 ]
  - [  -0.0001199755934067, -0.0000109363463707, -0.0001464532397222 ]
  - [  -0.0001166066504084,  0.0004560309462249,  0.0010891645215452 ]
  - [   0.0003657046181615,  0.0000950640387600,  0.0001453809964005 ]
  - [  -0.0000148155086208, -0.0001122846442740, -0.0000770801925682 ]
  - [  -0.0000138513642014, -0.0001136890205089,  0.0000755525252316 ]
  - [   0.0001496159820817,  0.0002079832192976, -0.0000000223371899 ]
  - [  -0.0001165831927210,  0.0004562297253869, -0.0010888554388657 ]
  - [   0.0003660568036139,  0.0000946645741351, -0.0001457854377804 ]
  - [  -0.0001200556289405, -0.0000109432730824,  0.0001463788357796 ]
  - [  -0.0000134990550578, -0.0001140648964792, -0.0000752265914343 ]
  - [   0.0001501103397459,  0.0002077645622194, -0.0000000157160684 ]
  - [  -0.0000153254950419, -0.0001124757691287,  0.0000776032393333 ]
  - [  -0.0001159785315394, -0.0000097794691101, -0.0001446867827326 ]
  - [   0.0003693089820445,  0.0000936036813073,  0.0001472941657994 ]
  - [  -0.0001166039146483,  0.0004463979275897,  0.0010728286579251 ]

force_constants:
  format: "full"
  shape: [ 27, 27 ]
  elements:
  - # (1, 1)
    - [     1.158559419734527,     0.081876640382995,     0.000000000244567 ]
    - [     0.081876640382995,     1.247399195512684,     0.000000000419378 ]
    - [     0.000000000244567,     0.000000000419378,     1.109829368592933 ]
  - # (1, 2)
    - [    -0.397935466982535,    -0.012763323696754,    -0.000000000098984 ]
    - [    -0.012763317103912,     0.069221943411363,     0.000000000581360 ]
    - [    -0.000000000770953,     0.000000000169311,     0.038515844925864 ]
  - # (1, 3)
    - [    -0.397935466982535,    -0.012763323696754,    -0.000000000098984 ]
    - [    -0.012763317103912,     0.069221943411363,     0.000000000581360 ]
    - [    -0.000000000770953,     0.000000000169311,     0.038515844925864 ]
  - # (1, 4)
    - [    -0.026309925213347,     0.188851756811583,     0.000000000072835 ]
    - [     0.188851750317926,    -0.302403598417664,    -0.000000000719187 ]
    - [     0.000000000614860,    -0.000000000741809,     0.038515844962163 ]
  - # (1, 5)
    - [    -0.050058921604162,    -0.121568750434345,    -0.000000000150479 ]
    - [    -0.121568750456970,    -0.181966392232545,    -0.000000000388431 ]
    - [    -0.000000000291293,    -0.000000000336930,     0.022294449198536 ]
  - # (1, 6)
    - [    -0.066236391334982,     0.009724480253886,     0.000000000024153 ]
    - [     0.009724480205518,    -0.055684899807086,    -0.000000000063425 ]
    - [    -0.000000000130249,    -0.000000000096903,    -0.002614401904755 ]
  - # (1, 7)
    - [    -0.026309925213347,     0.188851756811583,     0.000000000072835 ]
    - [     0.188851750317926,    -0.302403598417664,    -0.000000000719187 ]
    - [     0.000000000614860,    -0.000000000741809,     0.038515844962163 ]
  - # (1, 8)
    - [    -0.066236391334982,     0.009724480253886,     0.000000000024153 ]
    - [     0.009724480205518,    -0.055684899807086,    -0.000000000063425 ]
    - [    -0.000000000130249,    -0.000000000096903,    -0.002614401904755 ]
  - # (1, 9)
    - [    -0.050058921604162,    -0.121568750434345,    -0.000000000150479 ]
    - [    -0.121568750456970,    -0.181966392232545,    -0.000000000388431 ]
    - [    -0.000000000291293,    -0.000000000336930,     0.022294449198536 ]
  - # (1, 10)
    - [     0.011651289426949,    -0.045138058285886,     0.108116068535722 ]
    - [    -0.045138057813528,    -0.037325500428611,     0.181657533963902 ]
    - [     0.108116068971752,     0.181657534599638,    -0.264523457346918 ]
  - # (1, 11)
    - [     0.011793388711671,     0.001043937487566,    -0.014554412609853 ]
    - [     0.001043937441227,     0.012926107134148,     0.008662266021969 ]
    - [    -0.014554411808581,     0.008662265564031,     0.011172073466507 ]
  - # (1, 12)
    - [    -0.036771433646202,    -0.009421017077168,     0.014618511461265 ]
    - [    -0.009421016153490,     0.002475285553366,     0.016599830600413 ]
    - [     0.014618510748472,     0.016599830031932,    -0.018224898522659 ]
  - # (1, 13)
    - [     0.011793389102026,     0.001043937246202,     0.014554412325511 ]
    - [     0.001043937250955,     0.012926107252770,    -0.008662265590623 ]
    - [     0.014554412305082,    -0.008662265617952,     0.011172072953917 ]
  - # (1, 14)
    - [     0.011651289150194,    -0.045138057670536,    -0.108116068724220 ]
    - [    -0.045138058196456,    -0.037325499372016,    -0.181657534056993 ]
    - [    -0.108116068762931,    -0.181657534131549,    -0.264523459760264 ]
  - # (1, 15)
    - [    -0.036771432389119,    -0.009421017295732,    -0.014618511013644 ]
    - [    -0.009421017508844,     0.002475286121929,    -0.016599830051147 ]
    - [    -0.014618511290917,    -0.016599830239307,    -0.018224900568068 ]
  - # (1, 16)
    - [     0.001448287311578,     0.011314025520177,     0.007619819515951 ]
    - [     0.011314025776995,    -0.035744433636315,     0.020765201049506 ]
    - [     0.007619819626284,     0.020765201287132,    -0.018224900287275 ]
  - # (1, 17)
    - [     0.001448285928406,     0.011314026878031,    -0.007619819614523 ]
    - [     0.011314025974666,    -0.035744433995051,    -0.020765201688570 ]
    - [    -0.007619819350172,    -0.020765200832316,    -0.018224898767153 ]
  - # (1, 18)
    - [    -0.014982068327739,    -0.020780259928521,     0.000000000153983 ]
    - [    -0.020780259925585,    -0.037529569340628,     0.000000000131539 ]
    - [     0.000000000016361,     0.000000000135032,    -0.072024052646361 ]
  - # (1, 19)
    - [     0.011651289426949,    -0.045138058285886,     0.108116068535722 ]
    - [    -0.045138057813528,    -0.037325500428611,     0.181657533963902 ]
    - [     0.108116068971752,     0.181657534599638,    -0.264523457346918 ]
  - # (1, 20)
    - [    -0.036771433646202,    -0.009421017077168,     0.014618511461265 ]
    - [    -0.009421016153490,     0.002475285553366,     0.016599830600413 ]
    - [     0.014618510748472,     0.016599830031932,    -0.018224898522659 ]
  - # (1, 21)
    - [     0.011793388711671,     0.001043937487566,    -0.014554412609853 ]
    - [     0.001043937441227,     0.012926107134148,     0.008662266021969 ]
    - [    -0.014554411808581,     0.008662265564031,     0.011172073466507 ]
  - # (1, 22)
    - [     0.001448287311578,     0.011314025520177,     0.007619819515951 ]
    - [     0.011314025776995,    -0.035744433636315,     0.020765201049506 ]
    - [     0.007619819626284,     0.020765201287132,    -0.018224900287275 ]
  - # (1, 23)
    - [    -0.014982068327739,    -0.020780259928521,     0.000000000153983 ]
    - [    -0.020780259925585,    -0.037529569340628,     0.000000000131539 ]
    - [     0.000000000016361,     0.000000000135032,    -0.072024052646361 ]
  - # (1, 24)
    - [     0.001448285928406,     0.011314026878031,    -0.007619819614523 ]
    - [     0.011314025974666,    -0.035744433995051,    -0.020765201688570 ]
    - [    -0.007619819350172,    -0.020765200832316,    -0.018224898767153 ]
  - # (1, 25)
    - [     0.011793389102026,     0.001043937246202,     0.014554412325511 ]
    - [     0.001043937250955,     0.012926107252770,    -0.008662265590623 ]
    - [     0.014554412305082,    -0.008662265617952,     0.011172072953917 ]
  - # (1, 26)
    - [    -0.036771432389119,    -0.009421017295732,    -0.014618511013644 ]
    - [    -0.009421017508844,     0.002475286121929,    -0.016599830051147 ]
    - [    -0.014618511290917,    -0.016599830239307,    -0.018224900568068 ]
  - # (1, 27)
    - [     0.011651289150194,    -0.045138057670536,    -0.108116068724220 ]
    - [    -0.045138058196456,    -0.037325499372016,    -0.181657534056993 ]
    - [    -0.108116068762931,    -0.181657534131549,    -0.264523459760264 ]
  - # (2, 1)
    - [    -0.397935466982535,    -0.012763317103912,    -0.000000000770953 ]
    - [    -0.012763323696754,     0.069221943411363,     0.000000000169311 ]
    - [    -0.000000000098984,     0.000000000581360,     0.038515844925864 ]
  - # (2, 2)
    - [     1.158559460066313,     0.081876611631639,     0.000000002380182 ]
    - [     0.081876611631639,     1.247399215634375,     0.000000004434735 ]
    - [     0.000000002380182,     0.000000004434735,     1.109829305516485 ]
  - # (2, 3)
    - [    -0.397935475897437,    -0.012763317387799,    -0.000000000499310 ]
    - [    -0.012763317387799,     0.069221943677336,     0.000000000599707 ]
    - [    -0.000000000499310,     0.000000000599707,     0.038515844384148 ]
  - # (2, 4)
    - [    -0.066236394116955,     0.009724482226398,    -0.000000000365612 ]
    - [     0.009724482058880,    -0.055684901092672,    -0.000000000638096 ]
    - [     0.000000000181462,     0.000000000221011,    -0.002614401284461 ]
  - # (2, 5)
    - [    -0.026309925205897,     0.188851751180742,     0.000000000589731 ]
    - [     0.188851756798606,    -0.302403599846127,    -0.000000000721755 ]
    - [     0.000000000508635,     0.000000000155939,     0.038515845024855 ]
  - # (2, 6)
    - [    -0.050058923493702,    -0.121568749724386,    -0.000000000468732 ]
    - [    -0.121568748724925,    -0.181966392927389,    -0.000000000853527 ]
    - [    -0.000000000328290,    -0.000000000433371,     0.022294449019104 ]
  - # (2, 7)
    - [    -0.050058923526366,    -0.121568749722161,    -0.000000000760329 ]
    - [    -0.121568748740273,    -0.181966392994241,    -0.000000001270867 ]
    - [    -0.000000000255080,    -0.000000000482035,     0.022294448991085 ]
  - # (2, 8)
    - [    -0.026309929607891,     0.188851759918431,     0.000000000576357 ]
    - [     0.188851759082836,    -0.302403604350000,    -0.000000000697644 ]
    - [     0.000000000813293,    -0.000000000262748,     0.038515844448466 ]
  - # (2, 9)
    - [    -0.066236390896537,     0.009724480520489,    -0.000000000019998 ]
    - [     0.009724480396288,    -0.055684900139363,    -0.000000000168445 ]
    - [     0.000000000175857,     0.000000000406965,    -0.002614401870082 ]
  - # (2, 10)
    - [    -0.036771433635415,    -0.009421016313223,     0.014618510594990 ]
    - [    -0.009421016485963,     0.002475285435193,     0.016599829754117 ]
    - [     0.014618511322549,     0.016599830674334,    -0.018224898205065 ]
  - # (2, 11)
    - [     0.011651288288203,    -0.045138057760155,     0.108116066049431 ]
    - [    -0.045138057426649,    -0.037325500476963,     0.181657528773061 ]
    - [     0.108116065628953,     0.181657529713429,    -0.264523441384231 ]
  - # (2, 12)
    - [     0.011793387704116,     0.001043938377469,    -0.014554412074902 ]
    - [     0.001043938602987,     0.012926106436626,     0.008662265981766 ]
    - [    -0.014554411976967,     0.008662266274393,     0.011172073973332 ]
  - # (2, 13)
    - [    -0.036771434400114,    -0.009421015882144,    -0.014618510898445 ]
    - [    -0.009421016556936,     0.002475285490938,    -0.016599829829951 ]
    - [    -0.014618511069517,    -0.016599829868629,    -0.018224899277950 ]
  - # (2, 14)
    - [     0.011793388294018,     0.001043937944146,     0.014554411869969 ]
    - [     0.001043937328605,     0.012926107165808,    -0.008662265427899 ]
    - [     0.014554412953632,    -0.008662265588465,     0.011172073976057 ]
  - # (2, 15)
    - [     0.011651288386532,    -0.045138057360680,    -0.108116065527035 ]
    - [    -0.045138057391587,    -0.037325500130406,    -0.181657528767074 ]
    - [    -0.108116068402772,    -0.181657534305419,    -0.264523452905147 ]
  - # (2, 16)
    - [    -0.014982069867385,    -0.020780258802519,    -0.000000000346860 ]
    - [    -0.020780258503337,    -0.037529570260854,    -0.000000000629620 ]
    - [     0.000000000011773,     0.000000000134642,    -0.072024050998209 ]
  - # (2, 17)
    - [     0.001448284470968,     0.011314027922913,     0.007619819258972 ]
    - [     0.011314027581403,    -0.035744435078026,     0.020765200453740 ]
    - [     0.007619819578282,     0.020765201197940,    -0.018224897368460 ]
  - # (2, 18)
    - [     0.001448286088913,     0.011314026453126,    -0.007619819287765 ]
    - [     0.011314027020821,    -0.035744434354807,    -0.020765200849180 ]
    - [    -0.007619819242744,    -0.020765201070201,    -0.018224898469044 ]
  - # (2, 19)
    - [     0.011793388759495,     0.001043937657514,    -0.014554411908824 ]
    - [     0.001043938071684,     0.012926106733878,     0.008662265427055 ]
    - [    -0.014554412455824,     0.008662266419343,     0.011172073956169 ]
  - # (2, 20)
    - [     0.011651288462493,    -0.045138057448968,     0.108116065530097 ]
    - [    -0.045138057223451,    -0.037325500872517,     0.181657529485796 ]
    - [     0.108116065628032,     0.181657529778423,    -0.264523441203926 ]
  - # (2, 21)
    - [    -0.036771435835664,    -0.009421015816095,     0.014618510879298 ]
    - [    -0.009421015884584,     0.002475285446651,     0.016599829786808 ]
    - [     0.014618511035042,     0.016599830283755,    -0.018224897633098 ]
  - # (2, 22)
    - [     0.001448285854140,     0.011314026547939,    -0.007619819572628 ]
    - [     0.011314027400852,    -0.035744434719290,    -0.020765201283937 ]
    - [    -0.007619819291486,    -0.020765201260401,    -0.018224899561065 ]
  - # (2, 23)
    - [     0.001448286072521,     0.011314026412115,     0.007619819550894 ]
    - [     0.011314026989628,    -0.035744434429849,     0.020765200747740 ]
    - [     0.007619819764821,     0.020765201910668,    -0.018224898224172 ]
  - # (2, 24)
    - [    -0.014982071262252,    -0.020780258172203,    -0.000000000223017 ]
    - [    -0.020780258322054,    -0.037529570286008,    -0.000000000450914 ]
    - [     0.000000000157118,     0.000000000247141,    -0.072024047623611 ]
  - # (2, 25)
    - [     0.011651288299010,    -0.045138057310290,    -0.108116065730790 ]
    - [    -0.045138057123331,    -0.037325500327260,    -0.181657528943834 ]
    - [    -0.108116068349682,    -0.181657534321346,    -0.264523452677480 ]
  - # (2, 26)
    - [     0.011793388093998,     0.001043938036521,     0.014554412059398 ]
    - [     0.001043937733788,     0.012926106982548,    -0.008662265221105 ]
    - [     0.014554412904498,    -0.008662265495276,     0.011172072973963 ]
  - # (2, 27)
    - [    -0.036771434112571,    -0.009421016024909,    -0.014618510884120 ]
    - [    -0.009421017230375,     0.002475285871053,    -0.016599829859986 ]
    - [    -0.014618511073474,    -0.016599829945890,    -0.018224898503523 ]
  - # (3, 1)
    - [    -0.397935466982535,    -0.012763317103912,    -0.000000000770953 ]
    - [    -0.012763323696754,     0.069221943411363,     0.000000000169311 ]
    - [    -0.000000000098984,     0.000000000581360,     0.038515844925864 ]
  - # (3, 2)
    - [    -0.397935475897437,    -0.012763317387799,    -0.000000000499310 ]
    - [    -0.012763317387799,     0.069221943677336,     0.000000000599707 ]
    - [    -0.000000000499310,     0.000000000599707,     0.038515844384148 ]
  - # (3, 3)
    - [     1.158559460066313,     0.081876611631639,     0.000000002380182 ]
    - [     0.081876611631639,     1.247399215634375,     0.000000004434735 ]
    - [     0.000000002380182,     0.000000004434735,     1.109829305516485 ]
  - # (3, 4)
    - [    -0.050058923526366,    -0.121568749722161,    -0.000000000760329 ]
    - [    -0.121568748740273,    -0.181966392994241,    -0.000000001270867 ]
    - [    -0.000000000255080,    -0.000000000482035,     0.022294448991085 ]
  - # (3, 5)
    - [    -0.066236390896537,     0.009724480520489,    -0.000000000019998 ]
    - [     0.009724480396288,    -0.055684900139363,    -0.000000000168445 ]
    - [     0.000000000175857,     0.000000000406965,    -0.002614401870082 ]
  - # (3, 6)
    - [    -0.026309929607891,     0.188851759918431,     0.000000000576357 ]
    - [     0.188851759082836,    -0.302403604350000,    -0.000000000697644 ]
    - [     0.000000000813293,    -0.000000000262748,     0.038515844448466 ]
  - # (3, 7)
    - [    -0.066236394116955,     0.009724482226398,    -0.000000000365612 ]
    - [     0.009724482058880,    -0.055684901092672,    -0.000000000638096 ]
    - [     0.000000000181462,     0.000000000221011,    -0.002614401284461 ]
  - # (3, 8)
    - [    -0.050058923493702,    -0.121568749724386,    -0.000000000468732 ]
    - [    -0.121568748724925,    -0.181966392927389,    -0.000000000853527 ]
    - [    -0.000000000328290,    -0.000000000433371,     0.022294449019104 ]
  - # (3, 9)
    - [    -0.026309925205897,     0.188851751180742,     0.000000000589731 ]
    - [     0.188851756798606,    -0.302403599846127,    -0.000000000721755 ]
    - [     0.000000000508635,     0.000000000155939,     0.038515845024855 ]
  - # (3, 10)
    - [     0.011793388759495,     0.001043937657514,    -0.014554411908824 ]
    - [     0.001043938071684,     0.012926106733878,     0.008662265427055 ]
    - [    -0.014554412455824,     0.008662266419343,     0.011172073956169 ]
  - # (3, 11)
    - [    -0.036771435835664,    -0.009421015816095,     0.014618510879298 ]
    - [    -0.009421015884584,     0.002475285446651,     0.016599829786808 ]
    - [     0.014618511035042,     0.016599830283755,    -0.018224897633098 ]
  - # (3, 12)
    - [     0.011651288462493,    -0.045138057448968,     0.108116065530097 ]
    - [    -0.045138057223451,    -0.037325500872517,     0.181657529485796 ]
    - [     0.108116065628032,     0.181657529778423,    -0.264523441203926 ]
  - # (3, 13)
    - [     0.011651288299010,    -0.045138057310290,    -0.108116065730790 ]
    - [    -0.045138057123331,    -0.037325500327260,    -0.181657528943834 ]
    - [    -0.108116068349682,    -0.181657534321346,    -0.264523452677480 ]
  - # (3, 14)
    - [    -0.036771434112571,    -0.009421016024909,    -0.014618510884120 ]
    - [    -0.009421017230375,     0.002475285871053,    -0.016599829859986 ]
    - [    -0.014618511073474,    -0.016599829945890,    -0.018224898503523 ]
  - # (3, 15)
    - [     0.011793388093998,     0.001043938036521,     0.014554412059398 ]
    - [     0.001043937733788,     0.012926106982548,    -0.008662265221105 ]
    - [     0.014554412904498,    -0.008662265495276,     0.011172072973963 ]
  - # (3, 16)
    - [     0.001448285854140,     0.011314026547939,    -0.007619819572628 ]
    - [     0.011314027400852,    -0.035744434719290,    -0.020765201283937 ]
    - [    -0.007619819291486,    -0.020765201260401,    -0.018224899561065 ]
  - # (3, 17)
    - [    -0.014982071262252,    -0.020780258172203,    -0.000000000223017 ]
    - [    -0.020780258322054,    -0.037529570286008,    -0.000000000450914 ]
    - [     0.000000000157118,     0.000000000247141,    -0.072024047623611 ]
  - # (3, 18)
    - [     0.001448286072521,     0.011314026412115,     0.007619819550894 ]
    - [     0.011314026989628,    -0.035744434429849,     0.020765200747740 ]
    - [     0.007619819764821,     0.020765201910668,    -0.018224898224172 ]
  - # (3, 19)
    - [    -0.036771433635415,    -0.009421016313223,     0.014618510594990 ]
    - [    -0.009421016485963,     0.002475285435193,     0.016599829754117 ]
    - [     0.014618511322549,     0.016599830674334,    -0.018224898205065 ]
  - # (3, 20)
    - [     0.011793387704116,     0.001043938377469,    -0.014554412074902 ]
    - [     0.001043938602987,     0.012926106436626,     0.008662265981766 ]
    - [    -0.014554411976967,     0.008662266274393,     0.011172073973332 ]
  - # (3, 21)
    - [     0.011651288288203,    -0.045138057760155,     0.108116066049431 ]
    - [    -0.045138057426649,    -0.037325500476963,     0.181657528773061 ]
    - [     0.108116065628953,     0.181657529713429,    -0.264523441384231 ]
  - # (3, 22)
    - [    -0.014982069867385,    -0.020780258802519,    -0.000000000346860 ]
    - [    -0.020780258503337,    -0.037529570260854,    -0.000000000629620 ]
    - [     0.000000000011773,     0.000000000134642,    -0.072024050998209 ]
  - # (3, 23)
    - [     0.001448286088913,     0.011314026453126,    -0.007619819287765 ]
    - [     0.011314027020821,    -0.035744434354807,    -0.020765200849180 ]
    - [    -0.007619819242744,    -0.020765201070201,    -0.018224898469044 ]
  - # (3, 24)
    - [     0.001448284470968,     0.011314027922913,     0.007619819258972 ]
    - [     0.011314027581403,    -0.035744435078026,     0.020765200453740 ]
    - [     0.007619819578282,     0.020765201197940,    -0.018224897368460 ]
  - # (3, 25)
    - [    -0.036771434400114,    -0.009421015882144,    -0.014618510898445 ]
    - [    -0.009421016556936,     0.002475285490938,    -0.016599829829951 ]
    - [    -0.014618511069517,    -0.016599829868629,    -0.018224899277950 ]
  - # (3, 26)
    - [     0.011651288386532,    -0.045138057360680,    -0.108116065527035 ]
    - [    -0.045138057391587,    -0.037325500130406,    -0.181657528767074 ]
    - [    -0.108116068402772,    -0.181657534305419,    -0.264523452905147 ]
  - # (3, 27)
    - [     0.011793388294018,     0.001043937944146,     0.014554411869969 ]
    - [     0.001043937328605,     0.012926107165808,    -0.008662265427899 ]
    - [     0.014554412953632,    -0.008662265588465,     0.011172073976057 ]
  - # (4, 1)
    - [    -0.026309925213347,     0.188851750317926,     0.000000000614860 ]
    - [     0.188851756811583,    -0.302403598417664,    -0.000000000741809 ]
    - [     0.000000000072835,    -0.000000000719187,     0.038515844962163 ]
  - # (4, 2)
    - [    -0.066236394116955,     0.009724482058880,     0.000000000181462 ]
    - [     0.009724482226398,    -0.055684901092672,     0.000000000221011 ]
    - [    -0.000000000365612,    -0.000000000638096,    -0.002614401284461 ]
  - # (4, 3)
    - [    -0.050058923526366,    -0.121568748740273,    -0.000000000255080 ]
    - [    -0.121568749722161,    -0.181966392994241,    -0.000000000482035 ]
    - [    -0.000000000760329,    -0.000000001270867,     0.022294448991085 ]
  - # (4, 4)
    - [     1.158559467954526,     0.081876615903141,     0.000000002328212 ]
    - [     0.081876615903141,     1.247399207928023,     0.000000004289639 ]
    - [     0.000000002328212,     0.000000004289639,     1.109829305589082 ]
  - # (4, 5)
    - [    -0.397935468335160,    -0.012763317840164,    -0.000000000754569 ]
    - [    -0.012763323602462,     0.069221943524836,     0.000000000141248 ]
    - [    -0.000000000695603,    -0.000000000275878,     0.038515845061153 ]
  - # (4, 6)
    - [    -0.397935478851509,    -0.012763318135990,    -0.000000000767943 ]
    - [    -0.012763318118416,     0.069221943659390,     0.000000000165360 ]
    - [    -0.000000001132750,    -0.000000000203316,     0.038515844484764 ]
  - # (4, 7)
    - [    -0.026309929507262,     0.188851759121156,     0.000000000370293 ]
    - [     0.188851759121156,    -0.302403602832518,    -0.000000001177594 ]
    - [     0.000000000370293,    -0.000000001177594,     0.038515844456745 ]
  - # (4, 8)
    - [    -0.050058924010247,    -0.121568749517693,    -0.000000000482652 ]
    - [    -0.121568749500119,    -0.181966392319914,    -0.000000000935848 ]
    - [    -0.000000000847458,    -0.000000001304524,     0.022294449055402 ]
  - # (4, 9)
    - [    -0.066236391226903,     0.009724480253485,     0.000000000003365 ]
    - [     0.009724480296802,    -0.055684899718067,    -0.000000000188124 ]
    - [    -0.000000000347853,    -0.000000000471820,    -0.002614401833783 ]
  - # (4, 10)