# Thermal properties / unit cell (natom)

unit:
  temperature:   K
  free_energy:   kJ/mol
  entropy:       J/K/mol
  heat_capacity: J/K/mol

natom: 1    
cutoff_frequency: 0.00000
num_modes: 151620
num_integrated_modes: 150008

zero_point_energy:       0.8747029

thermal_properties:
- temperature:         0.0000000
  free_energy:         0.8747029
  entropy:             0.0000000
  heat_capacity:       0.0000000
  energy:              0.8747029

- temperature:        10.0000000
  free_energy:         0.8711039
  entropy:             1.2050819
  heat_capacity:       2.8692451
  energy:              0.8831547

- temperature:        20.0000000
  free_energy:         0.8396935
  entropy:             5.4551764
  heat_capacity:      10.2809113
  energy:              0.9487971

- temperature:        30.0000000
  free_energy:         0.7587303
  entropy:            10.7501953
  heat_capacity:      15.7357479
  energy:              1.0812361

- temperature:        40.0000000
  free_energy:         0.6257915
  entropy:            15.7480116
  heat_capacity:      18.8646676
  energy:              1.2557120

- temperature:        50.0000000
  free_energy:         0.4457190
  entropy:            20.1693059
  heat_capacity:      20.6733903
  energy:              1.4541843

- temperature:        60.0000000
  free_energy:         0.2242322
  entropy:            24.0438769
  heat_capacity:      21.7778043
  energy:              1.6668648

- temperature:        70.0000000
  free_energy:        -0.0336255
  entropy:            27.4582531
  heat_capacity:      22.4910333
  energy:              1.8884522

- temperature:        80.0000000
  free_energy:        -0.3236761
  entropy:            30.4950440
  heat_capacity:      22.9745551
  energy:              2.1159275

- temperature:        90.0000000
  free_energy:        -0.6424947
  entropy:            33.2218686
  heat_capacity:      23.3159210
  energy:              2.3474734

- temperature:       100.0000000
  free_energy:        -0.9872591
  entropy:            35.6920009
  heat_capacity:      23.5651961
  energy:              2.5819410

- temperature:       110.0000000
  free_energy:        -1.3556193
  entropy:            37.9471912
  heat_capacity:      23.7524373
  energy:              2.8185718

- temperature:       120.0000000
  free_energy:        -1.7455969
  entropy:            40.0203614
  heat_capacity:      23.8964770
  energy:              3.0568465

- temperature:       130.0000000
  free_energy:        -2.1555078
  entropy:            41.9377408
  heat_capacity:      24.0095605
  energy:              3.2963986

- temperature:       140.0000000
  free_energy:        -2.5839033
  entropy:            43.7204677
  heat_capacity:      24.0999099
  energy:              3.5369622

- temperature:       150.0000000
  free_energy:        -3.0295260
  entropy:            45.3857741
  heat_capacity:      24.1732033
  energy:              3.7783401

- temperature:       160.0000000
  free_energy:        -3.4912750
  entropy:            46.9478618
  heat_capacity:      24.2334589
  energy:              4.0203829

- temperature:       170.0000000
  free_energy:        -3.9681788
  entropy:            48.4185553
  heat_capacity:      24.2835828
  energy:              4.2629756

- temperature:       180.0000000
  free_energy:        -4.4593747
  entropy:            49.8077929
  heat_capacity:      24.3257172
  energy:              4.5060280

- temperature:       190.0000000
  free_energy:        -4.9640914
  entropy:            51.1240004
  heat_capacity:      24.3614686
  energy:              4.7494687

- temperature:       200.0000000
  free_energy:        -5.4816354
  entropy:            52.3743781
  heat_capacity:      24.3920603
  energy:              4.9932402

- temperature:       210.0000000
  free_energy:        -6.0113803
  entropy:            53.5651244
  heat_capacity:      24.4184368
  energy:              5.2372959

- temperature:       220.0000000
  free_energy:        -6.5527571
  entropy:            54.7016113
  heat_capacity:      24.4413364
  energy:              5.4815974

- temperature:       230.0000000
  free_energy:        -7.1052473
  entropy:            55.7885229
  heat_capacity:      24.4613432
  energy:              5.7261130

- temperature:       240.0000000
  free_energy:        -7.6683761
  entropy:            56.8299676
  heat_capacity:      24.4789235
  energy:              5.9708161

- temperature:       250.0000000
  free_energy:        -8.2417072
  entropy:            57.8295673
  heat_capacity:      24.4944538
  energy:              6.2156846

- temperature:       260.0000000
  free_energy:        -8.8248387
  entropy:            58.7905311
  heat_capacity:      24.5082403
  energy:              6.4606994

- temperature:       270.0000000
  free_energy:        -9.4173986
  entropy:            59.7157150
  heat_capacity:      24.5205341
  energy:              6.7058444

- temperature:       280.0000000
  free_energy:       -10.0190422
  entropy:            60.6076716
  heat_capacity:      24.5315429
  energy:              6.9511058

- temperature:       290.0000000
  free_energy:       -10.6294490
  entropy:            61.4686915
  heat_capacity:      24.5414395
  energy:              7.1964716

- temperature:       300.0000000
  free_energy:       -11.2483199
  entropy:            62.3008374
  heat_capacity:      24.5503686
  energy:              7.4419314

- temperature:       310.0000000
  free_energy:       -11.8753757
  entropy:            63.1059736
  heat_capacity:      24.5584522
  energy:              7.6874761

- temperature:       320.0000000
  free_energy:       -12.5103549
  entropy:            63.8857903
  heat_capacity:      24.5657935
  energy:              7.9330979

- temperature:       330.0000000
  free_energy:       -13.1530122
  entropy:            64.6418244
  heat_capacity:      24.5724808
  energy:              8.1787898

- temperature:       340.0000000
  free_energy:       -13.8031168
  entropy:            65.3754779
  heat_capacity:      24.5785893
  energy:              8.4245456

- temperature:       350.0000000
  free_energy:       -14.4604515
  entropy:            66.0880325
  heat_capacity:      24.5841839
  energy:              8.6703599

- temperature:       360.0000000
  free_energy:       -15.1248111
  entropy:            66.7806636
  heat_capacity:      24.5893206
  energy:              8.9162278

- temperature:       370.0000000
  free_energy:       -15.7960019
  entropy:            67.4544511
  heat_capacity:      24.5940480
  energy:              9.1621450

- temperature:       380.0000000
  free_energy:       -16.4738406
  entropy:            68.1103899
  heat_capacity:      24.5984085
  energy:              9.4081075

- temperature:       390.0000000
  free_energy:       -17.1581533
  entropy:            68.7493983
  heat_capacity:      24.6024390
  energy:              9.6541120

- temperature:       400.0000000
  free_energy:       -17.8487750
  entropy:            69.3723258
  heat_capacity:      24.6061719
  energy:              9.9001553

- temperature:       410.0000000
  free_energy:       -18.5455489
  entropy:            69.9799596
  heat_capacity:      24.6096359
  energy:             10.1462346

- temperature:       420.0000000
  free_energy:       -19.2483257
  entropy:            70.5730307
  heat_capacity:      24.6128561
  energy:             10.3923472

- temperature:       430.0000000
  free_energy:       -19.9569632
  entropy:            71.1522190
  heat_capacity:      24.6158549
  energy:             10.6384910

- temperature:       440.0000000
  free_energy:       -20.6713259
  entropy:            71.7181580
  heat_capacity:      24.6186521
  energy:             10.8846636

- temperature:       450.0000000
  free_energy:       -21.3912842
  entropy:            72.2714390
  heat_capacity:      24.6212653
  energy:             11.1308634

- temperature:       460.0000000
  free_energy:       -22.1167143
  entropy:            72.8126146
  heat_capacity:      24.6237104
  energy:             11.3770884

- temperature:       470.0000000
  free_energy:       -22.8474978
  entropy:            73.3422019
  heat_capacity:      24.6260015
  energy:             11.6233371

- temperature:       480.0000000
  free_energy:       -23.5835213
  entropy:            73.8606860
  heat_capacity:      24.6281511
  energy:             11.8696080

- temperature:       490.0000000
  free_energy:       -24.3246761
  entropy:            74.3685219
  heat_capacity:      24.6301708
  energy:             12.1158997

- temperature:       500.0000000
  free_energy:       -25.0708577
  entropy:            74.8661374
  heat_capacity:      24.6320708
  energy:             12.3622110

- temperature:       510.0000000
  free_energy:       -25.8219661
  entropy:            75.3539349
  heat_capacity:      24.6338603
  energy:             12.6085407

- temperature:       520.0000000
  free_energy:       -26.5779049
  entropy:            75.8322938
  heat_capacity:      24.6355478
  energy:             12.8548878

- temperature:       530.0000000
  free_energy:       -27.3385817
  entropy:            76.3015718
  heat_capacity:      24.6371408
  energy:             13.1012514

- temperature:       540.0000000
  free_energy:       -28.1039072
  entropy:            76.7621067
  heat_capacity:      24.6386463
  energy:             13.3476304

- temperature:       550.0000000
  free_energy:       -28.8737958
  entropy:            77.2142178
  heat_capacity:      24.6400706
  energy:             13.5940240

- temperature:       560.0000000
  free_energy:       -29.6481645
  entropy:            77.6582072
  heat_capacity:      24.6414194
  energy:             13.8404315

- temperature:       570.0000000
  free_energy:       -30.4269338
  entropy:            78.0943613
  heat_capacity:      24.6426979
  energy:             14.0868522

- temperature:       580.0000000
  free_energy:       -31.2100265
  entropy:            78.5229514
  heat_capacity:      24.6439110
  energy:             14.3332853

- temperature:       590.0000000
  free_energy:       -31.9973685
  entropy:            78.9442350
  heat_capacity:      24.6450630
  energy:             14.5797302

- temperature:       600.0000000
  free_energy:       -32.7888877
  entropy:            79.3584567
  heat_capacity:      24.6461579
  energy:             14.8261863

- temperature:       610.0000000
  free_energy:       -33.5845148
  entropy:            79.7658492
  heat_capacity:      24.6471995
  energy:             15.0726532

- temperature:       620.0000000
  free_energy:       -34.3841827
  entropy:            80.1666336
  heat_capacity:      24.6481912
  energy:             15.3191302

- temperature:       630.0000000
  free_energy:       -35.1878262
  entropy:            80.5610206
  heat_capacity:      24.6491362
  energy:             15.5656168

- temperature:       640.0000000
  free_energy:       -35.9953824
  entropy:            80.9492112
  heat_capacity:      24.6500372
  energy:             15.8121127

- temperature:       650.0000000
  free_energy:       -36.8067904
  entropy:            81.3313966
  heat_capacity:      24.6508970
  energy:             16.0586174

- temperature:       660.0000000
  free_energy:       -37.6219909
  entropy:            81.7077598
  heat_capacity:      24.6517181
  energy:             16.3051305

- temperature:       670.0000000
  free_energy:       -38.4409268
  entropy:            82.0784753
  heat_capacity:      24.6525027
  energy:             16.5516517

- temperature:       680.0000000
  free_energy:       -39.2635422
  entropy:            82.4437098
  heat_capacity:      24.6532530
  energy:             16.7981805

- temperature:       690.0000000
  free_energy:       -40.0897832
  entropy:            82.8036230
  heat_capacity:      24.6539709
  energy:             17.0447166

- temperature:       700.0000000
  free_energy:       -40.9195974
  entropy:            83.1583674
  heat_capacity:      24.6546583
  energy:             17.2912598

- temperature:       710.0000000
  free_energy:       -41.7529338
  entropy:            83.5080895
  heat_capacity:      24.6553170
  energy:             17.5378097

- temperature:       720.0000000
  free_energy:       -42.5897429
  entropy:            83.8529291
  heat_capacity:      24.6559484
  energy:             17.7843660

- temperature:       730.0000000
  free_energy:       -43.4299766
  entropy:            84.1930208
  heat_capacity:      24.6565540
  energy:             18.0309286

- temperature:       740.0000000
  free_energy:       -44.2735879
  entropy:            84.5284932
  heat_capacity:      24.6571353
  energy:             18.2774970

- temperature:       750.0000000
  free_energy:       -45.1205315
  entropy:            84.8594702
  heat_capacity:      24.6576935
  energy:             18.5240712

- temperature:       760.0000000
  free_energy:       -45.9707628
  entropy:            85.1860705
  heat_capacity:      24.6582298
  energy:             18.7706508

- temperature:       770.0000000
  free_energy:       -46.8242387
  entropy:            85.5084083
  heat_capacity:      24.6587454
  energy:             19.0172357

- temperature:       780.0000000
  free_energy:       -47.6809171
  entropy:            85.8265933
  heat_capacity:      24.6592414
  energy:             19.2638257

- temperature:       790.0000000
  free_energy:       -48.5407570
  entropy:            86.1407311
  heat_capacity:      24.6597186
  energy:             19.5104205

- temperature:       800.0000000
  free_energy:       -49.4037186
  entropy:            86.4509232
  heat_capacity:      24.6601780
  energy:             19.7570200

- temperature:       810.0000000
  free_energy:       -50.2697627
  entropy:            86.7572675
  heat_capacity:      24.6606206
  energy:             20.0036240

- temperature:       820.0000000
  free_energy:       -51.1388514
  entropy:            87.0598582
  heat_capacity:      24.6610470
  energy:             20.2502324

- temperature:       830.0000000
  free_energy:       -52.0109476
  entropy:            87.3587862
  heat_capacity:      24.6614582
  energy:             20.4968449

- temperature:       840.0000000
  free_energy:       -52.8860152
  entropy:            87.6541389
  heat_capacity:      24.6618547
  energy:             20.7434615

- temperature:       850.0000000
  free_energy:       -53.7640188
  entropy:            87.9460008
  heat_capacity:      24.6622374
  energy:             20.9900819

- temperature:       860.0000000
  free_energy:       -54.6449239
  entropy:            88.2344535
  heat_capacity:      24.6626068
  energy:             21.2367062

- temperature:       870.0000000
  free_energy:       -55.5286967
  entropy:            88.5195756
  heat_capacity:      24.6629636
  energy:             21.4833340

- temperature:       880.0000000
  free_energy:       -56.4153045
  entropy:            88.8014431
  heat_capacity:      24.6633082
  energy:             21.7299654

- temperature:       890.0000000
  free_energy:       -57.3047150
  entropy:            89.0801294
  heat_capacity:      24.6636413
  energy:             21.9766002

- temperature:       900.0000000
  free_energy:       -58.1968967
  entropy:            89.3557055
  heat_capacity:      24.6639634
  energy:             22.2232382

- temperature:       910.0000000
  free_energy:       -59.0918190
  entropy:            89.6282400
  heat_capacity:      24.6642750
  energy:             22.4698794

- temperature:       920.0000000
  free_energy:       -59.9894516
  entropy:            89.8977992
  heat_capacity:      24.6645764
  energy:             22.7165237

- temperature:       930.0000000
  free_energy:       -60.8897653
  entropy:            90.1644475
  heat_capacity:      24.6648682
  energy:             22.9631709

- temperature:       940.0000000
  free_energy:       -61.7927311
  entropy:            90.4282469
  heat_capacity:      24.6651507
  energy:             23.2098210

- temperature:       950.0000000
  free_energy:       -62.6983209
  entropy:            90.6892577
  heat_capacity:      24.6654243
  energy:             23.4564739

- temperature:       960.0000000
  free_energy:       -63.6065071
  entropy:            90.9475381
  heat_capacity:      24.6656895
  energy:             23.7031294

- temperature:       970.0000000
  free_energy:       -64.5172627
  entropy:            91.2031447
  heat_capacity:      24.6659464
  energy:             23.9497876

- temperature:       980.0000000
  free_energy:       -65.4305613
  entropy:            91.4561323
  heat_capacity:      24.6661956
  energy:             24.1964484

- temperature:       990.0000000
  free_energy:       -66.3463768
  entropy:            91.7065539
  heat_capacity:      24.6664373
  energy:             24.4431115

- temperature:      1000.0000000
  free_energy:       -67.2646840
  entropy:            91.9544611
  heat_capacity:      24.6666717
  energy:             24.6897771
