phonopy:
  version: "2.37.1"
  frequency_unit_conversion_factor: 15.633302
  symmetry_tolerance: 1.00000e-05

space_group:
  type: "P4/mmm"
  number: 123
  Hall_symbol: "-P 4 2"

primitive_matrix:
- [  1.000000000000000, -0.000000000000000,  0.000000000000000 ]
- [  0.000000000000000,  1.000000000000000,  0.000000000000000 ]
- [  0.000000000000000,  0.000000000000000,  1.000000000000000 ]

supercell_matrix:
- [   4,   0,   0 ]
- [   0,   4,   0 ]
- [   0,   0,   3 ]

primitive_cell:
  lattice:
  - [     2.744581164649470,     0.000000000000000,     0.000000000000000 ] # a
  - [     0.000000168850026,     2.744581171231656,     0.000000000000000 ] # b
  - [    -0.000000003941005,    -0.000000075821816,     4.225784402391791 ] # c
  points:
  - symbol: Li # 1
    coordinates: [  0.500000006414222,  0.500000004456535,  0.499999998909884 ]
    mass: 6.940000
  - symbol: Ga # 2
    coordinates: [  0.999999993798367,  0.999999995441117,  0.000000001052586 ]
    mass: 69.723000
  reciprocal_lattice: # without 2pi
  - [     0.364354318567845,    -0.000000022415528,     0.000000000339800 ] # a*
  - [     0.000000000000000,     0.364354317694033,     0.000000006537486 ] # b*
  - [     0.000000000000000,     0.000000000000000,     0.236642456116313 ] # c*

unit_cell:
  lattice:
  - [     2.744581164649470,     0.000000000000000,     0.000000000000000 ] # a
  - [     0.000000168850026,     2.744581171231656,     0.000000000000000 ] # b
  - [    -0.000000003941005,    -0.000000075821816,     4.225784402391791 ] # c
  points:
  - symbol: Li # 1
    coordinates: [  0.500000006414222,  0.500000004456535,  0.499999998909884 ]
    mass: 6.940000
    reduced_to: 1
  - symbol: Ga # 2
    coordinates: [  0.999999993798367,  0.999999995441117,  0.000000001052586 ]
    mass: 69.723000
    reduced_to: 2

supercell:
  lattice:
  - [    10.978324658597879,     0.000000000000000,     0.000000000000000 ] # a
  - [     0.000000675400106,    10.978324684926624,     0.000000000000000 ] # b
  - [    -0.000000011823014,    -0.000000227465448,    12.677353207175372 ] # c
  points:
  - symbol: Li # 1
    coordinates: [  0.125000001603556,  0.125000001114134,  0.166666666303295 ]
    mass: 6.940000
    reduced_to: 1
  - symbol: Li # 2
    coordinates: [  0.375000001603556,  0.125000001114134,  0.166666666303295 ]
    mass: 6.940000
    reduced_to: 1
  - symbol: Li # 3
    coordinates: [  0.625000001603556,  0.125000001114134,  0.166666666303295 ]
    mass: 6.940000
    reduced_to: 1
  - symbol: Li # 4
    coordinates: [  0.875000001603556,  0.125000001114134,  0.166666666303295 ]
    mass: 6.940000
    reduced_to: 1
  - symbol: Li # 5
    coordinates: [  0.125000001603556,  0.375000001114134,  0.166666666303295 ]
    mass: 6.940000
    reduced_to: 1
  - symbol: Li # 6
    coordinates: [  0.375000001603556,  0.375000001114134,  0.166666666303295 ]
    mass: 6.940000
    reduced_to: 1
  - symbol: Li # 7
    coordinates: [  0.625000001603556,  0.375000001114134,  0.166666666303295 ]
    mass: 6.940000
    reduced_to: 1
  - symbol: Li # 8
    coordinates: [  0.875000001603556,  0.375000001114134,  0.166666666303295 ]
    mass: 6.940000
    reduced_to: 1
  - symbol: Li # 9
    coordinates: [  0.125000001603556,  0.625000001114134,  0.166666666303295 ]
    mass: 6.940000
    reduced_to: 1
  - symbol: Li # 10
    coordinates: [  0.375000001603556,  0.625000001114134,  0.166666666303295 ]
    mass: 6.940000
    reduced_to: 1
  - symbol: Li # 11
    coordinates: [  0.625000001603556,  0.625000001114134,  0.166666666303295 ]
    mass: 6.940000
    reduced_to: 1
  - symbol: Li # 12
    coordinates: [  0.875000001603556,  0.625000001114134,  0.166666666303295 ]
    mass: 6.940000
    reduced_to: 1
  - symbol: Li # 13
    coordinates: [  0.125000001603556,  0.875000001114134,  0.166666666303295 ]
    mass: 6.940000
    reduced_to: 1
  - symbol: Li # 14
    coordinates: [  0.375000001603556,  0.875000001114134,  0.166666666303295 ]
    mass: 6.940000
    reduced_to: 1
  - symbol: Li # 15
    coordinates: [  0.625000001603556,  0.875000001114134,  0.166666666303295 ]
    mass: 6.940000
    reduced_to: 1
  - symbol: Li # 16
    coordinates: [  0.875000001603556,  0.875000001114134,  0.166666666303295 ]
    mass: 6.940000
    reduced_to: 1
  - symbol: Li # 17
    coordinates: [  0.125000001603556,  0.125000001114134,  0.499999999636628 ]
    mass: 6.940000
    reduced_to: 1
  - symbol: Li # 18
    coordinates: [  0.375000001603556,  0.125000001114134,  0.499999999636628 ]
    mass: 6.940000
    reduced_to: 1
  - symbol: Li # 19
    coordinates: [  0.625000001603556,  0.125000001114134,  0.499999999636628 ]
    mass: 6.940000
    reduced_to: 1
  - symbol: Li # 20
    coordinates: [  0.875000001603556,  0.125000001114134,  0.499999999636628 ]
    mass: 6.940000
    reduced_to: 1
  - symbol: Li # 21
    coordinates: [  0.125000001603556,  0.375000001114134,  0.499999999636628 ]
    mass: 6.940000
    reduced_to: 1
  - symbol: Li # 22
    coordinates: [  0.375000001603556,  0.375000001114134,  0.499999999636628 ]
    mass: 6.940000
    reduced_to: 1
  - symbol: Li # 23
    coordinates: [  0.625000001603556,  0.375000001114134,  0.499999999636628 ]
    mass: 6.940000
    reduced_to: 1
  - symbol: Li # 24
    coordinates: [  0.875000001603556,  0.375000001114134,  0.499999999636628 ]
    mass: 6.940000
    reduced_to: 1
  - symbol: Li # 25
    coordinates: [  0.125000001603556,  0.625000001114134,  0.499999999636628 ]
    mass: 6.940000
    reduced_to: 1
  - symbol: Li # 26
    coordinates: [  0.375000001603556,  0.625000001114134,  0.499999999636628 ]
    mass: 6.940000
    reduced_to: 1
  - symbol: Li # 27
    coordinates: [  0.625000001603556,  0.625000001114134,  0.499999999636628 ]
    mass: 6.940000
    reduced_to: 1
  - symbol: Li # 28
    coordinates: [  0.875000001603556,  0.625000001114134,  0.499999999636628 ]
    mass: 6.940000
    reduced_to: 1
  - symbol: Li # 29
    coordinates: [  0.125000001603556,  0.875000001114134,  0.499999999636628 ]
    mass: 6.940000
    reduced_to: 1
  - symbol: Li # 30
    coordinates: [  0.375000001603556,  0.875000001114134,  0.499999999636628 ]
    mass: 6.940000
    reduced_to: 1
  - symbol: Li # 31
    coordinates: [  0.625000001603556,  0.875000001114134,  0.499999999636628 ]
    mass: 6.940000
    reduced_to: 1
  - symbol: Li # 32
    coordinates: [  0.875000001603556,  0.875000001114134,  0.499999999636628 ]
    mass: 6.940000
    reduced_to: 1
  - symbol: Li # 33
    coordinates: [  0.125000001603556,  0.125000001114134,  0.833333332969961 ]
    mass: 6.940000
    reduced_to: 1
  - symbol: Li # 34
    coordinates: [  0.375000001603556,  0.125000001114134,  0.833333332969961 ]
    mass: 6.940000
    reduced_to: 1
  - symbol: Li # 35
    coordinates: [  0.625000001603556,  0.125000001114134,  0.833333332969961 ]
    mass: 6.940000
    reduced_to: 1
  - symbol: Li # 36
    coordinates: [  0.875000001603556,  0.125000001114134,  0.833333332969961 ]
    mass: 6.940000
    reduced_to: 1
  - symbol: Li # 37
    coordinates: [  0.125000001603556,  0.375000001114134,  0.833333332969961 ]
    mass: 6.940000
    reduced_to: 1
  - symbol: Li # 38
    coordinates: [  0.375000001603556,  0.375000001114134,  0.833333332969961 ]
    mass: 6.940000
    reduced_to: 1
  - symbol: Li # 39
    coordinates: [  0.625000001603556,  0.375000001114134,  0.833333332969961 ]
    mass: 6.940000
    reduced_to: 1
  - symbol: Li # 40
    coordinates: [  0.875000001603556,  0.375000001114134,  0.833333332969961 ]
    mass: 6.940000
    reduced_to: 1
  - symbol: Li # 41
    coordinates: [  0.125000001603556,  0.625000001114134,  0.833333332969961 ]
    mass: 6.940000
    reduced_to: 1
  - symbol: Li # 42
    coordinates: [  0.375000001603556,  0.625000001114134,  0.833333332969961 ]
    mass: 6.940000
    reduced_to: 1
  - symbol: Li # 43
    coordinates: [  0.625000001603556,  0.625000001114134,  0.833333332969961 ]
    mass: 6.940000
    reduced_to: 1
  - symbol: Li # 44
    coordinates: [  0.875000001603556,  0.625000001114134,  0.833333332969961 ]
    mass: 6.940000
    reduced_to: 1
  - symbol: Li # 45
    coordinates: [  0.125000001603556,  0.875000001114134,  0.833333332969961 ]
    mass: 6.940000
    reduced_to: 1
  - symbol: Li # 46
    coordinates: [  0.375000001603556,  0.875000001114134,  0.833333332969961 ]
    mass: 6.940000
    reduced_to: 1
  - symbol: Li # 47
    coordinates: [  0.625000001603556,  0.875000001114134,  0.833333332969961 ]
    mass: 6.940000
    reduced_to: 1
  - symbol: Li # 48
    coordinates: [  0.875000001603556,  0.875000001114134,  0.833333332969961 ]
    mass: 6.940000
    reduced_to: 1
  - symbol: Ga # 49
    coordinates: [  0.249999998449592,  0.249999998860279,  0.000000000350862 ]
    mass: 69.723000
    reduced_to: 49
  - symbol: Ga # 50
    coordinates: [  0.499999998449592,  0.249999998860279,  0.000000000350862 ]
    mass: 69.723000
    reduced_to: 49
  - symbol: Ga # 51
    coordinates: [  0.749999998449592,  0.249999998860279,  0.000000000350862 ]
    mass: 69.723000
    reduced_to: 49
  - symbol: Ga # 52
    coordinates: [  0.999999998449592,  0.249999998860279,  0.000000000350862 ]
    mass: 69.723000
    reduced_to: 49
  - symbol: Ga # 53
    coordinates: [  0.249999998449592,  0.499999998860279,  0.000000000350862 ]
    mass: 69.723000
    reduced_to: 49
  - symbol: Ga # 54
    coordinates: [  0.499999998449592,  0.499999998860279,  0.000000000350862 ]
    mass: 69.723000
    reduced_to: 49
  - symbol: Ga # 55
    coordinates: [  0.749999998449592,  0.499999998860279,  0.000000000350862 ]
    mass: 69.723000
    reduced_to: 49
  - symbol: Ga # 56
    coordinates: [  0.999999998449592,  0.499999998860279,  0.000000000350862 ]
    mass: 69.723000
    reduced_to: 49
  - symbol: Ga # 57
    coordinates: [  0.249999998449592,  0.749999998860279,  0.000000000350862 ]
    mass: 69.723000
    reduced_to: 49
  - symbol: Ga # 58
    coordinates: [  0.499999998449592,  0.749999998860279,  0.000000000350862 ]
    mass: 69.723000
    reduced_to: 49
  - symbol: Ga # 59
    coordinates: [  0.749999998449592,  0.749999998860279,  0.000000000350862 ]
    mass: 69.723000
    reduced_to: 49
  - symbol: Ga # 60
    coordinates: [  0.999999998449592,  0.749999998860279,  0.000000000350862 ]
    mass: 69.723000
    reduced_to: 49
  - symbol: Ga # 61
    coordinates: [  0.249999998449592,  0.999999998860279,  0.000000000350862 ]
    mass: 69.723000
    reduced_to: 49
  - symbol: Ga # 62
    coordinates: [  0.499999998449592,  0.999999998860279,  0.000000000350862 ]
    mass: 69.723000
    reduced_to: 49
  - symbol: Ga # 63
    coordinates: [  0.749999998449592,  0.999999998860279,  0.000000000350862 ]
    mass: 69.723000
    reduced_to: 49
  - symbol: Ga # 64
    coordinates: [  0.999999998449592,  0.999999998860279,  0.000000000350862 ]
    mass: 69.723000
    reduced_to: 49
  - symbol: Ga # 65
    coordinates: [  0.249999998449592,  0.249999998860279,  0.333333333684195 ]
    mass: 69.723000
    reduced_to: 49
  - symbol: Ga # 66
    coordinates: [  0.499999998449592,  0.249999998860279,  0.333333333684195 ]
    mass: 69.723000
    reduced_to: 49
  - symbol: Ga # 67
    coordinates: [  0.749999998449592,  0.249999998860279,  0.333333333684195 ]
    mass: 69.723000
    reduced_to: 49
  - symbol: Ga # 68
    coordinates: [  0.999999998449592,  0.249999998860279,  0.333333333684195 ]
    mass: 69.723000
    reduced_to: 49
  - symbol: Ga # 69
    coordinates: [  0.249999998449592,  0.499999998860279,  0.333333333684195 ]
    mass: 69.723000
    reduced_to: 49
  - symbol: Ga # 70
    coordinates: [  0.499999998449592,  0.499999998860279,  0.333333333684195 ]
    mass: 69.723000
    reduced_to: 49
  - symbol: Ga # 71
    coordinates: [  0.749999998449592,  0.499999998860279,  0.333333333684195 ]
    mass: 69.723000
    reduced_to: 49
  - symbol: Ga # 72
    coordinates: [  0.999999998449592,  0.499999998860279,  0.333333333684195 ]
    mass: 69.723000
    reduced_to: 49
  - symbol: Ga # 73
    coordinates: [  0.249999998449592,  0.749999998860279,  0.333333333684195 ]
    mass: 69.723000
    reduced_to: 49
  - symbol: Ga # 74
    coordinates: [  0.499999998449592,  0.749999998860279,  0.333333333684195 ]
    mass: 69.723000
    reduced_to: 49
  - symbol: Ga # 75
    coordinates: [  0.749999998449592,  0.749999998860279,  0.333333333684195 ]
    mass: 69.723000
    reduced_to: 49
  - symbol: Ga # 76
    coordinates: [  0.999999998449592,  0.749999998860279,  0.333333333684195 ]
    mass: 69.723000
    reduced_to: 49
  - symbol: Ga # 77
    coordinates: [  0.249999998449592,  0.999999998860279,  0.333333333684195 ]
    mass: 69.723000
    reduced_to: 49
  - symbol: Ga # 78
    coordinates: [  0.499999998449592,  0.999999998860279,  0.333333333684195 ]
    mass: 69.723000
    reduced_to: 49
  - symbol: Ga # 79
    coordinates: [  0.749999998449592,  0.999999998860279,  0.333333333684195 ]
    mass: 69.723000
    reduced_to: 49
  - symbol: Ga # 80
    coordinates: [  0.999999998449592,  0.999999998860279,  0.333333333684195 ]
    mass: 69.723000
    reduced_to: 49
  - symbol: Ga # 81
    coordinates: [  0.249999998449592,  0.249999998860279,  0.666666667017529 ]
    mass: 69.723000
    reduced_to: 49
  - symbol: Ga # 82
    coordinates: [  0.499999998449592,  0.249999998860279,  0.666666667017529 ]
    mass: 69.723000
    reduced_to: 49
  - symbol: Ga # 83
    coordinates: [  0.749999998449592,  0.249999998860279,  0.666666667017529 ]
    mass: 69.723000
    reduced_to: 49
  - symbol: Ga # 84
    coordinates: [  0.999999998449592,  0.249999998860279,  0.666666667017529 ]
    mass: 69.723000
    reduced_to: 49
  - symbol: Ga # 85
    coordinates: [  0.249999998449592,  0.499999998860279,  0.666666667017529 ]
    mass: 69.723000
    reduced_to: 49
  - symbol: Ga # 86
    coordinates: [  0.499999998449592,  0.499999998860279,  0.666666667017529 ]
    mass: 69.723000
    reduced_to: 49
  - symbol: Ga # 87
    coordinates: [  0.749999998449592,  0.499999998860279,  0.666666667017529 ]
    mass: 69.723000
    reduced_to: 49
  - symbol: Ga # 88
    coordinates: [  0.999999998449592,  0.499999998860279,  0.666666667017529 ]
    mass: 69.723000
    reduced_to: 49
  - symbol: Ga # 89
    coordinates: [  0.249999998449592,  0.749999998860279,  0.666666667017529 ]
    mass: 69.723000
    reduced_to: 49
  - symbol: Ga # 90
    coordinates: [  0.499999998449592,  0.749999998860279,  0.666666667017529 ]
    mass: 69.723000
    reduced_to: 49
  - symbol: Ga # 91
    coordinates: [  0.749999998449592,  0.749999998860279,  0.666666667017529 ]
    mass: 69.723000
    reduced_to: 49
  - symbol: Ga # 92
    coordinates: [  0.999999998449592,  0.749999998860279,  0.666666667017529 ]
    mass: 69.723000
    reduced_to: 49
  - symbol: Ga # 93
    coordinates: [  0.249999998449592,  0.999999998860279,  0.666666667017529 ]
    mass: 69.723000
    reduced_to: 49
  - symbol: Ga # 94
    coordinates: [  0.499999998449592,  0.999999998860279,  0.666666667017529 ]
    mass: 69.723000
    reduced_to: 49
  - symbol: Ga # 95
    coordinates: [  0.749999998449592,  0.999999998860279,  0.666666667017529 ]
    mass: 69.723000
    reduced_to: 49
  - symbol: Ga # 96
    coordinates: [  0.999999998449592,  0.999999998860279,  0.666666667017529 ]
    mass: 69.723000
    reduced_to: 49

displacements:
- atom:    1
  displacement:
    [   0.0065463372748168, -0.0000000001356369,  0.0075594621689869 ]
  forces:
  - [  -0.0179982185363770,  0.0000002336461336, -0.0175936482846737 ]
  - [   0.0045158220455050, -0.0000000959325916,  0.0000619161291979 ]
  - [  -0.0006297241197899,  0.0000001054819876, -0.0000936032738537 ]
  - [   0.0044427886605263,  0.0000003525753982,  0.0000673598842695 ]
  - [  -0.0001621311530471, -0.0000105199869722,  0.0000669050859869 ]
  - [   0.0002608200302348,  0.0001248646294698,  0.0001916787441587 ]
  - [   0.0000310457799060, -0.0000008197966963,  0.0000060965985540 ]
  - [   0.0002568765776232, -0.0001226989552379,  0.0001936133485287 ]
  - [  -0.0001130357850343,  0.0000002934830263, -0.0000924092601053 ]
  - [   0.0000171350548044, -0.0000002821369094,  0.0000051288934628 ]
  - [  -0.0000039544538595,  0.0000001710141078,  0.0000320781837218 ]
  - [   0.0000180714996532,  0.0000000576577008,  0.0000049802815738 ]
  - [  -0.0001630351034692,  0.0000108173117042,  0.0000658215139993 ]
  - [   0.0002607163041830, -0.0001257732510567,  0.0001905709505081 ]
  - [   0.0000301392428810,  0.0000004420289770,  0.0000049511309044 ]
  - [   0.0002578459680080,  0.0001221215352416,  0.0001924573734868 ]
  - [  -0.0001757526770234, -0.0000002445787004,  0.0008622538298368 ]
  - [   0.0003525986103341, -0.0000005408364814,  0.0003066318749916 ]
  - [  -0.0000134406145662, -0.0000001831697887,  0.0000115457223728 ]
  - [  -0.0000601233914495, -0.0000003230732091, -0.0000534824939677 ]
  - [  -0.0000057809174905,  0.0002051030751318,  0.0001220847188961 ]
  - [  -0.0003944724448957, -0.0004527568817139, -0.0007669536862522 ]
  - [   0.0000222414655582, -0.0000027799978852, -0.0000048632737162 ]
  - [   0.0002117800759152, -0.0001545674167573, -0.0002391927991994 ]
  - [   0.0000083459308371,  0.0000003198317984,  0.0000114431604743 ]
  - [   0.0000044673797674, -0.0000000736670245, -0.0000049573259275 ]
  - [  -0.0000265894341283,  0.0000000326351355, -0.0000157061731443 ]
  - [   0.0000107730738819, -0.0000002859348456,  0.0000002941897037 ]
  - [  -0.0000062776975938, -0.0002046991139650,  0.0001231299247593 ]
  - [  -0.0003948400262743,  0.0004520360962488, -0.0007651685154997 ]
  - [   0.0000217943761527,  0.0000028968206607, -0.0000024255357403 ]
  - [   0.0002128863707185,  0.0001540817320347, -0.0002371879672864 ]
  - [  -0.0001690275967121, -0.0000000551808625,  0.0008636094862595 ]
  - [  -0.0000606399262324, -0.0000005153049187, -0.0000529978642589 ]
  - [  -0.0000128113897517, -0.0000001090811566,  0.0000119963688121 ]
  - [   0.0003409730270505, -0.0000000299480689,  0.0002922285639215 ]
  - [  -0.0000073457740655, -0.0002015660284087,  0.0001212532006321 ]
  - [   0.0002130250795744,  0.0001560938544571, -0.0002384859690210 ]
  - [   0.0000228636217798,  0.0000028754584491, -0.0000017266320356 ]
  - [  -0.0003912505344488,  0.0004488417180255, -0.0007577111246064 ]
  - [   0.0000077335280366,  0.0000011645024642,  0.0000110879400381 ]
  - [   0.0000097359297797,  0.0000005061233992, -0.0000007247328995 ]
  - [  -0.0000260206870735,  0.0000006901100278, -0.0000169807772181 ]
  - [   0.0000056680873968,  0.0000006754573860, -0.0000056640042203 ]
  - [  -0.0000076800433817,  0.0002020131796598,  0.0001220930280397 ]
  - [   0.0002122020814568, -0.0001550927991048, -0.0002392451133346 ]
  - [   0.0000226079209824, -0.0000023650936782, -0.0000025519800602 ]
  - [  -0.0003904541954398, -0.0004486180841923, -0.0007580863893963 ]
  - [  -0.0012132958509028, -0.0013254333753139,  0.0012118101585656 ]
  - [   0.0002806043485180,  0.0000980041077128, -0.0001779760932550 ]
  - [   0.0003401942085475, -0.0002822806709446,  0.0004523673560470 ]
  - [   0.0028297605458647, -0.0027151918038726,  0.0026405276730657 ]
  - [  -0.0000463766045868,  0.0000164811171999,  0.0000479142181575 ]
  - [   0.0000140576157719, -0.0000027102964850,  0.0000067884102464 ]
  - [  -0.0000315072247759,  0.0000467644131277, -0.0000242851674557 ]
  - [   0.0001404307549819, -0.0000826404721010,  0.0002287765964866 ]
  - [  -0.0000453420216218, -0.0000170063576661,  0.0000478269066662 ]
  - [   0.0000124811194837,  0.0000017849961296,  0.0000069129746407 ]
  - [  -0.0000306430738419, -0.0000468469224870, -0.0000245557748713 ]
  - [   0.0001396995648975,  0.0000816647661850,  0.0002280662301928 ]
  - [  -0.0012167418608442,  0.0013251671334729,  0.0012114730197936 ]
  - [   0.0002815984189510, -0.0000986618397292, -0.0001784199848771 ]
  - [   0.0003372699720785,  0.0002821110538207,  0.0004522846429609 ]
  - [   0.0028327042236924,  0.0027145678177476,  0.0026401202194393 ]
  - [   0.0029110340401530,  0.0028051258996129,  0.0027511634398252 ]
  - [   0.0003400921705179,  0.0002898552920669,  0.0004557343781926 ]
  - [   0.0002828036667779, -0.0000966543448158, -0.0001806869986467 ]
  - [  -0.0012037882115692,  0.0013198778033257,  0.0011941078118980 ]
  - [   0.0001389824319631,  0.0000727795122657,  0.0002284941729158 ]
  - [  -0.0000313227064908, -0.0000498887675349, -0.0000252826139331 ]
  - [   0.0000137856695801, -0.0000004353084364,  0.0000061078462750 ]
  - [  -0.0000453352695331, -0.0000226893789659,  0.0000455323606730 ]
  - [   0.0001393945422024, -0.0000747221056372,  0.0002284917281941 ]
  - [  -0.0000329907634296,  0.0000472284154966, -0.0000251808087341 ]
  - [   0.0000152034917846, -0.0000023111351766,  0.0000060640159063 ]
  - [  -0.0000450298393844,  0.0000210391590372,  0.0000454866676591 ]
  - [   0.0029081879183650, -0.0028024497441947,  0.0027507850900292 ]
  - [   0.0003416491672397, -0.0002869954623748,  0.0004559177905321 ]
  - [   0.0002803050447255,  0.0001001324271783, -0.0001807147054933 ]
  - [  -0.0012002484872937, -0.0013173855841160,  0.0011939336545765 ]
  - [  -0.0000056053977460,  0.0000047448556870,  0.0000132095156005 ]
  - [   0.0000053882249631, -0.0000100937904790,  0.0000194692420337 ]
  - [   0.0000063525512815,  0.0000081543694250,  0.0000195375923795 ]
  - [  -0.0000067661535468, -0.0000050272792578,  0.0000134288111440 ]
  - [  -0.0000044789630920,  0.0000137559254654,  0.0000191310464288 ]
  - [   0.0000044740736485, -0.0000008328352123,  0.0000184077252925 ]
  - [   0.0000048520741984,  0.0000040170853026,  0.0000185737462743 ]
  - [  -0.0000033807009459, -0.0000090766698122,  0.0000195140019059 ]
  - [  -0.0000041536986828, -0.0000120576005429,  0.0000190980426851 ]
  - [   0.0000031162635423,  0.0000003910390660,  0.0000179270991794 ]
  - [   0.0000058813020587, -0.0000027833157219,  0.0000180186871148 ]
  - [  -0.0000034440890886,  0.0000086630461738,  0.0000189806087292 ]
  - [  -0.0000055831624195, -0.0000039611186367,  0.0000132193763420 ]
  - [   0.0000075865536928,  0.0000087621156126,  0.0000196889996005 ]
  - [   0.0000042710453272, -0.0000081063190009,  0.0000192956413230 ]
  - [  -0.0000044861808419,  0.0000033971882658,  0.0000135058908199 ]
- atom:   49
  displacement:
    [   0.0065463372748168, -0.0000000001356369,  0.0075594621689869 ]
  forces:
  - [  -0.0000339997932315, -0.0001415324950358,  0.0001733386889100 ]
  - [   0.0017260330496356, -0.0016188117442653,  0.0037694482598454 ]
  - [   0.0006807143799961, -0.0001555758644827,  0.0001635121880099 ]
  - [  -0.0000527361407876, -0.0000566995768168,  0.0001106521813199 ]
  - [  -0.0000332581694238,  0.0001424262300134,  0.0001749608345563 ]
  - [   0.0017258566804230,  0.0016179183730856,  0.0037714361678809 ]
  - [   0.0006813406944275,  0.0001557103823870,  0.0001658317632973 ]
  - [  -0.0000520769390278,  0.0000566727248952,  0.0001131221360993 ]
  - [  -0.0000580268097110,  0.0001727074850351,  0.0000564115471207 ]
  - [   0.0001507177366875,  0.0005577448755503,  0.0002177414135076 ]
  - [  -0.0000285360729322, -0.0000423492165282, -0.0000291304313578 ]
  - [   0.0000080367317423,  0.0000061059772634,  0.0000105072767838 ]
  - [  -0.0000580448540859, -0.0001722956076264,  0.0000561118067708 ]
  - [   0.0001520207151771, -0.0005586235201918,  0.0002175821573474 ]
  - [  -0.0000274586254818,  0.0000427412451245, -0.0000287062375719 ]
  - [   0.0000092573463917, -0.0000068312510848,  0.0000103751735878 ]
  - [  -0.0000070082023740,  0.0000035913055854,  0.0000132820568979 ]
  - [  -0.0000063163461164, -0.0000051201391216,  0.0000149773841258 ]
  - [   0.0000064234482124, -0.0000116322671602,  0.0000197870540433 ]
  - [   0.0000056568533182,  0.0000108358926809,  0.0000202392238862 ]
  - [  -0.0000066133366090, -0.0000035673147067,  0.0000109802440420 ]
  - [  -0.0000059133744799,  0.0000040474114940,  0.0000126207269204 ]
  - [   0.0000067237911026,  0.0000111237168312,  0.0000169788963831 ]
  - [   0.0000063830520958, -0.0000112478155643,  0.0000173265307239 ]
  - [  -0.0000040523591451,  0.0000089958002718,  0.0000195340835489 ]
  - [  -0.0000051799579524, -0.0000089013356046,  0.0000191921644728 ]
  - [   0.0000028079375625, -0.0000013894944004,  0.0000189528800547 ]
  - [   0.0000037904246710,  0.0000012637163991,  0.0000190000246221 ]
  - [  -0.0000044465782594, -0.0000085411593318,  0.0000188366120710 ]
  - [  -0.0000043448526412,  0.0000084800994955,  0.0000196816199605 ]
  - [   0.0000036057842863,  0.0000018285936676,  0.0000183745360118 ]
  - [   0.0000049043446779, -0.0000018421560526,  0.0000180353054020 ]
  - [   0.0016584722325206,  0.0015427700709552,  0.0036614071577787 ]
  - [  -0.0000295166391879,  0.0001436502207071,  0.0001911365106935 ]
  - [  -0.0000566487433389,  0.0000559072359465,  0.0001121399109252 ]
  - [   0.0006725527346134,  0.0001507448760094,  0.0001612469350221 ]
  - [   0.0016585771227255, -0.0015424139564857,  0.0036611752584577 ]
  - [  -0.0000285585992970, -0.0001433249562979,  0.0001914158201544 ]
  - [  -0.0000564819274587, -0.0000553020508960,  0.0001124414557125 ]
  - [   0.0006728735170327, -0.0001501187216491,  0.0001616010413272 ]
  - [   0.0001514308387414, -0.0005566949257627,  0.0002167601196561 ]
  - [  -0.0000589480623603, -0.0001743954926496,  0.0000579411353101 ]
  - [   0.0000076205469668, -0.0000057922443375,  0.0000090519461082 ]
  - [  -0.0000285379355773,  0.0000432259075751, -0.0000303670185531 ]
  - [   0.0001513135503046,  0.0005578109994531,  0.0002177051210310 ]
  - [  -0.0000579061452299,  0.0001751708914526,  0.0000580805317441 ]
  - [   0.0000085058300101,  0.0000065509229898,  0.0000096195908554 ]
  - [  -0.0000272337347269, -0.0000429349020123, -0.0000288912069664 ]
  - [  -0.0288922861218452, -0.0000000458205278, -0.0194570124149323 ]
  - [   0.0088971080258489,  0.0000000148858703,  0.0002399986842647 ]
  - [  -0.0010050404816866, -0.0000006493804676,  0.0001187252346426 ]
  - [   0.0086376573890448, -0.0000005348282457,  0.0002922193380073 ]
  - [  -0.0005334978923202, -0.0000286516478809,  0.0002663605846465 ]
  - [   0.0010647254530340,  0.0011857680510730, -0.0003450638614595 ]
  - [   0.0000029065413401, -0.0000027697265068, -0.0000145516823977 ]
  - [   0.0010542827658355, -0.0011777686886489, -0.0003413041122258 ]
  - [   0.0002232943661511, -0.0000000080908649,  0.0001185850705951 ]
  - [  -0.0000144832301885,  0.0000002930173650, -0.0000148743856698 ]
  - [  -0.0000952928094193, -0.0000002092565410,  0.0000139007461257 ]
  - [  -0.0000115619914141,  0.0000004216562957, -0.0000146884121932 ]
  - [  -0.0005350626306608,  0.0000270925811492,  0.0002663910854608 ]
  - [   0.0010645342990756, -0.0011859405785799, -0.0003451742231846 ]
  - [   0.0000000672880560,  0.0000020818697521, -0.0000149812549353 ]
  - [   0.0010569365695119,  0.0011769664706662, -0.0003420948050916 ]
  - [  -0.0000070983078331,  0.0000029088114388,  0.0003407222684473 ]
  - [   0.0000365255400538,  0.0000034990953282,  0.0001674885861576 ]
  - [  -0.0000363345025107,  0.0000031627714634,  0.0000234383624047 ]
  - [   0.0000259364824160,  0.0000027443747967,  0.0001571227330714 ]
  - [  -0.0000727202277631,  0.0000044821908887,  0.0001622140407562 ]
  - [  -0.0001121822278947, -0.0001605756406207, -0.0001518703065813 ]
  - [   0.0000191859435290, -0.0000011909019122,  0.0000077503500506 ]
  - [   0.0000705519923940, -0.0000273022196779,  0.0000072098337114 ]
  - [  -0.0000145740341395, -0.0000004499452189,  0.0000235029729083 ]
  - [   0.0000032258103602, -0.0000003720633686,  0.0000089583918452 ]
  - [   0.0000109876273200, -0.0000001267180778, -0.0000068815425038 ]
  - [   0.0000022974272724,  0.0000003601890057,  0.0000066796201281 ]
  - [  -0.0000749323662603, -0.0000061897444539,  0.0001622971612960 ]
  - [  -0.0001118844375014,  0.0001578880037414, -0.0001519853249192 ]
  - [   0.0000160026829690, -0.0000016475969460,  0.0000077328877524 ]
  - [   0.0000737365335226,  0.0000249575823545,  0.0000072601251304 ]
  - [  -0.0000095367431641,  0.0000000081490725,  0.0003630470891949 ]
  - [   0.0000249547883868, -0.0000005356268957,  0.0001588957820786 ]
  - [  -0.0000365235609934, -0.0000005960464478,  0.0000223369388550 ]
  - [   0.0000393657428504, -0.0000006974441931,  0.0001692032819847 ]
  - [  -0.0000738548114896, -0.0000051728566177,  0.0001638106186874 ]
  - [   0.0000706877326593,  0.0000267423456535,  0.0000081916568888 ]
  - [   0.0000186670804396,  0.0000010891235434,  0.0000079988776633 ]
  - [  -0.0001094437902793,  0.0001568933948874, -0.0001474340388086 ]
  - [  -0.0000141289783642, -0.0000012320815586,  0.0000220485089812 ]
  - [   0.0000004782341421, -0.0000007218914106,  0.0000067577857408 ]
  - [   0.0000108092790470, -0.0000015741097741, -0.0000069047509896 ]
  - [   0.0000043651089072, -0.0000023050233722,  0.0000083535433077 ]
  - [  -0.0000720012467355,  0.0000059925951064,  0.0001640039845370 ]
  - [   0.0000712079927325, -0.0000250627490459,  0.0000079553483374 ]
  - [   0.0000155067536980,  0.0000015991972759,  0.0000077697704910 ]
  - [  -0.0001073293387890, -0.0001547970605316, -0.0001475965545978 ]

force_constants:
  format: "full"
  shape: [ 96, 96 ]
  elements:
  - # (1, 1)
    - [     2.749328593299663,    -0.000000001252234,     0.000000000312946 ]
    - [    -0.000000001252234,     2.749328593180381,     0.000000004140479 ]
    - [     0.000000000312946,     0.000000004140479,     2.327357975679947 ]
  - # (1, 2)
    - [    -0.684274496338370,     0.000000021031186,    -0.000000000634910 ]
    - [     0.000000063770487,     0.024807283543299,     0.000000000381748 ]
    - [    -0.000000006964400,     0.000000000647843,    -0.008674475203993 ]
  - # (1, 3)
    - [     0.096166422852992,    -0.000000003474108,    -0.000000000041283 ]
    - [    -0.000000008277139,     0.017238571348744,     0.000000000514846 ]
    - [     0.000000000673592,     0.000000000336063,     0.012293540375326 ]