# Thermal properties / unit cell (natom)

unit:
  temperature:   K
  free_energy:   kJ/mol
  entropy:       J/K/mol
  heat_capacity: J/K/mol

natom: 2    
cutoff_frequency: 0.00000
num_modes: 186624
num_integrated_modes: 186623

zero_point_energy:       7.7036057

thermal_properties:
- temperature:         0.0000000
  free_energy:         7.7036057
  entropy:             0.0000000
  heat_capacity:       0.0000000
  energy:              7.7036057

- temperature:        10.0000000
  free_energy:         7.7034574
  entropy:             0.0387028
  heat_capacity:       0.1024033
  energy:              7.7038444

- temperature:        20.0000000
  free_energy:         7.7018618
  entropy:             0.3784334
  heat_capacity:       1.3699389
  energy:              7.7094305

- temperature:        30.0000000
  free_energy:         7.6931859
  entropy:             1.5005935
  heat_capacity:       4.6142936
  energy:              7.7382038

- temperature:        40.0000000
  free_energy:         7.6693855
  entropy:             3.3557276
  heat_capacity:       8.4660266
  energy:              7.8036146

- temperature:        50.0000000
  free_energy:         7.6246553
  entropy:             5.6398097
  heat_capacity:      12.0785539
  energy:              7.9066458

- temperature:        60.0000000
  free_energy:         7.5558984
  entropy:             8.1346888
  heat_capacity:      15.3339820
  energy:              8.0439797

- temperature:        70.0000000
  free_energy:         7.4616501
  entropy:            10.7247782
  heat_capacity:      18.3060420
  energy:              8.2123846

- temperature:        80.0000000
  free_energy:         7.3412853
  entropy:            13.3509155
  heat_capacity:      21.0541428
  energy:              8.4093586

- temperature:        90.0000000
  free_energy:         7.1946243
  entropy:            15.9796859
  heat_capacity:      23.6001982
  energy:              8.6327960

- temperature:       100.0000000
  free_energy:         7.0217557
  entropy:            18.5894339
  heat_capacity:      25.9471353
  energy:              8.8806991

- temperature:       110.0000000
  free_energy:         6.8229508
  entropy:            21.1647448
  heat_capacity:      28.0944218
  energy:              9.1510728

- temperature:       120.0000000
  free_energy:         6.5986136
  entropy:            23.6943124
  heat_capacity:      30.0449539
  energy:              9.4419311

- temperature:       130.0000000
  free_energy:         6.3492445
  entropy:            26.1699753
  heat_capacity:      31.8064668
  energy:              9.7513413

- temperature:       140.0000000
  free_energy:         6.0754127
  entropy:            28.5861155
  heat_capacity:      33.3906002
  energy:             10.0774689

- temperature:       150.0000000
  free_energy:         5.7777327
  entropy:            30.9391733
  heat_capacity:      34.8113705
  energy:             10.4186087

- temperature:       160.0000000
  free_energy:         5.4568461
  entropy:            33.2272232
  heat_capacity:      36.0837911
  energy:             10.7732018

- temperature:       170.0000000
  free_energy:         5.1134072
  entropy:            35.4496050
  heat_capacity:      37.2228577
  energy:             11.1398401

- temperature:       180.0000000
  free_energy:         4.7480720
  entropy:            37.6066130
  heat_capacity:      38.2428949
  energy:             11.5172623

- temperature:       190.0000000
  free_energy:         4.3614896
  entropy:            39.6992422
  heat_capacity:      39.1571865
  energy:             11.9043456

- temperature:       200.0000000
  free_energy:         3.9542968
  entropy:            41.7289858
  heat_capacity:      39.9778057
  energy:             12.3000939

- temperature:       210.0000000
  free_energy:         3.5271134
  entropy:            43.6976775
  heat_capacity:      40.7155751
  energy:             12.7036257

- temperature:       220.0000000
  free_energy:         3.0805399
  entropy:            45.6073706
  heat_capacity:      41.3801057
  energy:             13.1141614

- temperature:       230.0000000
  free_energy:         2.6151554
  entropy:            47.4602464
  heat_capacity:      41.9798783
  energy:             13.5310121

- temperature:       240.0000000
  free_energy:         2.1315169
  entropy:            49.2585466
  heat_capacity:      42.5223461
  energy:             13.9535681

- temperature:       250.0000000
  free_energy:         1.6301589
  entropy:            51.0045239
  heat_capacity:      43.0140432
  energy:             14.3812898

- temperature:       260.0000000
  free_energy:         1.1115934
  entropy:            52.7004056
  heat_capacity:      43.4606901
  energy:             14.8136989

- temperature:       270.0000000
  free_energy:         0.5763105
  entropy:            54.3483694
  heat_capacity:      43.8672938
  energy:             15.2503702

- temperature:       280.0000000
  free_energy:         0.0247787
  entropy:            55.9505258
  heat_capacity:      44.2382374
  energy:             15.6909259

- temperature:       290.0000000
  free_energy:        -0.5425541
  entropy:            57.5089072
  heat_capacity:      44.5773613
  energy:             16.1350290

- temperature:       300.0000000
  free_energy:        -1.1252600
  entropy:            59.0254613
  heat_capacity:      44.8880341
  energy:             16.5823784

- temperature:       310.0000000
  free_energy:        -1.7229301
  entropy:            60.5020479
  heat_capacity:      45.1732148
  energy:             17.0327047

- temperature:       320.0000000
  free_energy:        -2.3351737
  entropy:            61.9404378
  heat_capacity:      45.4355068
  energy:             17.4857664

- temperature:       330.0000000
  free_energy:        -2.9616172
  entropy:            63.3423134
  heat_capacity:      45.6772048
  energy:             17.9413462

- temperature:       340.0000000
  free_energy:        -3.6019036
  entropy:            64.7092712
  heat_capacity:      45.9003351
  energy:             18.3992486

- temperature:       350.0000000
  free_energy:        -4.2556913
  entropy:            66.0428238
  heat_capacity:      46.1066905
  energy:             18.8592970

- temperature:       360.0000000
  free_energy:        -4.9226535
  entropy:            67.3444036
  heat_capacity:      46.2978604
  energy:             19.3213318

- temperature:       370.0000000
  free_energy:        -5.6024773
  entropy:            68.6153666
  heat_capacity:      46.4752567
  energy:             19.7852084

- temperature:       380.0000000
  free_energy:        -6.2948630
  entropy:            69.8569955
  heat_capacity:      46.6401358
  energy:             20.2507953

- temperature:       390.0000000
  free_energy:        -6.9995235
  entropy:            71.0705040
  heat_capacity:      46.7936185
  energy:             20.7179731

- temperature:       400.0000000
  free_energy:        -7.7161832
  entropy:            72.2570405
  heat_capacity:      46.9367063
  energy:             21.1866330

- temperature:       410.0000000
  free_energy:        -8.4445780
  entropy:            73.4176917
  heat_capacity:      47.0702958
  energy:             21.6566756

- temperature:       420.0000000
  free_energy:        -9.1844542
  entropy:            74.5534860
  heat_capacity:      47.1951914
  energy:             22.1280099

- temperature:       430.0000000
  free_energy:        -9.9355681
  entropy:            75.6653976
  heat_capacity:      47.3121161
  energy:             22.6005528

- temperature:       440.0000000
  free_energy:       -10.6976856
  entropy:            76.7543488
  heat_capacity:      47.4217208
  energy:             23.0742279

- temperature:       450.0000000
  free_energy:       -11.4705815
  entropy:            77.8212140
  heat_capacity:      47.5245928
  energy:             23.5489648

- temperature:       460.0000000
  free_energy:       -12.2540390
  entropy:            78.8668220
  heat_capacity:      47.6212626
  energy:             24.0246991

- temperature:       470.0000000
  free_energy:       -13.0478497
  entropy:            79.8919589
  heat_capacity:      47.7122106
  energy:             24.5013710

- temperature:       480.0000000
  free_energy:       -13.8518125
  entropy:            80.8973711
  heat_capacity:      47.7978723
  energy:             24.9789257

- temperature:       490.0000000
  free_energy:       -14.6657337
  entropy:            81.8837671
  heat_capacity:      47.8786434
  energy:             25.4573122

- temperature:       500.0000000
  free_energy:       -15.4894267
  entropy:            82.8518202
  heat_capacity:      47.9548836
  energy:             25.9364834

- temperature:       510.0000000
  free_energy:       -16.3227111
  entropy:            83.8021705
  heat_capacity:      48.0269208
  energy:             26.4163958

- temperature:       520.0000000
  free_energy:       -17.1654131
  entropy:            84.7354268
  heat_capacity:      48.0950541
  energy:             26.8970088

- temperature:       530.0000000
  free_energy:       -18.0173646
  entropy:            85.6521687
  heat_capacity:      48.1595570
  energy:             27.3782848

- temperature:       540.0000000
  free_energy:       -18.8784033
  entropy:            86.5529481
  heat_capacity:      48.2206796
  energy:             27.8601887

- temperature:       550.0000000
  free_energy:       -19.7483721
  entropy:            87.4382910
  heat_capacity:      48.2786513
  energy:             28.3426879

- temperature:       560.0000000
  free_energy:       -20.6271193
  entropy:            88.3086987
  heat_capacity:      48.3336823
  energy:             28.8257519

- temperature:       570.0000000
  free_energy:       -21.5144979
  entropy:            89.1646497
  heat_capacity:      48.3859661
  energy:             29.3093524

- temperature:       580.0000000
  free_energy:       -22.4103656
  entropy:            90.0066006
  heat_capacity:      48.4356806
  energy:             29.7934627

- temperature:       590.0000000
  free_energy:       -23.3145847
  entropy:            90.8349876
  heat_capacity:      48.4829895
  energy:             30.2780580

- temperature:       600.0000000
  free_energy:       -24.2270216
  entropy:            91.6502276
  heat_capacity:      48.5280442
  energy:             30.7631150

- temperature:       610.0000000
  free_energy:       -25.1475468
  entropy:            92.4527190
  heat_capacity:      48.5709841
  energy:             31.2486118

- temperature:       620.0000000
  free_energy:       -26.0760347
  entropy:            93.2428432
  heat_capacity:      48.6119384
  energy:             31.7345280

- temperature:       630.0000000
  free_energy:       -27.0123636
  entropy:            94.0209651
  heat_capacity:      48.6510265
  energy:             32.2208444

- temperature:       640.0000000
  free_energy:       -27.9564152
  entropy:            94.7874342
  heat_capacity:      48.6883590
  energy:             32.7075427

- temperature:       650.0000000
  free_energy:       -28.9080746
  entropy:            95.5425856
  heat_capacity:      48.7240387
  energy:             33.1946060

- temperature:       660.0000000
  free_energy:       -29.8672303
  entropy:            96.2867402
  heat_capacity:      48.7581609
  energy:             33.6820183

- temperature:       670.0000000
  free_energy:       -30.8337738
  entropy:            97.0202062
  heat_capacity:      48.7908142
  energy:             34.1697644

- temperature:       680.0000000
  free_energy:       -31.8075997
  entropy:            97.7432790
  heat_capacity:      48.8220811
  energy:             34.6578300

- temperature:       690.0000000
  free_energy:       -32.7886057
  entropy:            98.4562424
  heat_capacity:      48.8520383
  energy:             35.1462016

- temperature:       700.0000000
  free_energy:       -33.7766918
  entropy:            99.1593691
  heat_capacity:      48.8807576
  energy:             35.6348666

- temperature:       710.0000000
  free_energy:       -34.7717611
  entropy:            99.8529211
  heat_capacity:      48.9083056
  energy:             36.1238129

- temperature:       720.0000000
  free_energy:       -35.7737191
  entropy:           100.5371502
  heat_capacity:      48.9347447
  energy:             36.6130290

- temperature:       730.0000000
  free_energy:       -36.7824739
  entropy:           101.2122988
  heat_capacity:      48.9601334
  energy:             37.1025043

- temperature:       740.0000000
  free_energy:       -37.7979356
  entropy:           101.8786000
  heat_capacity:      48.9845261
  energy:             37.5922284

- temperature:       750.0000000
  free_energy:       -38.8200171
  entropy:           102.5362783
  heat_capacity:      49.0079740
  energy:             38.0821916

- temperature:       760.0000000
  free_energy:       -39.8486332
  entropy:           103.1855500
  heat_capacity:      49.0305248
  energy:             38.5723849

- temperature:       770.0000000
  free_energy:       -40.8837008
  entropy:           103.8266235
  heat_capacity:      49.0522236
  energy:             39.0627993

- temperature:       780.0000000
  free_energy:       -41.9251390
  entropy:           104.4596995
  heat_capacity:      49.0731124
  energy:             39.5534266

- temperature:       790.0000000
  free_energy:       -42.9728688
  entropy:           105.0849718
  heat_capacity:      49.0932309
  energy:             40.0442590

- temperature:       800.0000000
  free_energy:       -44.0268130
  entropy:           105.7026273
  heat_capacity:      49.1126162
  energy:             40.5352888

- temperature:       810.0000000
  free_energy:       -45.0868965
  entropy:           106.3128463
  heat_capacity:      49.1313034
  energy:             41.0265090

- temperature:       820.0000000
  free_energy:       -46.1530458
  entropy:           106.9158029
  heat_capacity:      49.1493253
  energy:             41.5179126

- temperature:       830.0000000
  free_energy:       -47.2251889
  entropy:           107.5116654
  heat_capacity:      49.1667131
  energy:             42.0094934

- temperature:       840.0000000
  free_energy:       -48.3032560
  entropy:           108.1005962
  heat_capacity:      49.1834960
  energy:             42.5012449

- temperature:       850.0000000
  free_energy:       -49.3871783
  entropy:           108.6827525
  heat_capacity:      49.1997015
  energy:             42.9931614

- temperature:       860.0000000
  free_energy:       -50.4768889
  entropy:           109.2582861
  heat_capacity:      49.2153558
  energy:             43.4852371

- temperature:       870.0000000
  free_energy:       -51.5723224
  entropy:           109.8273438
  heat_capacity:      49.2304835
  energy:             43.9774667

- temperature:       880.0000000
  free_energy:       -52.6734147
  entropy:           110.3900679
  heat_capacity:      49.2451077
  energy:             44.4698451

- temperature:       890.0000000
  free_energy:       -53.7801031
  entropy:           110.9465959
  heat_capacity:      49.2592506
  energy:             44.9623673

- temperature:       900.0000000
  free_energy:       -54.8923264
  entropy:           111.4970611
  heat_capacity:      49.2729328
  energy:             45.4550286

- temperature:       910.0000000
  free_energy:       -56.0100246
  entropy:           112.0415923
  heat_capacity:      49.2861741
  energy:             45.9478244

- temperature:       920.0000000
  free_energy:       -57.1331389
  entropy:           112.5803147
  heat_capacity:      49.2989932
  energy:             46.4407506

- temperature:       930.0000000
  free_energy:       -58.2616119
  entropy:           113.1133493
  heat_capacity:      49.3114078
  energy:             46.9338030

- temperature:       940.0000000
  free_energy:       -59.3953873
  entropy:           113.6408136
  heat_capacity:      49.3234345
  energy:             47.4269775

- temperature:       950.0000000
  free_energy:       -60.5344100
  entropy:           114.1628215
  heat_capacity:      49.3350894
  energy:             47.9202704

- temperature:       960.0000000
  free_energy:       -61.6786259
  entropy:           114.6794833
  heat_capacity:      49.3463876
  energy:             48.4136781

- temperature:       970.0000000
  free_energy:       -62.8279822
  entropy:           115.1909064
  heat_capacity:      49.3573434
  energy:             48.9071970

- temperature:       980.0000000
  free_energy:       -63.9824269
  entropy:           115.6971947
  heat_capacity:      49.3679704
  energy:             49.4008239

- temperature:       990.0000000
  free_energy:       -65.1419093
  entropy:           116.1984492
  heat_capacity:      49.3782817
  energy:             49.8945554

- temperature:      1000.0000000
  free_energy:       -66.3063795
  entropy:           116.6947680
  heat_capacity:      49.3882896
  energy:             50.3883885
