# Thermal properties / unit cell (natom)

unit:
  temperature:   K
  free_energy:   kJ/mol
  entropy:       J/K/mol
  heat_capacity: J/K/mol

natom: 12   
cutoff_frequency: 0.00000
num_modes: 609408
num_integrated_modes: 590495

zero_point_energy:      32.1739208

thermal_properties:
- temperature:         0.0000000
  free_energy:        32.1739208
  entropy:             0.0000000
  heat_capacity:       0.0000000
  energy:             32.1739208

- temperature:        10.0000000
  free_energy:        32.1646994
  entropy:             3.0589960
  heat_capacity:       7.4901766
  energy:             32.1952893

- temperature:        20.0000000
  free_energy:        32.0781567
  entropy:            15.9892394
  heat_capacity:      35.5118651
  energy:             32.3979414

- temperature:        30.0000000
  free_energy:        31.8194669
  entropy:            36.4918784
  heat_capacity:      66.8326875
  energy:             32.9142233

- temperature:        40.0000000
  free_energy:        31.3411746
  entropy:            59.2672666
  heat_capacity:      91.7141947
  energy:             33.7118653

- temperature:        50.0000000
  free_energy:        30.6344249
  entropy:            82.0063625
  heat_capacity:     112.4180772
  energy:             34.7347431

- temperature:        60.0000000
  free_energy:        29.7029525
  entropy:           104.1854871
  heat_capacity:     131.2164868
  energy:             35.9540817

- temperature:        70.0000000
  free_energy:        28.5527936
  entropy:           125.7415060
  heat_capacity:     148.6824218
  energy:             37.3546991

- temperature:        80.0000000
  free_energy:        27.1902521
  entropy:           146.6579430
  heat_capacity:     164.6955859
  energy:             38.9228875

- temperature:        90.0000000
  free_energy:        25.6218715
  entropy:           166.9033175
  heat_capacity:     179.0813799
  energy:             40.6431701

- temperature:       100.0000000
  free_energy:        23.8545367
  entropy:           186.4437890
  heat_capacity:     191.7914123
  energy:             42.4989156

- temperature:       110.0000000
  free_energy:        21.8954233
  entropy:           205.2565160
  heat_capacity:     202.8962663
  energy:             44.4736401

- temperature:       120.0000000
  free_energy:        19.7518583
  entropy:           223.3341530
  heat_capacity:     212.5367209
  energy:             46.5519567

- temperature:       130.0000000
  free_energy:        17.4311683
  entropy:           240.6837585
  heat_capacity:     220.8819078
  energy:             48.7200569

- temperature:       140.0000000
  free_energy:        14.9405500
  entropy:           257.3235656
  heat_capacity:     228.1029708
  energy:             50.9658492

- temperature:       150.0000000
  free_energy:        12.2869770
  entropy:           273.2795019
  heat_capacity:     234.3592410
  energy:             53.2789023

- temperature:       160.0000000
  free_energy:         9.4771376
  entropy:           288.5822174
  heat_capacity:     239.7923916
  energy:             55.6502924

- temperature:       170.0000000
  free_energy:         6.5173999
  entropy:           303.2648086
  heat_capacity:     244.5250799
  energy:             58.0724173

- temperature:       180.0000000
  free_energy:         3.4137955
  entropy:           317.3611887
  heat_capacity:     248.6618524
  energy:             60.5388094

- temperature:       190.0000000
  free_energy:         0.1720179
  entropy:           330.9049790
  heat_capacity:     252.2910310
  energy:             63.0439639

- temperature:       200.0000000
  free_energy:        -3.2025710
  entropy:           343.9287900
  heat_capacity:     255.4868890
  energy:             65.5831870

- temperature:       210.0000000
  free_energy:        -6.7049287
  entropy:           356.4637854
  heat_capacity:     258.3117750
  energy:             68.1524662

- temperature:       220.0000000
  free_energy:       -10.3303158
  entropy:           368.5394413
  heat_capacity:     260.8180321
  energy:             70.7483613

- temperature:       230.0000000
  free_energy:       -14.0742788
  entropy:           380.1834395
  heat_capacity:     263.0496626
  energy:             73.3679122

- temperature:       240.0000000
  free_energy:       -17.9326321
  entropy:           391.4216479
  heat_capacity:     265.0437381
  energy:             76.0085634

- temperature:       250.0000000
  free_energy:       -21.9014397
  entropy:           402.2781590
  heat_capacity:     266.8315763
  energy:             78.6681001

- temperature:       260.0000000
  free_energy:       -25.9769978
  entropy:           412.7753620
  heat_capacity:     268.4397168
  energy:             81.3445963

- temperature:       270.0000000
  free_energy:       -30.1558186
  entropy:           422.9340357
  heat_capacity:     269.8907239
  energy:             84.0363710

- temperature:       280.0000000
  free_energy:       -34.4346145
  entropy:           432.7734499
  heat_capacity:     271.2038484
  energy:             86.7419515

- temperature:       290.0000000
  free_energy:       -38.8102831
  entropy:           442.3114714
  heat_capacity:     272.3955719
  energy:             89.4600435

- temperature:       300.0000000
  free_energy:       -43.2798946
  entropy:           451.5646677
  heat_capacity:     273.4800537
  energy:             92.1895057

- temperature:       310.0000000
  free_energy:       -47.8406784
  entropy:           460.5484079
  heat_capacity:     274.4695006
  energy:             94.9293280

- temperature:       320.0000000
  free_energy:       -52.4900123
  entropy:           469.2769579
  heat_capacity:     275.3744721
  energy:             97.6786143

- temperature:       330.0000000
  free_energy:       -57.2254112
  entropy:           477.7635691
  heat_capacity:     276.2041326
  energy:            100.4365666

- temperature:       340.0000000
  free_energy:       -62.0445183
  entropy:           486.0205615
  heat_capacity:     276.9664620
  energy:            103.2024726

- temperature:       350.0000000
  free_energy:       -66.9450954
  entropy:           494.0594002
  heat_capacity:     277.6684307
  energy:            105.9756947

- temperature:       360.0000000
  free_energy:       -71.9250148
  entropy:           501.8907647
  heat_capacity:     278.3161456
  energy:            108.7556604

- temperature:       370.0000000
  free_energy:       -76.9822524
  entropy:           509.5246137
  heat_capacity:     278.9149732
  energy:            111.5418547

- temperature:       380.0000000
  free_energy:       -82.1148798
  entropy:           516.9702436
  heat_capacity:     279.4696429
  energy:            114.3338128

- temperature:       390.0000000
  free_energy:       -87.3210588
  entropy:           524.2363416
  heat_capacity:     279.9843340
  energy:            117.1311144

- temperature:       400.0000000
  free_energy:       -92.5990353
  entropy:           531.3310348
  heat_capacity:     280.4627494
  energy:            119.9333786

- temperature:       410.0000000
  free_energy:       -97.9471336
  entropy:           538.2619343
  heat_capacity:     280.9081790
  energy:            122.7402594

- temperature:       420.0000000
  free_energy:      -103.3637519
  entropy:           545.0361759
  heat_capacity:     281.3235521
  energy:            125.5514420

- temperature:       430.0000000
  free_energy:      -108.8473573
  entropy:           551.6604566
  heat_capacity:     281.7114842
  energy:            128.3666390

- temperature:       440.0000000
  free_energy:      -114.3964821
  entropy:           558.1410686
  heat_capacity:     282.0743151
  energy:            131.1855880

- temperature:       450.0000000
  free_energy:      -120.0097196
  entropy:           564.4839294
  heat_capacity:     282.4141433
  energy:            134.0080487

- temperature:       460.0000000
  free_energy:      -125.6857202
  entropy:           570.6946102
  heat_capacity:     282.7328545
  energy:            136.8338005

- temperature:       470.0000000
  free_energy:      -131.4231887
  entropy:           576.7783612
  heat_capacity:     283.0321471
  energy:            139.6626411

- temperature:       480.0000000
  free_energy:      -137.2208808
  entropy:           582.7401348
  heat_capacity:     283.3135536
  energy:            142.4943839

- temperature:       490.0000000
  free_energy:      -143.0776004
  entropy:           588.5846073
  heat_capacity:     283.5784595
  energy:            145.3288572

- temperature:       500.0000000
  free_energy:      -148.9921967
  entropy:           594.3161980
  heat_capacity:     283.8281198
  energy:            148.1659023

- temperature:       510.0000000
  free_energy:      -154.9635621
  entropy:           599.9390875
  heat_capacity:     284.0636736
  energy:            151.0053725

- temperature:       520.0000000
  free_energy:      -160.9906294
  entropy:           605.4572337
  heat_capacity:     284.2861560
  energy:            153.8471322

- temperature:       530.0000000
  free_energy:      -167.0723701
  entropy:           610.8743875
  heat_capacity:     284.4965099
  energy:            156.6910552

- temperature:       540.0000000
  free_energy:      -173.2077923
  entropy:           616.1941059
  heat_capacity:     284.6955951
  energy:            159.5370248

- temperature:       550.0000000
  free_energy:      -179.3959387
  entropy:           621.4197653
  heat_capacity:     284.8841972
  energy:            162.3849322

- temperature:       560.0000000
  free_energy:      -185.6358848
  entropy:           626.5545733
  heat_capacity:     285.0630348
  energy:            165.2346762

- temperature:       570.0000000
  free_energy:      -191.9267375
  entropy:           631.6015791
  heat_capacity:     285.2327664
  energy:            168.0861626

- temperature:       580.0000000
  free_energy:      -198.2676334
  entropy:           636.5636839
  heat_capacity:     285.3939964
  energy:            170.9393032

- temperature:       590.0000000
  free_energy:      -204.6577374
  entropy:           641.4436499
  heat_capacity:     285.5472799
  energy:            173.7940160

- temperature:       600.0000000
  free_energy:      -211.0962414
  entropy:           646.2441091
  heat_capacity:     285.6931279
  energy:            176.6502240

- temperature:       610.0000000
  free_energy:      -217.5823630
  entropy:           650.9675710
  heat_capacity:     285.8320111
  energy:            179.5078554

- temperature:       620.0000000
  free_energy:      -224.1153442
  entropy:           655.6164301
  heat_capacity:     285.9643637
  energy:            182.3668425

- temperature:       630.0000000
  free_energy:      -230.6944505
  entropy:           660.1929726
  heat_capacity:     286.0905869
  energy:            185.2271222

- temperature:       640.0000000
  free_energy:      -237.3189699
  entropy:           664.6993826
  heat_capacity:     286.2110515
  energy:            188.0886350

- temperature:       650.0000000
  free_energy:      -243.9882114
  entropy:           669.1377485
  heat_capacity:     286.3261010
  energy:            190.9513252

- temperature:       660.0000000
  free_energy:      -250.7015047
  entropy:           673.5100678
  heat_capacity:     286.4360537
  energy:            193.8151401

- temperature:       670.0000000
  free_energy:      -257.4581989
  entropy:           677.8182525
  heat_capacity:     286.5412050
  energy:            196.6800303

- temperature:       680.0000000
  free_energy:      -264.2576621
  entropy:           682.0641340
  heat_capacity:     286.6418291
  energy:            199.5459491

- temperature:       690.0000000
  free_energy:      -271.0992798
  entropy:           686.2494673
  heat_capacity:     286.7381813
  energy:            202.4128526

- temperature:       700.0000000
  free_energy:      -277.9824552
  entropy:           690.3759349
  heat_capacity:     286.8304991
  energy:            205.2806993

- temperature:       710.0000000
  free_energy:      -284.9066077
  entropy:           694.4451515
  heat_capacity:     286.9190036
  energy:            208.1494499

- temperature:       720.0000000
  free_energy:      -291.8711726
  entropy:           698.4586665
  heat_capacity:     287.0039013
  energy:            211.0190673

- temperature:       730.0000000
  free_energy:      -298.8756003
  entropy:           702.4179682
  heat_capacity:     287.0853847
  energy:            213.8895165

- temperature:       740.0000000
  free_energy:      -305.9193560
  entropy:           706.3244868
  heat_capacity:     287.1636340
  energy:            216.7607642

- temperature:       750.0000000
  free_energy:      -313.0019187
  entropy:           710.1795969
  heat_capacity:     287.2388174
  energy:            219.6327790

- temperature:       760.0000000
  free_energy:      -320.1227810
  entropy:           713.9846209
  heat_capacity:     287.3110925
  energy:            222.5055309

- temperature:       770.0000000
  free_energy:      -327.2814484
  entropy:           717.7408312
  heat_capacity:     287.3806068
  energy:            225.3789916

- temperature:       780.0000000
  free_energy:      -334.4774390
  entropy:           721.4494529
  heat_capacity:     287.4474988
  energy:            228.2531343

- temperature:       790.0000000
  free_energy:      -341.7102828
  entropy:           725.1116659
  heat_capacity:     287.5118984
  energy:            231.1279333

- temperature:       800.0000000
  free_energy:      -348.9795214
  entropy:           728.7286072
  heat_capacity:     287.5739274
  energy:            234.0033644

- temperature:       810.0000000
  free_energy:      -356.2847077
  entropy:           732.3013728
  heat_capacity:     287.6337004
  energy:            236.8794043

- temperature:       820.0000000
  free_energy:      -363.6254051
  entropy:           735.8310199
  heat_capacity:     287.6913253
  energy:            239.7560312

- temperature:       830.0000000
  free_energy:      -371.0011877
  entropy:           739.3185684
  heat_capacity:     287.7469034
  energy:            242.6332240

- temperature:       840.0000000
  free_energy:      -378.4116394
  entropy:           742.7650026
  heat_capacity:     287.8005302
  energy:            245.5109628

- temperature:       850.0000000
  free_energy:      -385.8563539
  entropy:           746.1712733
  heat_capacity:     287.8522959
  energy:            248.3892284

- temperature:       860.0000000
  free_energy:      -393.3349341
  entropy:           749.5382987
  heat_capacity:     287.9022852
  energy:            251.2680028

- temperature:       870.0000000
  free_energy:      -400.8469920
  entropy:           752.8669661
  heat_capacity:     287.9505785
  energy:            254.1472685

- temperature:       880.0000000
  free_energy:      -408.3921484
  entropy:           756.1581334
  heat_capacity:     287.9972512
  energy:            257.0270089

- temperature:       890.0000000
  free_energy:      -415.9700325
  entropy:           759.4126301
  heat_capacity:     288.0423751
  energy:            259.9072083

- temperature:       900.0000000
  free_energy:      -423.5802815
  entropy:           762.6312588
  heat_capacity:     288.0860176
  energy:            262.7878515

- temperature:       910.0000000
  free_energy:      -431.2225407
  entropy:           765.8147963
  heat_capacity:     288.1282428
  energy:            265.6689239

- temperature:       920.0000000
  free_energy:      -438.8964629
  entropy:           768.9639943
  heat_capacity:     288.1691112
  energy:            268.5504118

- temperature:       930.0000000
  free_energy:      -446.6017085
  entropy:           772.0795810
  heat_capacity:     288.2086803
  energy:            271.4323018

- temperature:       940.0000000
  free_energy:      -454.3379449
  entropy:           775.1622619
  heat_capacity:     288.2470043
  energy:            274.3145813

- temperature:       950.0000000
  free_energy:      -462.1048464
  entropy:           778.2127203
  heat_capacity:     288.2841350
  energy:            277.1972380

- temperature:       960.0000000
  free_energy:      -469.9020941
  entropy:           781.2316190
  heat_capacity:     288.3201211
  energy:            280.0802602

- temperature:       970.0000000
  free_energy:      -477.7293757
  entropy:           784.2196004
  heat_capacity:     288.3550093
  energy:            282.9636367

- temperature:       980.0000000
  free_energy:      -485.5863851
  entropy:           787.1772877
  heat_capacity:     288.3888435
  energy:            285.8473568

- temperature:       990.0000000
  free_energy:      -493.4728225
  entropy:           790.1052855
  heat_capacity:     288.4216658
  energy:            288.7314102

- temperature:      1000.0000000
  free_energy:      -501.3883938
  entropy:           793.0041807
  heat_capacity:     288.4535160
  energy:            291.6157869
