# Thermal properties / unit cell (natom)

unit:
  temperature:   K
  free_energy:   kJ/mol
  entropy:       J/K/mol
  heat_capacity: J/K/mol

natom: 18   
cutoff_frequency: 0.00000
num_modes: 163296
num_integrated_modes: 162213

zero_point_energy:      70.5548519

thermal_properties:
- temperature:         0.0000000
  free_energy:        70.5548519
  entropy:             0.0000000
  heat_capacity:       0.0000000
  energy:             70.5548519

- temperature:        10.0000000
  free_energy:        70.5495352
  entropy:             1.9022413
  heat_capacity:       5.1429054
  energy:             70.5685576

- temperature:        20.0000000
  free_energy:        70.4899864
  entropy:            11.3785514
  heat_capacity:      26.4647670
  energy:             70.7175574

- temperature:        30.0000000
  free_energy:        70.3021286
  entropy:            26.8187332
  heat_capacity:      51.1210519
  energy:             71.1066906

- temperature:        40.0000000
  free_energy:        69.9456919
  entropy:            44.7191963
  heat_capacity:      74.2813962
  energy:             71.7344598

- temperature:        50.0000000
  free_energy:        69.4040116
  entropy:            63.7688597
  heat_capacity:      97.4432649
  energy:             72.5924546

- temperature:        60.0000000
  free_energy:        68.6675478
  entropy:            83.6532244
  heat_capacity:     121.5868404
  energy:             73.6867412

- temperature:        70.0000000
  free_energy:        67.7285311
  entropy:           104.2607452
  heat_capacity:     146.4907617
  energy:             75.0267833

- temperature:        80.0000000
  free_energy:        66.5803824
  entropy:           125.4517294
  heat_capacity:     171.3844810
  energy:             76.6165207

- temperature:        90.0000000
  free_energy:        65.2181707
  entropy:           147.0399753
  heat_capacity:     195.4744992
  energy:             78.4517685

- temperature:       100.0000000
  free_energy:        63.6389314
  entropy:           168.8241433
  heat_capacity:     218.1734988
  energy:             80.5213458

- temperature:       110.0000000
  free_energy:        61.8416652
  entropy:           190.6161178
  heat_capacity:     239.1391917
  energy:             82.8094381

- temperature:       120.0000000
  free_energy:        59.8271189
  entropy:           212.2562654
  heat_capacity:     258.2319054
  energy:             85.2978708

- temperature:       130.0000000
  free_energy:        57.5974710
  entropy:           233.6181339
  heat_capacity:     275.4531086
  energy:             87.9678284

- temperature:       140.0000000
  free_energy:        55.1560027
  entropy:           254.6070067
  heat_capacity:     290.8909894
  energy:             90.8009836

- temperature:       150.0000000
  free_energy:        52.5068008
  entropy:           275.1556651
  heat_capacity:     304.6801719
  energy:             93.7801505

- temperature:       160.0000000
  free_energy:        49.6545079
  entropy:           295.2193567
  heat_capacity:     316.9747949
  energy:             96.8896049

- temperature:       170.0000000
  free_energy:        46.6041220
  entropy:           314.7709805
  heat_capacity:     327.9318585
  energy:            100.1151887

- temperature:       180.0000000
  free_energy:        43.3608417
  entropy:           333.7969131
  heat_capacity:     337.7017018
  energy:            103.4442860

- temperature:       190.0000000
  free_energy:        39.9299488
  entropy:           352.2935828
  heat_capacity:     346.4231175
  energy:            106.8657295

- temperature:       200.0000000
  free_energy:        36.3167222
  entropy:           370.2647518
  heat_capacity:     354.2213369
  energy:            110.3696726

- temperature:       210.0000000
  free_energy:        32.5263758
  entropy:           387.7194081
  heat_capacity:     361.2077013
  energy:            113.9474515

- temperature:       220.0000000
  free_energy:        28.5640140
  entropy:           404.6701573
  heat_capacity:     367.4802642
  energy:            117.5914486

- temperature:       230.0000000
  free_energy:        24.4346025
  entropy:           421.1320100
  heat_capacity:     373.1248579
  energy:            121.2949648

- temperature:       240.0000000
  free_energy:        20.1429485
  entropy:           437.1214777
  heat_capacity:     378.2163445
  energy:            125.0521032

- temperature:       250.0000000
  free_energy:        15.6936898
  entropy:           452.6559055
  heat_capacity:     382.8198912
  energy:            128.8576662

- temperature:       260.0000000
  free_energy:        11.0912883
  entropy:           467.7529849
  heat_capacity:     386.9921849
  energy:            132.7070643

- temperature:       270.0000000
  free_energy:         6.3400289
  entropy:           482.4304019
  heat_capacity:     390.7825426
  energy:            136.5962374

- temperature:       280.0000000
  free_energy:         1.4440209
  entropy:           496.7055888
  heat_capacity:     394.2339035
  energy:            140.5215858

- temperature:       290.0000000
  free_energy:        -3.5927988
  entropy:           510.5955505
  heat_capacity:     397.3836993
  energy:            144.4799108

- temperature:       300.0000000
  free_energy:        -8.7666609
  entropy:           524.1167496
  heat_capacity:     400.2646127
  energy:            148.4683640

- temperature:       310.0000000
  free_energy:       -14.0739575
  entropy:           537.2850322
  heat_capacity:     402.9052309
  energy:            152.4844025

- temperature:       320.0000000
  free_energy:       -19.5112359
  entropy:           550.1155854
  heat_capacity:     405.3306087
  energy:            156.5257515

- temperature:       330.0000000
  free_energy:       -25.0751919
  entropy:           562.6229173
  heat_capacity:     407.5627503
  energy:            160.5903708

- temperature:       340.0000000
  free_energy:       -30.7626630
  entropy:           574.8208533
  heat_capacity:     409.6210224
  energy:            164.6764271

- temperature:       350.0000000
  free_energy:       -36.5706215
  entropy:           586.7225441
  heat_capacity:     411.5225083
  energy:            168.7822689

- temperature:       360.0000000
  free_energy:       -42.4961681
  entropy:           598.3404814
  heat_capacity:     413.2823098
  energy:            172.9064052

- temperature:       370.0000000
  free_energy:       -48.5365249
  entropy:           609.6865202
  heat_capacity:     414.9138070
  energy:            177.0474876

- temperature:       380.0000000
  free_energy:       -54.6890297
  entropy:           620.7719030
  heat_capacity:     416.4288803
  energy:            181.2042934

- temperature:       390.0000000
  free_energy:       -60.9511297
  entropy:           631.6072876
  heat_capacity:     417.8381016
  energy:            185.3757125

- temperature:       400.0000000
  free_energy:       -67.3203759
  entropy:           642.2027751
  heat_capacity:     419.1508982
  energy:            189.5607342

- temperature:       410.0000000
  free_energy:       -73.7944175
  entropy:           652.5679383
  heat_capacity:     420.3756948
  energy:            193.7584372

- temperature:       420.0000000
  free_energy:       -80.3709972
  entropy:           662.7118503
  heat_capacity:     421.5200351
  energy:            197.9679799

- temperature:       430.0000000
  free_energy:       -87.0479457
  entropy:           672.6431118
  heat_capacity:     422.5906878
  energy:            202.1885923

- temperature:       440.0000000
  free_energy:       -93.8231778
  entropy:           682.3698778
  heat_capacity:     423.5937380
  energy:            206.4195684

- temperature:       450.0000000
  free_energy:      -100.6946875
  entropy:           691.8998835
  heat_capacity:     424.5346667
  energy:            210.6602601

- temperature:       460.0000000
  free_energy:      -107.6605441
  entropy:           701.2404682
  heat_capacity:     425.4184199
  energy:            214.9100712

- temperature:       470.0000000
  free_energy:      -114.7188887
  entropy:           710.3985990
  heat_capacity:     426.2494691
  energy:            219.1684528

- temperature:       480.0000000
  free_energy:      -121.8679300
  entropy:           719.3808927
  heat_capacity:     427.0318638
  energy:            223.4348985

- temperature:       490.0000000
  free_energy:      -129.1059414
  entropy:           728.1936360
  heat_capacity:     427.7692777
  energy:            227.7089402

- temperature:       500.0000000
  free_energy:      -136.4312575
  entropy:           736.8428055
  heat_capacity:     428.4650488
  energy:            231.9901453

- temperature:       510.0000000
  free_energy:      -143.8422713
  entropy:           745.3340859
  heat_capacity:     429.1222157
  energy:            236.2781126

- temperature:       520.0000000
  free_energy:      -151.3374310
  entropy:           753.6728868
  heat_capacity:     429.7435480
  energy:            240.5724701

- temperature:       530.0000000
  free_energy:      -158.9152379
  entropy:           761.8643593
  heat_capacity:     430.3315747
  energy:            244.8728725

- temperature:       540.0000000
  free_energy:      -166.5742435
  entropy:           769.9134108
  heat_capacity:     430.8886078
  energy:            249.1789983

- temperature:       550.0000000
  free_energy:      -174.3130470
  entropy:           777.8247190
  heat_capacity:     431.4167648
  energy:            253.4905484

- temperature:       560.0000000
  free_energy:      -182.1302936
  entropy:           785.6027455
  heat_capacity:     431.9179872
  energy:            257.8072439

- temperature:       570.0000000
  free_energy:      -190.0246719
  entropy:           793.2517478
  heat_capacity:     432.3940576
  energy:            262.1288244

- temperature:       580.0000000
  free_energy:      -197.9949121
  entropy:           800.7757909
  heat_capacity:     432.8466152
  energy:            266.4550467

- temperature:       590.0000000
  free_energy:      -206.0397841
  entropy:           808.1787584
  heat_capacity:     433.2771691
  energy:            270.7856833

- temperature:       600.0000000
  free_energy:      -214.1580960
  entropy:           815.4643623
  heat_capacity:     433.6871103
  energy:            275.1205214

- temperature:       610.0000000
  free_energy:      -222.3486920
  entropy:           822.6361527
  heat_capacity:     434.0777225
  energy:            279.4593611

- temperature:       620.0000000
  free_energy:      -230.6104510
  entropy:           829.6975264
  heat_capacity:     434.4501921
  energy:            283.8020153

- temperature:       630.0000000
  free_energy:      -238.9422853
  entropy:           836.6517357
  heat_capacity:     434.8056165
  energy:            288.1483082

- temperature:       640.0000000
  free_energy:      -247.3431389
  entropy:           843.5018956
  heat_capacity:     435.1450119
  energy:            292.4980742

- temperature:       650.0000000
  free_energy:      -255.8119864
  entropy:           850.2509915
  heat_capacity:     435.4693207
  energy:            296.8511581

- temperature:       660.0000000
  free_energy:      -264.3478314
  entropy:           856.9018860
  heat_capacity:     435.7794174
  energy:            301.2074133

- temperature:       670.0000000
  free_energy:      -272.9497059
  entropy:           863.4573250
  heat_capacity:     436.0761147
  energy:            305.5667018

- temperature:       680.0000000
  free_energy:      -281.6166686
  entropy:           869.9199441
  heat_capacity:     436.3601683
  energy:            309.9288934

- temperature:       690.0000000
  free_energy:      -290.3478039
  entropy:           876.2922742
  heat_capacity:     436.6322817
  energy:            314.2938654

- temperature:       700.0000000
  free_energy:      -299.1422212
  entropy:           882.5767467
  heat_capacity:     436.8931106
  energy:            318.6615015

- temperature:       710.0000000
  free_energy:      -307.9990537
  entropy:           888.7756982
  heat_capacity:     437.1432666
  energy:            323.0316920

- temperature:       720.0000000
  free_energy:      -316.9174576
  entropy:           894.8913760
  heat_capacity:     437.3833204
  energy:            327.4043331

- temperature:       730.0000000
  free_energy:      -325.8966109
  entropy:           900.9259417
  heat_capacity:     437.6138056
  energy:            331.7793265

- temperature:       740.0000000
  free_energy:      -334.9357130
  entropy:           906.8814757
  heat_capacity:     437.8352213
  energy:            336.1565790

- temperature:       750.0000000
  free_energy:      -344.0339836
  entropy:           912.7599812
  heat_capacity:     438.0480342
  energy:            340.5360023

- temperature:       760.0000000
  free_energy:      -353.1906623
  entropy:           918.5633879
  heat_capacity:     438.2526821
  energy:            344.9175125

- temperature:       770.0000000
  free_energy:      -362.4050073
  entropy:           924.2935550
  heat_capacity:     438.4495751
  energy:            349.3010301

- temperature:       780.0000000
  free_energy:      -371.6762952
  entropy:           929.9522752
  heat_capacity:     438.6390980
  energy:            353.6864794

- temperature:       790.0000000
  free_energy:      -381.0038204
  entropy:           935.5412773
  heat_capacity:     438.8216124
  energy:            358.0737887

- temperature:       800.0000000
  free_energy:      -390.3868940
  entropy:           941.0622293
  heat_capacity:     438.9974579
  energy:            362.4628894

- temperature:       810.0000000
  free_energy:      -399.8248435
  entropy:           946.5167410
  heat_capacity:     439.1669539
  energy:            366.8537167

- temperature:       820.0000000
  free_energy:      -409.3170125
  entropy:           951.9063669
  heat_capacity:     439.3304011
  energy:            371.2462084

- temperature:       830.0000000
  free_energy:      -418.8627596
  entropy:           957.2326085
  heat_capacity:     439.4880825
  energy:            375.6403055

- temperature:       840.0000000
  free_energy:      -428.4614582
  entropy:           962.4969166
  heat_capacity:     439.6402650
  energy:            380.0359517

- temperature:       850.0000000
  free_energy:      -438.1124962
  entropy:           967.7006935
  heat_capacity:     439.7872003
  energy:            384.4330933

- temperature:       860.0000000
  free_energy:      -447.8152749
  entropy:           972.8452952
  heat_capacity:     439.9291258
  energy:            388.8316790

- temperature:       870.0000000
  free_energy:      -457.5692092
  entropy:           977.9320334
  heat_capacity:     440.0662657
  energy:            393.2316599

- temperature:       880.0000000
  free_energy:      -467.3737269
  entropy:           982.9621772
  heat_capacity:     440.1988320
  energy:            397.6329891

- temperature:       890.0000000
  free_energy:      -477.2282682
  entropy:           987.9369552
  heat_capacity:     440.3270249
  energy:            402.0356219

- temperature:       900.0000000
  free_energy:      -487.1322854
  entropy:           992.8575567
  heat_capacity:     440.4510340
  energy:            406.4395156

- temperature:       910.0000000
  free_energy:      -497.0852426
  entropy:           997.7251339
  heat_capacity:     440.5710387
  energy:            410.8446292

- temperature:       920.0000000
  free_energy:      -507.0866151
  entropy:          1002.5408029
  heat_capacity:     440.6872090
  energy:            415.2509236

- temperature:       930.0000000
  free_energy:      -517.1358892
  entropy:          1007.3056456
  heat_capacity:     440.7997059
  energy:            419.6583612

- temperature:       940.0000000
  free_energy:      -527.2325620
  entropy:          1012.0207107
  heat_capacity:     440.9086821
  energy:            424.0669060

- temperature:       950.0000000
  free_energy:      -537.3761409
  entropy:          1016.6870152
  heat_capacity:     441.0142824
  energy:            428.4765236

- temperature:       960.0000000
  free_energy:      -547.5661431
  entropy:          1021.3055458
  heat_capacity:     441.1166445
  energy:            432.8871809

- temperature:       970.0000000
  free_energy:      -557.8020958
  entropy:          1025.8772596
  heat_capacity:     441.2158989
  energy:            437.2988461

- temperature:       980.0000000
  free_energy:      -568.0835353
  entropy:          1030.4030859
  heat_capacity:     441.3121698
  energy:            441.7114889

- temperature:       990.0000000
  free_energy:      -578.4100075
  entropy:          1034.8839267
  heat_capacity:     441.4055751
  energy:            446.1250799

- temperature:      1000.0000000
  free_energy:      -588.7810668
  entropy:          1039.3206581
  heat_capacity:     441.4962272
  energy:            450.5395912
