phonopy:
  version: "2.37.1"
  frequency_unit_conversion_factor: 15.633302
  symmetry_tolerance: 1.00000e-05

space_group:
  type: "P1"
  number: 1
  Hall_symbol: "P 1"

primitive_matrix:
- [ -1.000000000000000, -1.000000000000000,  0.000000000000000 ]
- [  0.000000000000000,  1.000000000000000,  0.000000000000000 ]
- [  0.000000000000000,  0.000000000000000, -1.000000000000000 ]

supercell_matrix:
- [   3,   0,   0 ]
- [   0,   2,   0 ]
- [   0,   0,   2 ]

primitive_cell:
  lattice:
  - [    -4.530142195627125,     0.000000000000000,     0.000000000000000 ] # a
  - [    -2.265066029009676,     4.812637696580221,     0.000000000000000 ] # b
  - [    -2.265003243448674,    -0.073955080765112,    -6.849961930276328 ] # c
  points:
  - symbol: Li # 1
    coordinates: [  0.985443156367179,  0.907522538920776,  0.052894524695361 ]
    mass: 6.940000
  - symbol: Li # 2
    coordinates: [  0.659314883436698,  0.591153410888385,  0.021465019768385 ]
    mass: 6.940000
  - symbol: Li # 3
    coordinates: [  0.657083656037554,  0.926932287258858,  0.690190375438210 ]
    mass: 6.940000
  - symbol: Li # 4
    coordinates: [  0.647873596226222,  0.272351640697586,  0.363174903551064 ]
    mass: 6.940000
  - symbol: Li # 5
    coordinates: [  0.983198177180131,  0.243305141613441,  0.721653534874862 ]
    mass: 6.940000
  - symbol: Li # 6
    coordinates: [  0.994601961766916,  0.562127322179808,  0.379942863548587 ]
    mass: 6.940000
  - symbol: Ga # 7
    coordinates: [  0.325227916509793,  0.256461653575995,  0.024341813025100 ]
    mass: 69.723000
  - symbol: Ga # 8
    coordinates: [  0.317276055940383,  0.578008626713084,  0.718784273794435 ]
    mass: 69.723000
  - symbol: Sn # 9
    coordinates: [  0.321250744644604,  0.917230446319028,  0.371547341451163 ]
    mass: 118.710000
  reciprocal_lattice: # without 2pi
  - [    -0.220743622786341,    -0.103892898783791,     0.074112591350076 ] # a*
  - [    -0.000000000000000,     0.207786262554229,    -0.002243348209157 ] # b*
  - [    -0.000000000000000,     0.000000000000000,    -0.145986212796318 ] # c*

unit_cell:
  lattice:
  - [     4.530142195627125,     0.000000000000000,     0.000000000000000 ] # a
  - [     2.265076166617449,     4.812637696580220,     0.000000000000000 ] # b
  - [     2.265003243448674,     0.073955080765112,     6.849961930276327 ] # c
  points:
  - symbol: Li # 1
    coordinates: [  0.107034304712045,  0.907522538920776,  0.947105475304639 ]
    mass: 6.940000
    reduced_to: 1
  - symbol: Li # 2
    coordinates: [  0.749531705674917,  0.591153410888386,  0.978534980231616 ]
    mass: 6.940000
    reduced_to: 2
  - symbol: Li # 3
    coordinates: [  0.415984056703588,  0.926932287258859,  0.309809624561790 ]
    mass: 6.940000
    reduced_to: 3
  - symbol: Li # 4
    coordinates: [  0.079774763076192,  0.272351640697586,  0.636825096448936 ]
    mass: 6.940000
    reduced_to: 4
  - symbol: Li # 5
    coordinates: [  0.773496681206429,  0.243305141613441,  0.278346465125139 ]
    mass: 6.940000
    reduced_to: 5
  - symbol: Li # 6
    coordinates: [  0.443270716053276,  0.562127322179808,  0.620057136451413 ]
    mass: 6.940000
    reduced_to: 6
  - symbol: Ga # 7
    coordinates: [  0.418310429914211,  0.256461653575995,  0.975658186974900 ]
    mass: 69.723000
    reduced_to: 7
  - symbol: Ga # 8
    coordinates: [  0.104715317346533,  0.578008626713084,  0.281215726205565 ]
    mass: 69.723000
    reduced_to: 8
  - symbol: Sn # 9
    coordinates: [  0.761518809036367,  0.917230446319029,  0.628452658548837 ]
    mass: 118.710000
    reduced_to: 9

supercell:
  lattice:
  - [    13.590426586881375,     0.000000000000000,     0.000000000000000 ] # a
  - [     4.530152333234899,     9.625275393160440,     0.000000000000000 ] # b
  - [     4.530006486897348,     0.147910161530224,    13.699923860552653 ] # c
  points:
  - symbol: Li # 1
    coordinates: [  0.035678101570682,  0.453761269460388,  0.473552737652320 ]
    mass: 6.940000
    reduced_to: 1
  - symbol: Li # 2
    coordinates: [  0.369011434904015,  0.453761269460388,  0.473552737652320 ]
    mass: 6.940000
    reduced_to: 1
  - symbol: Li # 3
    coordinates: [  0.702344768237348,  0.453761269460388,  0.473552737652320 ]
    mass: 6.940000
    reduced_to: 1
  - symbol: Li # 4
    coordinates: [  0.035678101570682,  0.953761269460388,  0.473552737652320 ]
    mass: 6.940000
    reduced_to: 1
  - symbol: Li # 5
    coordinates: [  0.369011434904015,  0.953761269460388,  0.473552737652320 ]
    mass: 6.940000
    reduced_to: 1
  - symbol: Li # 6
    coordinates: [  0.702344768237348,  0.953761269460388,  0.473552737652320 ]
    mass: 6.940000
    reduced_to: 1
  - symbol: Li # 7
    coordinates: [  0.035678101570682,  0.453761269460388,  0.973552737652320 ]
    mass: 6.940000
    reduced_to: 1
  - symbol: Li # 8
    coordinates: [  0.369011434904015,  0.453761269460388,  0.973552737652320 ]
    mass: 6.940000
    reduced_to: 1
  - symbol: Li # 9
    coordinates: [  0.702344768237348,  0.453761269460388,  0.973552737652320 ]
    mass: 6.940000
    reduced_to: 1
  - symbol: Li # 10
    coordinates: [  0.035678101570682,  0.953761269460388,  0.973552737652320 ]
    mass: 6.940000
    reduced_to: 1
  - symbol: Li # 11
    coordinates: [  0.369011434904015,  0.953761269460388,  0.973552737652320 ]
    mass: 6.940000
    reduced_to: 1
  - symbol: Li # 12
    coordinates: [  0.702344768237348,  0.953761269460388,  0.973552737652320 ]
    mass: 6.940000
    reduced_to: 1
  - symbol: Li # 13
    coordinates: [  0.249843901891639,  0.295576705444193,  0.489267490115808 ]
    mass: 6.940000
    reduced_to: 13
  - symbol: Li # 14
    coordinates: [  0.583177235224972,  0.295576705444193,  0.489267490115808 ]
    mass: 6.940000
    reduced_to: 13
  - symbol: Li # 15
    coordinates: [  0.916510568558306,  0.295576705444193,  0.489267490115808 ]
    mass: 6.940000
    reduced_to: 13
  - symbol: Li # 16
    coordinates: [  0.249843901891639,  0.795576705444193,  0.489267490115808 ]
    mass: 6.940000
    reduced_to: 13
  - symbol: Li # 17
    coordinates: [  0.583177235224972,  0.795576705444193,  0.489267490115808 ]
    mass: 6.940000
    reduced_to: 13
  - symbol: Li # 18
    coordinates: [  0.916510568558306,  0.795576705444193,  0.489267490115808 ]
    mass: 6.940000
    reduced_to: 13
  - symbol: Li # 19
    coordinates: [  0.249843901891639,  0.295576705444193,  0.989267490115808 ]
    mass: 6.940000
    reduced_to: 13
  - symbol: Li # 20
    coordinates: [  0.583177235224972,  0.295576705444193,  0.989267490115808 ]
    mass: 6.940000
    reduced_to: 13
  - symbol: Li # 21
    coordinates: [  0.916510568558306,  0.295576705444193,  0.989267490115808 ]
    mass: 6.940000
    reduced_to: 13
  - symbol: Li # 22
    coordinates: [  0.249843901891639,  0.795576705444193,  0.989267490115808 ]
    mass: 6.940000
    reduced_to: 13
  - symbol: Li # 23
    coordinates: [  0.583177235224972,  0.795576705444193,  0.989267490115808 ]
    mass: 6.940000
    reduced_to: 13
  - symbol: Li # 24
    coordinates: [  0.916510568558306,  0.795576705444193,  0.989267490115808 ]
    mass: 6.940000
    reduced_to: 13
  - symbol: Li # 25
    coordinates: [  0.138661352234529,  0.463466143629429,  0.154904812280895 ]
    mass: 6.940000
    reduced_to: 25
  - symbol: Li # 26
    coordinates: [  0.471994685567863,  0.463466143629429,  0.154904812280895 ]
    mass: 6.940000
    reduced_to: 25
  - symbol: Li # 27
    coordinates: [  0.805328018901196,  0.463466143629429,  0.154904812280895 ]
    mass: 6.940000
    reduced_to: 25
  - symbol: Li # 28
    coordinates: [  0.138661352234529,  0.963466143629429,  0.154904812280895 ]
    mass: 6.940000
    reduced_to: 25
  - symbol: Li # 29
    coordinates: [  0.471994685567863,  0.963466143629429,  0.154904812280895 ]
    mass: 6.940000
    reduced_to: 25
  - symbol: Li # 30
    coordinates: [  0.805328018901196,  0.963466143629429,  0.154904812280895 ]
    mass: 6.940000
    reduced_to: 25
  - symbol: Li # 31
    coordinates: [  0.138661352234529,  0.463466143629429,  0.654904812280895 ]
    mass: 6.940000
    reduced_to: 25
  - symbol: Li # 32
    coordinates: [  0.471994685567863,  0.463466143629429,  0.654904812280895 ]
    mass: 6.940000
    reduced_to: 25
  - symbol: Li # 33
    coordinates: [  0.805328018901196,  0.463466143629429,  0.654904812280895 ]
    mass: 6.940000
    reduced_to: 25
  - symbol: Li # 34
    coordinates: [  0.138661352234529,  0.963466143629429,  0.654904812280895 ]
    mass: 6.940000
    reduced_to: 25
  - symbol: Li # 35
    coordinates: [  0.471994685567863,  0.963466143629429,  0.654904812280895 ]
    mass: 6.940000
    reduced_to: 25
  - symbol: Li # 36
    coordinates: [  0.805328018901196,  0.963466143629429,  0.654904812280895 ]
    mass: 6.940000
    reduced_to: 25
  - symbol: Li # 37
    coordinates: [  0.026591587692064,  0.136175820348793,  0.318412548224468 ]
    mass: 6.940000
    reduced_to: 37
  - symbol: Li # 38
    coordinates: [  0.359924921025397,  0.136175820348793,  0.318412548224468 ]
    mass: 6.940000
    reduced_to: 37
  - symbol: Li # 39
    coordinates: [  0.693258254358731,  0.136175820348793,  0.318412548224468 ]
    mass: 6.940000
    reduced_to: 37
  - symbol: Li # 40
    coordinates: [  0.026591587692064,  0.636175820348793,  0.318412548224468 ]
    mass: 6.940000
    reduced_to: 37
  - symbol: Li # 41
    coordinates: [  0.359924921025397,  0.636175820348793,  0.318412548224468 ]
    mass: 6.940000
    reduced_to: 37
  - symbol: Li # 42
    coordinates: [  0.693258254358731,  0.636175820348793,  0.318412548224468 ]
    mass: 6.940000
    reduced_to: 37
  - symbol: Li # 43
    coordinates: [  0.026591587692064,  0.136175820348793,  0.818412548224468 ]
    mass: 6.940000
    reduced_to: 37
  - symbol: Li # 44
    coordinates: [  0.359924921025397,  0.136175820348793,  0.818412548224468 ]
    mass: 6.940000
    reduced_to: 37
  - symbol: Li # 45
    coordinates: [  0.693258254358731,  0.136175820348793,  0.818412548224468 ]
    mass: 6.940000
    reduced_to: 37
  - symbol: Li # 46
    coordinates: [  0.026591587692064,  0.636175820348793,  0.818412548224468 ]
    mass: 6.940000
    reduced_to: 37
  - symbol: Li # 47
    coordinates: [  0.359924921025397,  0.636175820348793,  0.818412548224468 ]
    mass: 6.940000
    reduced_to: 37
  - symbol: Li # 48
    coordinates: [  0.693258254358731,  0.636175820348793,  0.818412548224468 ]
    mass: 6.940000
    reduced_to: 37
  - symbol: Li # 49
    coordinates: [  0.257832227068810,  0.121652570806720,  0.139173232562569 ]
    mass: 6.940000
    reduced_to: 49
  - symbol: Li # 50
    coordinates: [  0.591165560402143,  0.121652570806720,  0.139173232562569 ]
    mass: 6.940000
    reduced_to: 49
  - symbol: Li # 51
    coordinates: [  0.924498893735476,  0.121652570806720,  0.139173232562569 ]
    mass: 6.940000
    reduced_to: 49
  - symbol: Li # 52
    coordinates: [  0.257832227068810,  0.621652570806720,  0.139173232562569 ]
    mass: 6.940000
    reduced_to: 49
  - symbol: Li # 53
    coordinates: [  0.591165560402143,  0.621652570806720,  0.139173232562569 ]
    mass: 6.940000
    reduced_to: 49
  - symbol: Li # 54
    coordinates: [  0.924498893735476,  0.621652570806720,  0.139173232562569 ]
    mass: 6.940000
    reduced_to: 49
  - symbol: Li # 55
    coordinates: [  0.257832227068810,  0.121652570806720,  0.639173232562569 ]
    mass: 6.940000
    reduced_to: 49
  - symbol: Li # 56
    coordinates: [  0.591165560402143,  0.121652570806720,  0.639173232562569 ]
    mass: 6.940000
    reduced_to: 49
  - symbol: Li # 57
    coordinates: [  0.924498893735476,  0.121652570806720,  0.639173232562569 ]
    mass: 6.940000
    reduced_to: 49
  - symbol: Li # 58
    coordinates: [  0.257832227068810,  0.621652570806720,  0.639173232562569 ]
    mass: 6.940000
    reduced_to: 49
  - symbol: Li # 59
    coordinates: [  0.591165560402143,  0.621652570806720,  0.639173232562569 ]
    mass: 6.940000
    reduced_to: 49
  - symbol: Li # 60
    coordinates: [  0.924498893735476,  0.621652570806720,  0.639173232562569 ]
    mass: 6.940000
    reduced_to: 49
  - symbol: Li # 61
    coordinates: [  0.147756905351092,  0.281063661089904,  0.310028568225707 ]
    mass: 6.940000
    reduced_to: 61
  - symbol: Li # 62
    coordinates: [  0.481090238684425,  0.281063661089904,  0.310028568225707 ]
    mass: 6.940000
    reduced_to: 61
  - symbol: Li # 63
    coordinates: [  0.814423572017759,  0.281063661089904,  0.310028568225707 ]
    mass: 6.940000
    reduced_to: 61
  - symbol: Li # 64
    coordinates: [  0.147756905351092,  0.781063661089904,  0.310028568225707 ]
    mass: 6.940000
    reduced_to: 61
  - symbol: Li # 65
    coordinates: [  0.481090238684425,  0.781063661089904,  0.310028568225707 ]
    mass: 6.940000
    reduced_to: 61
  - symbol: Li # 66
    coordinates: [  0.814423572017759,  0.781063661089904,  0.310028568225707 ]
    mass: 6.940000
    reduced_to: 61
  - symbol: Li # 67
    coordinates: [  0.147756905351092,  0.281063661089904,  0.810028568225707 ]
    mass: 6.940000
    reduced_to: 61
  - symbol: Li # 68
    coordinates: [  0.481090238684425,  0.281063661089904,  0.810028568225707 ]
    mass: 6.940000
    reduced_to: 61
  - symbol: Li # 69
    coordinates: [  0.814423572017759,  0.281063661089904,  0.810028568225707 ]
    mass: 6.940000
    reduced_to: 61
  - symbol: Li # 70
    coordinates: [  0.147756905351092,  0.781063661089904,  0.810028568225707 ]
    mass: 6.940000
    reduced_to: 61
  - symbol: Li # 71
    coordinates: [  0.481090238684425,  0.781063661089904,  0.810028568225707 ]
    mass: 6.940000
    reduced_to: 61
  - symbol: Li # 72
    coordinates: [  0.814423572017759,  0.781063661089904,  0.810028568225707 ]
    mass: 6.940000
    reduced_to: 61
  - symbol: Ga # 73
    coordinates: [  0.139436809971404,  0.128230826787998,  0.487829093487450 ]
    mass: 69.723000
    reduced_to: 73
  - symbol: Ga # 74
    coordinates: [  0.472770143304737,  0.128230826787998,  0.487829093487450 ]
    mass: 69.723000
    reduced_to: 73
  - symbol: Ga # 75
    coordinates: [  0.806103476638070,  0.128230826787998,  0.487829093487450 ]
    mass: 69.723000
    reduced_to: 73
  - symbol: Ga # 76
    coordinates: [  0.139436809971404,  0.628230826787997,  0.487829093487450 ]
    mass: 69.723000
    reduced_to: 73
  - symbol: Ga # 77
    coordinates: [  0.472770143304737,  0.628230826787997,  0.487829093487450 ]
    mass: 69.723000
    reduced_to: 73
  - symbol: Ga # 78
    coordinates: [  0.806103476638070,  0.628230826787997,  0.487829093487450 ]
    mass: 69.723000
    reduced_to: 73
  - symbol: Ga # 79
    coordinates: [  0.139436809971404,  0.128230826787998,  0.987829093487450 ]
    mass: 69.723000
    reduced_to: 73
  - symbol: Ga # 80
    coordinates: [  0.472770143304737,  0.128230826787998,  0.987829093487450 ]
    mass: 69.723000
    reduced_to: 73
  - symbol: Ga # 81
    coordinates: [  0.806103476638070,  0.128230826787998,  0.987829093487450 ]
    mass: 69.723000
    reduced_to: 73
  - symbol: Ga # 82
    coordinates: [  0.139436809971404,  0.628230826787997,  0.987829093487450 ]
    mass: 69.723000
    reduced_to: 73
  - symbol: Ga # 83
    coordinates: [  0.472770143304737,  0.628230826787997,  0.987829093487450 ]
    mass: 69.723000
    reduced_to: 73
  - symbol: Ga # 84
    coordinates: [  0.806103476638070,  0.628230826787997,  0.987829093487450 ]
    mass: 69.723000
    reduced_to: 73
  - symbol: Ga # 85
    coordinates: [  0.034905105782178,  0.289004313356542,  0.140607863102783 ]
    mass: 69.723000
    reduced_to: 85
  - symbol: Ga # 86
    coordinates: [  0.368238439115511,  0.289004313356542,  0.140607863102783 ]
    mass: 69.723000
    reduced_to: 85
  - symbol: Ga # 87
    coordinates: [  0.701571772448844,  0.289004313356542,  0.140607863102783 ]
    mass: 69.723000
    reduced_to: 85
  - symbol: Ga # 88
    coordinates: [  0.034905105782178,  0.789004313356542,  0.140607863102783 ]
    mass: 69.723000
    reduced_to: 85
  - symbol: Ga # 89
    coordinates: [  0.368238439115511,  0.789004313356542,  0.140607863102783 ]
    mass: 69.723000
    reduced_to: 85
  - symbol: Ga # 90
    coordinates: [  0.701571772448844,  0.789004313356542,  0.140607863102783 ]
    mass: 69.723000
    reduced_to: 85
  - symbol: Ga # 91
    coordinates: [  0.034905105782178,  0.289004313356542,  0.640607863102783 ]
    mass: 69.723000
    reduced_to: 85
  - symbol: Ga # 92
    coordinates: [  0.368238439115511,  0.289004313356542,  0.640607863102783 ]
    mass: 69.723000
    reduced_to: 85
  - symbol: Ga # 93
    coordinates: [  0.701571772448844,  0.289004313356542,  0.640607863102783 ]
    mass: 69.723000
    reduced_to: 85
  - symbol: Ga # 94
    coordinates: [  0.034905105782178,  0.789004313356542,  0.640607863102783 ]
    mass: 69.723000
    reduced_to: 85
  - symbol: Ga # 95
    coordinates: [  0.368238439115511,  0.789004313356542,  0.640607863102783 ]
    mass: 69.723000
    reduced_to: 85
  - symbol: Ga # 96
    coordinates: [  0.701571772448844,  0.789004313356542,  0.640607863102783 ]
    mass: 69.723000
    reduced_to: 85
  - symbol: Sn # 97
    coordinates: [  0.253839603012122,  0.458615223159514,  0.314226329274419 ]
    mass: 118.710000
    reduced_to: 97
  - symbol: Sn # 98
    coordinates: [  0.587172936345456,  0.458615223159514,  0.314226329274419 ]
    mass: 118.710000
    reduced_to: 97
  - symbol: Sn # 99
    coordinates: [  0.920506269678789,  0.458615223159514,  0.314226329274419 ]
    mass: 118.710000
    reduced_to: 97
  - symbol: Sn # 100
    coordinates: [  0.253839603012122,  0.958615223159514,  0.314226329274419 ]
    mass: 118.710000
    reduced_to: 97
  - symbol: Sn # 101
    coordinates: [  0.587172936345456,  0.958615223159514,  0.314226329274419 ]
    mass: 118.710000
    reduced_to: 97
  - symbol: Sn # 102
    coordinates: [  0.920506269678789,  0.958615223159514,  0.314226329274419 ]
    mass: 118.710000
    reduced_to: 97
  - symbol: Sn # 103
    coordinates: [  0.253839603012122,  0.458615223159514,  0.814226329274419 ]
    mass: 118.710000
    reduced_to: 97
  - symbol: Sn # 104
    coordinates: [  0.587172936345456,  0.458615223159514,  0.814226329274419 ]
    mass: 118.710000
    reduced_to: 97
  - symbol: Sn # 105
    coordinates: [  0.920506269678789,  0.458615223159514,  0.814226329274419 ]
    mass: 118.710000
    reduced_to: 97
  - symbol: Sn # 106
    coordinates: [  0.253839603012122,  0.958615223159514,  0.814226329274419 ]
    mass: 118.710000
    reduced_to: 97
  - symbol: Sn # 107
    coordinates: [  0.587172936345456,  0.958615223159514,  0.814226329274419 ]
    mass: 118.710000
    reduced_to: 97
  - symbol: Sn # 108
    coordinates: [  0.920506269678789,  0.958615223159514,  0.814226329274419 ]
    mass: 118.710000
    reduced_to: 97

displacements:
- atom:    1
  displacement:
    [   0.0100000000000000,  0.0000000000000000,  0.0000000000000000 ]
  forces:
  - [  -0.0203158669173717, -0.0383727028965950, -0.0245499797165394 ]
  - [  -0.0000147447062773, -0.0385594442486763, -0.0244443695992231 ]
  - [  -0.0000342224229826, -0.0381213240325451, -0.0247186589986086 ]
  - [   0.0002503886353225, -0.0384638309478760, -0.0245700199157000 ]
  - [   0.0001987823343370, -0.0383394323289394, -0.0245924666523933 ]
  - [   0.0001984057016671, -0.0382117107510567, -0.0245865695178509 ]
  - [   0.0002118814736605, -0.0383253209292889, -0.0246029980480671 ]
  - [   0.0001982748508453, -0.0383522510528564, -0.0245571825653315 ]
  - [   0.0001992639154196, -0.0383373722434044, -0.0245887879282236 ]
  - [   0.0002065915614367, -0.0383393689990044, -0.0245868470519781 ]
  - [   0.0002022301778197, -0.0383351817727089, -0.0245868843048811 ]
  - [   0.0002032965421677, -0.0383383557200432, -0.0245762467384338 ]
  - [   0.0048392228782177,  0.0309376213699579,  0.1215486526489258 ]
  - [  -0.0000497333239764,  0.0345007702708244,  0.1209418252110481 ]
  - [   0.0047535398043692,  0.0379545390605927,  0.1203495934605598 ]
  - [  -0.0004843725182582,  0.0342835113406181,  0.1209884583950043 ]
  - [  -0.0004827757657040,  0.0346907153725624,  0.1208981871604919 ]
  - [  -0.0000843533271109,  0.0344990342855453,  0.1209413260221481 ]
  - [  -0.0001531031448394,  0.0344935730099678,  0.1209403499960899 ]
  - [  -0.0001574386842549,  0.0344909764826298,  0.1209560409188271 ]
  - [  -0.0001584899146110,  0.0344909280538559,  0.1209373921155930 ]
  - [  -0.0001541471428936,  0.0344958566129208,  0.1209357678890228 ]
  - [  -0.0001624014694244,  0.0344919152557850,  0.1209490597248077 ]
  - [  -0.0001533971517347,  0.0344878658652306,  0.1209473907947540 ]
  - [  -0.0002211359969806,  0.0384922884404659,  0.0241289008408785 ]
  - [  -0.0002578925923444,  0.0384657159447670,  0.0241221077740192 ]
  - [  -0.0002578850835562,  0.0385203212499619,  0.0241365656256676 ]
  - [  -0.0002335752360523,  0.0385081171989441,  0.0241119526326656 ]
  - [  -0.0002217634319095,  0.0384878404438496,  0.0241245143115520 ]
  - [  -0.0002425452839816,  0.0384824648499489,  0.0241494998335838 ]
  - [   0.0000330447219312,  0.0383906364440918,  0.0241446662694216 ]
  - [  -0.0001770821399987,  0.0384940728545189,  0.0241287201642990 ]
  - [   0.0000227699056268,  0.0385993383824825,  0.0241214204579592 ]
  - [  -0.0002560093998909,  0.0384995713829994,  0.0241062678396702 ]
  - [  -0.0001843469217420,  0.0384594202041626,  0.0241666194051504 ]
  - [  -0.0002686921507120,  0.0385252311825752,  0.0241150688380003 ]
  - [  -0.0000634134557913,  0.0956548377871513,  0.0601346418261528 ]
  - [  -0.0000807782635093,  0.0959045514464378,  0.0603924654424191 ]
  - [  -0.0000126771628857,  0.0957734286785126,  0.0602561645209789 ]
  - [  -0.0006571250269189,  0.0957689285278320,  0.0602688714861870 ]
  - [  -0.0000041815510485,  0.0957674309611320,  0.0601564459502697 ]
  - [  -0.0000061358659877,  0.0957902297377586,  0.0603633932769299 ]
  - [  -0.0000419979915023,  0.0957738608121872,  0.0602603517472744 ]
  - [  -0.0000359453260899,  0.0957722663879395,  0.0602825470268726 ]
  - [  -0.0000300658866763,  0.0957826972007751,  0.0602356605231762 ]
  - [  -0.0000094317492767,  0.0957196503877640,  0.0602605789899826 ]
  - [  -0.0000677714706399,  0.0957758128643036,  0.0602603927254677 ]
  - [  -0.0000114167378342,  0.0958352461457253,  0.0602582246065140 ]
  - [   0.0001983957772609, -0.0344949364662170, -0.1207417696714401 ]
  - [   0.0001615718065295, -0.0344727411866188, -0.1207498013973236 ]
  - [   0.0001643843861530, -0.0345130003988743, -0.1207323297858238 ]
  - [   0.0001951162703335, -0.0345992296934128, -0.1206368356943130 ]
  - [   0.0001827327068895, -0.0344925783574581, -0.1207397207617760 ]
  - [   0.0001927298726514, -0.0343890115618706, -0.1208443865180016 ]
  - [   0.0002590946387500, -0.0342659763991833, -0.1210237368941307 ]
  - [   0.0001963908289326, -0.0345283299684525, -0.1207316070795059 ]
  - [   0.0002571258228272, -0.0346870571374893, -0.1204666867852211 ]
  - [   0.0001036233734339, -0.0344369262456894, -0.1207704171538353 ]
  - [   0.0001037756446749, -0.0345472283661366, -0.1207113116979599 ]
  - [   0.0000708266161382, -0.0345031619071960, -0.1207489892840385 ]
  - [  -0.0002507271710783, -0.0959440022706985, -0.0601100474596024 ]
  - [  -0.0001284986210521, -0.0958758294582367, -0.0601404830813408 ]
  - [  -0.0001285941398237, -0.0960201695561409, -0.0600972734391689 ]
  - [   0.0000474695116282, -0.0957530587911606, -0.0601583272218704 ]
  - [   0.0000105835497379, -0.0959538519382477, -0.0601227879524231 ]
  - [   0.0000405497848988, -0.0961332395672798, -0.0600772351026535 ]
  - [   0.0000123942991195, -0.0959249809384346, -0.0600844211876392 ]
  - [  -0.0000118950265460, -0.0959467440843582, -0.0601179227232933 ]
  - [   0.0000168216847669, -0.0959705263376236, -0.0601556077599525 ]
  - [   0.0000270004384220, -0.0959524214267731, -0.0600965023040771 ]
  - [   0.0000279368832707, -0.0959380716085434, -0.0601461008191109 ]
  - [  -0.0001096297055483, -0.0959497317671776, -0.0601162612438202 ]
  - [   0.0005585713079199,  0.0021992921829224, -0.0022631930187345 ]
  - [  -0.0000527626980329,  0.0022246902808547, -0.0021861735731363 ]
  - [  -0.0000583234286751,  0.0021717930212617, -0.0023310063406825 ]
  - [   0.0037175621837378,  0.0051908055320382, -0.0011377185583115 ]
  - [   0.0000308920862153,  0.0021960390731692, -0.0022622914984822 ]
  - [   0.0036058505065739, -0.0007034176960588, -0.0033595496788621 ]
  - [  -0.0000762036070228,  0.0021834662184119, -0.0022715469822288 ]
  - [  -0.0000755651126383,  0.0021912353113294, -0.0022683460265398 ]
  - [  -0.0000860169238877,  0.0022130217403173, -0.0022426974028349 ]
  - [  -0.0000619045458734,  0.0021971957758069, -0.0022602258250117 ]
  - [  -0.0000854181707837,  0.0021965205669403, -0.0022467281669378 ]
  - [  -0.0000881029991433,  0.0021951245144010, -0.0022754594683647 ]
  - [   0.0001547341234982, -0.0022117095068097,  0.0027667796239257 ]
  - [   0.0001548563013785, -0.0023152055218816,  0.0024663843214512 ]
  - [   0.0000985971419141, -0.0022650212049484,  0.0026165815070271 ]
  - [   0.0001023344811983, -0.0022671921178699,  0.0026182364672422 ]
  - [   0.0001185016808449, -0.0022686868906021,  0.0026167947798967 ]
  - [   0.0001174048738903, -0.0022553903982043,  0.0026183901354671 ]
  - [   0.0005617052665912, -0.0022489642724395,  0.0025909263640642 ]
  - [   0.0001997813815251, -0.0023718466982245,  0.0026303920894861 ]
  - [   0.0002030240138993, -0.0021568946540356,  0.0026008244603872 ]
  - [   0.0001865742815426, -0.0021734479814768,  0.0025357259437442 ]
  - [   0.0001245844759978, -0.0022783977910876,  0.0026220930740237 ]
  - [   0.0001842300116550, -0.0023256381973624,  0.0027021244168282 ]
  - [   0.0015443589072675, -0.0003696093335748, -0.0016535359900445 ]
  - [   0.0000841172877699,  0.0000839657150209, -0.0002456789370626 ]
  - [   0.0014819703064859,  0.0005372129380703,  0.0010904388036579 ]
  - [   0.0000385963357985,  0.0001143268309534, -0.0002670870162547 ]
  - [   0.0000495398417115,  0.0000796192325652, -0.0001915092580020 ]
  - [  -0.0000448129139841,  0.0000608474947512, -0.0002768428530544 ]
  - [   0.0000025732442737,  0.0000623580999672, -0.0002916662488133 ]
  - [  -0.0000035059638321,  0.0001048878766596, -0.0002033738419414 ]
  - [  -0.0001497645862401,  0.0000874442048371, -0.0002437285147607 ]
  - [   0.0000209971331060,  0.0000725220888853, -0.0002292974386364 ]
  - [   0.0000081919133663,  0.0000819028355181, -0.0002426195424050 ]
  - [   0.0000230667646974,  0.0000950754620135, -0.0002639798913151 ]
- atom:    1
  displacement:
    [  -0.0100000000000000,  0.0000000000000000,  0.0000000000000000 ]
  forces:
  - [   0.0207235347479582, -0.0383732058107853, -0.0245488584041595 ]
  - [   0.0004424359067343, -0.0381213799118996, -0.0247187148779631 ]
  - [   0.0004228195175529, -0.0385589264333248, -0.0244446191936731 ]
  - [   0.0001575822388986, -0.0382127761840820, -0.0245964266359806 ]
  - [   0.0002086633176077, -0.0383364036679268, -0.0245730485767126 ]
  - [   0.0002081557904603, -0.0384655371308327, -0.0245795249938965 ]
  - [   0.0001959707587957, -0.0383509621024132, -0.0245631784200668 ]
  - [   0.0002062208950520, -0.0383250564336777, -0.0246091112494469 ]
  - [   0.0002072285860777, -0.0383391939103603, -0.0245768222957850 ]
  - [   0.0002007754519582, -0.0383359938859940, -0.0245798211544752 ]
  - [   0.0002051256597042, -0.0383401811122894, -0.0245797522366047 ]
  - [   0.0002061212435365, -0.0383363813161850, -0.0245903562754393 ]
  - [  -0.0050685098394752,  0.0379612036049366,  0.1203496009111404 ]
  - [  -0.0002656448632479,  0.0344838649034500,  0.1209431141614914 ]
  - [  -0.0051542175933719,  0.0309436377137899,  0.1215483099222183 ]
  - [   0.0001691295474302,  0.0347016565501690,  0.1208969652652740 ]
  - [   0.0001690624631010,  0.0342939645051956,  0.1209876760840416 ]
  - [  -0.0002280163171235,  0.0344774685800076,  0.1209431663155556 ]
  - [  -0.0001582491677254,  0.0344905033707619,  0.1209495142102242 ]
  - [  -0.0001562386751175,  0.0344922207295895,  0.1209327876567841 ]
  - [  -0.0001544866245240,  0.0344925001263618,  0.1209514811635017 ]
  - [  -0.0001599799579708,  0.0344878956675529,  0.1209522187709808 ]
  - [  -0.0001509876165073,  0.0344915203750134,  0.1209395527839661 ]
  - [  -0.0001588980958331,  0.0344960764050484,  0.1209405288100243 ]
  - [  -0.0002449723251630,  0.0384931154549122,  0.0241301208734512 ]
  - [  -0.0002092020295095,  0.0385198444128036,  0.0241356436163187 ]
  - [  -0.0002072556089843,  0.0384653732180595,  0.0241216160356998 ]
  - [  -0.0002309936098754,  0.0384776443243027,  0.0241454467177391 ]
  - [  -0.0002419540542178,  0.0384982675313950,  0.0241328440606594 ]
  - [  -0.0002251015976071,  0.0385027192533016,  0.0241080000996590 ]
  - [  -0.0004905429668725,  0.0385994389653206,  0.0241209343075752 ]
  - [  -0.0002905339933932,  0.0384933724999428,  0.0241295937448740 ]
  - [  -0.0005007670260966,  0.0383909866213799,  0.0241441354155540 ]
  - [  -0.0002075675874949,  0.0384886749088764,  0.0241523198783398 ]
  - [  -0.0002802740782499,  0.0385299585759640,  0.0240914784371853 ]
  - [  -0.0001980755478144,  0.0384657159447670,  0.0241440925747156 ]
  - [  -0.0000293181037705,  0.0959009900689125,  0.0603880137205124 ]
  - [  -0.0000115749426186,  0.0956523492932320,  0.0601302497088909 ]
  - [  -0.0000790003687143,  0.0957794189453125,  0.0602649822831154 ]
  - [   0.0005690216785297,  0.0957734882831573,  0.0602709166705608 ]
  - [  -0.0000859872234287,  0.0957880616188049,  0.0603626519441605 ]
  - [  -0.0000839839558466,  0.0957650095224380,  0.0601555183529854 ]
  - [  -0.0000514145940542,  0.0957771390676498,  0.0602614507079124 ]
  - [  -0.0000523924827576,  0.0957802981138229,  0.0602352097630501 ]
  - [  -0.0000618668273091,  0.0957712680101395,  0.0602820552885532 ]
  - [  -0.0000783110808698,  0.0958354696631432,  0.0602582693099976 ]