# Thermal properties / unit cell (natom)

unit:
  temperature:   K
  free_energy:   kJ/mol
  entropy:       J/K/mol
  heat_capacity: J/K/mol

natom: 4    
cutoff_frequency: 0.00000
num_modes: 207576
num_integrated_modes: 207575

zero_point_energy:       7.1186010

thermal_properties:
- temperature:         0.0000000
  free_energy:         7.1186010
  entropy:             0.0000000
  heat_capacity:       0.0000000
  energy:              7.1186010

- temperature:        10.0000000
  free_energy:         7.1156811
  entropy:             1.2874279
  heat_capacity:       4.4417538
  energy:              7.1285553

- temperature:        20.0000000
  free_energy:         7.0658342
  entropy:             9.9255565
  heat_capacity:      23.6272214
  energy:              7.2643453

- temperature:        30.0000000
  free_energy:         6.9028357
  entropy:            22.9610321
  heat_capacity:      40.8157832
  energy:              7.5916666

- temperature:        40.0000000
  free_energy:         6.6055869
  entropy:            36.4000374
  heat_capacity:      52.4012010
  energy:              8.0615884

- temperature:        50.0000000
  free_energy:         6.1776983
  entropy:            49.0097771
  heat_capacity:      60.4987000
  energy:              8.6281871

- temperature:        60.0000000
  free_energy:         5.6287904
  entropy:            60.6064213
  heat_capacity:      66.6521982
  energy:              9.2651757

- temperature:        70.0000000
  free_energy:         4.9687026
  entropy:            71.2639808
  heat_capacity:      71.5791010
  energy:              9.9571812

- temperature:        80.0000000
  free_energy:         4.2062673
  entropy:            81.0941646
  heat_capacity:      75.6145701
  energy:             10.6938004

- temperature:        90.0000000
  free_energy:         3.3492354
  entropy:            90.1989753
  heat_capacity:      78.9495059
  energy:             11.4671432

- temperature:       100.0000000
  free_energy:         2.4044159
  entropy:            98.6648914
  heat_capacity:      81.7178864
  energy:             12.2709050

- temperature:       110.0000000
  free_energy:         1.3778226
  entropy:           106.5649266
  heat_capacity:      84.0247230
  energy:             13.0999646

- temperature:       120.0000000
  free_energy:         0.2747954
  entropy:           113.9612606
  heat_capacity:      85.9551884
  energy:             13.9501467

- temperature:       130.0000000
  free_energy:        -0.8999024
  entropy:           120.9072972
  heat_capacity:      87.5785938
  energy:             14.8180463

- temperature:       140.0000000
  free_energy:        -2.1420041
  entropy:           127.4491963
  heat_capacity:      88.9510893
  energy:             15.7008834

- temperature:       150.0000000
  free_energy:        -3.4476734
  entropy:           133.6270467
  heat_capacity:      90.1179666
  energy:             16.5963836

- temperature:       160.0000000
  free_energy:        -4.8134485
  entropy:           139.4758009
  heat_capacity:      91.1156797
  energy:             17.5026796

- temperature:       170.0000000
  free_energy:        -6.2361948
  entropy:           145.0260385
  heat_capacity:      91.9735715
  energy:             18.4182318

- temperature:       180.0000000
  free_energy:        -7.7130641
  entropy:           150.3046024
  heat_capacity:      92.7153049
  energy:             19.3417644

- temperature:       190.0000000
  free_energy:        -9.2414603
  entropy:           155.3351327
  heat_capacity:      93.3600229
  energy:             20.2722149

- temperature:       200.0000000
  free_energy:       -10.8190098
  entropy:           160.1385170
  heat_capacity:      93.9232742
  energy:             21.2086936

- temperature:       210.0000000
  free_energy:       -12.4435355
  entropy:           164.7332706
  heat_capacity:      94.4177466
  energy:             22.1504514

- temperature:       220.0000000
  free_energy:       -14.1130349
  entropy:           169.1358592
  heat_capacity:      94.8538444
  energy:             23.0968541

- temperature:       230.0000000
  free_energy:       -15.8256612
  entropy:           173.3609724
  heat_capacity:      95.2401430
  energy:             24.0473624

- temperature:       240.0000000
  free_energy:       -17.5797067
  entropy:           177.4217564
  heat_capacity:      95.5837473
  energy:             25.0015148

- temperature:       250.0000000
  free_energy:       -19.3735881
  entropy:           181.3300117
  heat_capacity:      95.8905735
  energy:             25.9589149

- temperature:       260.0000000
  free_energy:       -21.2058340
  entropy:           185.0963628
  heat_capacity:      96.1655731
  energy:             26.9192203

- temperature:       270.0000000
  free_energy:       -23.0750744
  entropy:           188.7304022
  heat_capacity:      96.4129107
  energy:             27.8821342

- temperature:       280.0000000
  free_energy:       -24.9800301
  entropy:           192.2408149
  heat_capacity:      96.6361055
  energy:             28.8473981

- temperature:       290.0000000
  free_energy:       -26.9195050
  entropy:           195.6354855
  heat_capacity:      96.8381452
  energy:             29.8147858

- temperature:       300.0000000
  free_energy:       -28.8923780
  entropy:           198.9215899
  heat_capacity:      97.0215777
  energy:             30.7840990

- temperature:       310.0000000
  free_energy:       -30.8975968
  entropy:           202.1056756
  heat_capacity:      97.1885847
  energy:             31.7551627

- temperature:       320.0000000
  free_energy:       -32.9341714
  entropy:           205.1937302
  heat_capacity:      97.3410423
  energy:             32.7278222

- temperature:       330.0000000
  free_energy:       -35.0011696
  entropy:           208.1912426
  heat_capacity:      97.4805700
  energy:             33.7019404

- temperature:       340.0000000
  free_energy:       -37.0977113
  entropy:           211.1032546
  heat_capacity:      97.6085712
  energy:             34.6773952

- temperature:       350.0000000
  free_energy:       -39.2229652
  entropy:           213.9344078
  heat_capacity:      97.7262665
  energy:             35.6540775

- temperature:       360.0000000
  free_energy:       -41.3761443
  entropy:           216.6889834
  heat_capacity:      97.8347206
  energy:             36.6318898

- temperature:       370.0000000
  free_energy:       -43.5565028
  entropy:           219.3709381
  heat_capacity:      97.9348661
  energy:             37.6107443

- temperature:       380.0000000
  free_energy:       -45.7633332
  entropy:           221.9839351
  heat_capacity:      98.0275221
  energy:             38.5905621

- temperature:       390.0000000
  free_energy:       -47.9959630
  entropy:           224.5313723
  heat_capacity:      98.1134099
  energy:             39.5712722

- temperature:       400.0000000
  free_energy:       -50.2537527
  entropy:           227.0164064
  heat_capacity:      98.1931672
  energy:             40.5528099

- temperature:       410.0000000
  free_energy:       -52.5360930
  entropy:           229.4419754
  heat_capacity:      98.2673587
  energy:             41.5351170

- temperature:       420.0000000
  free_energy:       -54.8424031
  entropy:           231.8108174
  heat_capacity:      98.3364863
  energy:             42.5181402

- temperature:       430.0000000
  free_energy:       -57.1721288
  entropy:           234.1254885
  heat_capacity:      98.4009969
  energy:             43.5018313

- temperature:       440.0000000
  free_energy:       -59.5247403
  entropy:           236.3883781
  heat_capacity:      98.4612898
  energy:             44.4861461

- temperature:       450.0000000
  free_energy:       -61.8997312
  entropy:           238.6017231
  heat_capacity:      98.5177220
  energy:             45.4710442

- temperature:       460.0000000
  free_energy:       -64.2966166
  entropy:           240.7676203
  heat_capacity:      98.5706140
  energy:             46.4564887

- temperature:       470.0000000
  free_energy:       -66.7149320
  entropy:           242.8880376
  heat_capacity:      98.6202540
  energy:             47.4424457

- temperature:       480.0000000
  free_energy:       -69.1542319
  entropy:           244.9648245
  heat_capacity:      98.6669015
  energy:             48.4288838

- temperature:       490.0000000
  free_energy:       -71.6140889
  entropy:           246.9997212
  heat_capacity:      98.7107908
  energy:             49.4157745

- temperature:       500.0000000
  free_energy:       -74.0940922
  entropy:           248.9943667
  heat_capacity:      98.7521340
  energy:             50.4030912

- temperature:       510.0000000
  free_energy:       -76.5938472
  entropy:           250.9503069
  heat_capacity:      98.7911232
  energy:             51.3908093

- temperature:       520.0000000
  free_energy:       -79.1129742
  entropy:           252.8690011
  heat_capacity:      98.8279327
  energy:             52.3789064

- temperature:       530.0000000
  free_energy:       -81.6511077
  entropy:           254.7518282
  heat_capacity:      98.8627212
  energy:             53.3673613

- temperature:       540.0000000
  free_energy:       -84.2078956
  entropy:           256.6000928
  heat_capacity:      98.8956333
  energy:             54.3561545

- temperature:       550.0000000
  free_energy:       -86.7829984
  entropy:           258.4150301
  heat_capacity:      98.9268009
  energy:             55.3452681

- temperature:       560.0000000
  free_energy:       -89.3760890
  entropy:           260.1978109
  heat_capacity:      98.9563446
  energy:             56.3346851

- temperature:       570.0000000
  free_energy:       -91.9868512
  entropy:           261.9495459
  heat_capacity:      98.9843748
  energy:             57.3243900

- temperature:       580.0000000
  free_energy:       -94.6149799
  entropy:           263.6712894
  heat_capacity:      99.0109926
  energy:             58.3143679

- temperature:       590.0000000
  free_energy:       -97.2601803
  entropy:           265.3640437
  heat_capacity:      99.0362910
  energy:             59.3046054

- temperature:       600.0000000
  free_energy:       -99.9221673
  entropy:           267.0287617
  heat_capacity:      99.0603554
  energy:             60.2950896

- temperature:       610.0000000
  free_energy:      -102.6006652
  entropy:           268.6663505
  heat_capacity:      99.0832646
  energy:             61.2858087

- temperature:       620.0000000
  free_energy:      -105.2954068
  entropy:           270.2776744
  heat_capacity:      99.1050909
  energy:             62.2767513

- temperature:       630.0000000
  free_energy:      -108.0061338
  entropy:           271.8635571
  heat_capacity:      99.1259013
  energy:             63.2679071

- temperature:       640.0000000
  free_energy:      -110.7325958
  entropy:           273.4247843
  heat_capacity:      99.1457577
  energy:             64.2592662

- temperature:       650.0000000
  free_energy:      -113.4745498
  entropy:           274.9621063
  heat_capacity:      99.1647173
  energy:             65.2508193

- temperature:       660.0000000
  free_energy:      -116.2317606
  entropy:           276.4762399
  heat_capacity:      99.1828332
  energy:             66.2425577

- temperature:       670.0000000
  free_energy:      -119.0039996
  entropy:           277.9678700
  heat_capacity:      99.2001545
  energy:             67.2344733

- temperature:       680.0000000
  free_energy:      -121.7910452
  entropy:           279.4376522
  heat_capacity:      99.2167268
  energy:             68.2265583

- temperature:       690.0000000
  free_energy:      -124.5926819
  entropy:           280.8862136
  heat_capacity:      99.2325927
  energy:             69.2188055

- temperature:       700.0000000
  free_energy:      -127.4087007
  entropy:           282.3141552
  heat_capacity:      99.2477915
  energy:             70.2112079

- temperature:       710.0000000
  free_energy:      -130.2388982
  entropy:           283.7220527
  heat_capacity:      99.2623600
  energy:             71.2037592

- temperature:       720.0000000
  free_energy:      -133.0830768
  entropy:           285.1104583
  heat_capacity:      99.2763326
  energy:             72.1964531

- temperature:       730.0000000
  free_energy:      -135.9410442
  entropy:           286.4799016
  heat_capacity:      99.2897411
  energy:             73.1892840

- temperature:       740.0000000
  free_energy:      -138.8126133
  entropy:           287.8308912
  heat_capacity:      99.3026156
  energy:             74.1822462

- temperature:       750.0000000
  free_energy:      -141.6976021
  entropy:           289.1639156
  heat_capacity:      99.3149838
  energy:             75.1753346

- temperature:       760.0000000
  free_energy:      -144.5958333
  entropy:           290.4794442
  heat_capacity:      99.3268720
  energy:             76.1685443

- temperature:       770.0000000
  free_energy:      -147.5071342
  entropy:           291.7779282
  heat_capacity:      99.3383045
  energy:             77.1618705

- temperature:       780.0000000
  free_energy:      -150.4313365
  entropy:           293.0598018
  heat_capacity:      99.3493044
  energy:             78.1553089

- temperature:       790.0000000
  free_energy:      -153.3682763
  entropy:           294.3254829
  heat_capacity:      99.3598931
  energy:             79.1488552

- temperature:       800.0000000
  free_energy:      -156.3177936
  entropy:           295.5753738
  heat_capacity:      99.3700908
  energy:             80.1425055

- temperature:       810.0000000
  free_energy:      -159.2797324
  entropy:           296.8098620
  heat_capacity:      99.3799165
  energy:             81.1362558

- temperature:       820.0000000
  free_energy:      -162.2539407
  entropy:           298.0293211
  heat_capacity:      99.3893880
  energy:             82.1301026

- temperature:       830.0000000
  free_energy:      -165.2402699
  entropy:           299.2341113
  heat_capacity:      99.3985222
  energy:             83.1240424

- temperature:       840.0000000
  free_energy:      -168.2385752
  entropy:           300.4245800
  heat_capacity:      99.4073348
  energy:             84.1180720

- temperature:       850.0000000
  free_energy:      -171.2487149
  entropy:           301.6010624
  heat_capacity:      99.4158407
  energy:             85.1121881

- temperature:       860.0000000
  free_energy:      -174.2705509
  entropy:           302.7638822
  heat_capacity:      99.4240540
  energy:             86.1063878

- temperature:       870.0000000
  free_energy:      -177.3039481
  entropy:           303.9133521
  heat_capacity:      99.4319878
  energy:             87.1006683

- temperature:       880.0000000
  free_energy:      -180.3487744
  entropy:           305.0497740
  heat_capacity:      99.4396548
  energy:             88.0950267

- temperature:       890.0000000
  free_energy:      -183.4049010
  entropy:           306.1734399
  heat_capacity:      99.4470667
  energy:             89.0894605

- temperature:       900.0000000
  free_energy:      -186.4722017
  entropy:           307.2846321
  heat_capacity:      99.4542346
  energy:             90.0839672

- temperature:       910.0000000
  free_energy:      -189.5505530
  entropy:           308.3836235
  heat_capacity:      99.4611693
  energy:             91.0785444

- temperature:       920.0000000
  free_energy:      -192.6398344
  entropy:           309.4706785
  heat_capacity:      99.4678805
  energy:             92.0731899

- temperature:       930.0000000
  free_energy:      -195.7399276
  entropy:           310.5460526
  heat_capacity:      99.4743780
  energy:             93.0679013

- temperature:       940.0000000
  free_energy:      -198.8507173
  entropy:           311.6099936
  heat_capacity:      99.4806705
  energy:             94.0626767

- temperature:       950.0000000
  free_energy:      -201.9720902
  entropy:           312.6627413
  heat_capacity:      99.4867667
  energy:             95.0575141

- temperature:       960.0000000
  free_energy:      -205.1039356
  entropy:           313.7045281
  heat_capacity:      99.4926745
  energy:             96.0524114

- temperature:       970.0000000
  free_energy:      -208.2461450
  entropy:           314.7355793
  heat_capacity:      99.4984017
  energy:             97.0473670

- temperature:       980.0000000
  free_energy:      -211.3986121
  entropy:           315.7561133
  heat_capacity:      99.5039556
  energy:             98.0423789

- temperature:       990.0000000
  free_energy:      -214.5612329
  entropy:           316.7663418
  heat_capacity:      99.5093430
  energy:             99.0374455

- temperature:      1000.0000000
  free_energy:      -217.7339053
  entropy:           317.7664705
  heat_capacity:      99.5145705
  energy:            100.0325652
