# Thermal properties / unit cell (natom)

unit:
  temperature:   K
  free_energy:   kJ/mol
  entropy:       J/K/mol
  heat_capacity: J/K/mol

natom: 8    
cutoff_frequency: 0.00000
num_modes: 98304
num_integrated_modes: 98299

zero_point_energy:       8.2480188

thermal_properties:
- temperature:         0.0000000
  free_energy:         8.2480188
  entropy:             0.0000000
  heat_capacity:       0.0000000
  energy:              8.2480188

- temperature:        10.0000000
  free_energy:         8.2208455
  entropy:             9.4127722
  heat_capacity:      20.9493109
  energy:              8.3149732

- temperature:        20.0000000
  free_energy:         7.9962862
  entropy:            37.6446215
  heat_capacity:      67.6190582
  energy:              8.7491786

- temperature:        30.0000000
  free_energy:         7.4421991
  entropy:            73.6686906
  heat_capacity:     110.6725555
  energy:              9.6522599

- temperature:        40.0000000
  free_energy:         6.5233910
  entropy:           109.7339114
  heat_capacity:     139.1974329
  energy:             10.9127475

- temperature:        50.0000000
  free_energy:         5.2575809
  entropy:           142.8566604
  heat_capacity:     156.9532305
  energy:             12.4004139

- temperature:        60.0000000
  free_energy:         3.6777775
  entropy:           172.5450208
  heat_capacity:     168.2482132
  energy:             14.0304787

- temperature:        70.0000000
  free_energy:         1.8172063
  entropy:           199.0795330
  heat_capacity:     175.7243820
  energy:             15.7527736

- temperature:        80.0000000
  free_energy:        -0.2947722
  entropy:           222.9006309
  heat_capacity:     180.8737150
  energy:             17.5372782

- temperature:        90.0000000
  free_energy:        -2.6331687
  entropy:           244.4282041
  heat_capacity:     184.5484887
  energy:             19.3653697

- temperature:       100.0000000
  free_energy:        -5.1768883
  entropy:           264.0192107
  heat_capacity:     187.2524651
  energy:             21.2250327

- temperature:       110.0000000
  free_energy:        -7.9080796
  entropy:           281.9664152
  heat_capacity:     189.2949384
  energy:             23.1082260

- temperature:       120.0000000
  free_energy:       -10.8115352
  entropy:           298.5077105
  heat_capacity:     190.8728118
  energy:             25.0093901

- temperature:       130.0000000
  free_energy:       -13.8741966
  entropy:           313.8366655
  heat_capacity:     192.1156285
  energy:             26.9245699

- temperature:       140.0000000
  free_energy:       -17.0847585
  entropy:           328.1117126
  heat_capacity:     193.1111532
  energy:             28.8508812

- temperature:       150.0000000
  free_energy:       -20.4333558
  entropy:           341.4635325
  heat_capacity:     193.9204144
  energy:             30.7861740

- temperature:       160.0000000
  free_energy:       -23.9113160
  entropy:           354.0008169
  heat_capacity:     194.5868414
  energy:             32.7288147

- temperature:       170.0000000
  free_energy:       -27.5109625
  entropy:           365.8147251
  heat_capacity:     195.1419816
  energy:             34.6775408

- temperature:       180.0000000
  free_energy:       -31.2254574
  entropy:           376.9823291
  heat_capacity:     195.6091765
  energy:             36.6313618

- temperature:       190.0000000
  free_energy:       -35.0486746
  entropy:           387.5692882
  heat_capacity:     196.0059828
  energy:             38.5894901

- temperature:       200.0000000
  free_energy:       -38.9750963
  entropy:           397.6319410
  heat_capacity:     196.3458037
  energy:             40.5512918

- temperature:       210.0000000
  free_energy:       -42.9997287
  entropy:           407.2189512
  heat_capacity:     196.6390100
  energy:             42.5162511

- temperature:       220.0000000
  free_energy:       -47.1180315
  entropy:           416.3726154
  heat_capacity:     196.8937245
  energy:             44.4839439

- temperature:       230.0000000
  free_energy:       -51.3258602
  entropy:           425.1299091
  heat_capacity:     197.1163804
  energy:             46.4540189

- temperature:       240.0000000
  free_energy:       -55.6194172
  entropy:           433.5233296
  heat_capacity:     197.3121248
  energy:             48.4261819

- temperature:       250.0000000
  free_energy:       -59.9952100
  entropy:           441.5815822
  heat_capacity:     197.4851148
  energy:             50.4001856

- temperature:       260.0000000
  free_energy:       -64.4500168
  entropy:           449.3301405
  heat_capacity:     197.6387366
  energy:             52.3758197

- temperature:       270.0000000
  free_energy:       -68.9808564
  entropy:           456.7917092
  heat_capacity:     197.7757707
  energy:             54.3529051

- temperature:       280.0000000
  free_energy:       -73.5849623
  entropy:           463.9866067
  heat_capacity:     197.8985169
  energy:             56.3312876

- temperature:       290.0000000
  free_energy:       -78.2597607
  entropy:           470.9330858
  heat_capacity:     198.0088908
  energy:             58.3108342

- temperature:       300.0000000
  free_energy:       -83.0028510
  entropy:           477.6476017
  heat_capacity:     198.1084978
  energy:             60.2914295

- temperature:       310.0000000
  free_energy:       -87.8119893
  entropy:           484.1450389
  heat_capacity:     198.1986918
  energy:             62.2729728

- temperature:       320.0000000
  free_energy:       -92.6850733
  entropy:           490.4389036
  heat_capacity:     198.2806205
  energy:             64.2553758

- temperature:       330.0000000
  free_energy:       -97.6201298
  entropy:           496.5414873
  heat_capacity:     198.3552624
  energy:             66.2385610

- temperature:       340.0000000
  free_energy:      -102.6153030
  entropy:           502.4640075
  heat_capacity:     198.4234553
  energy:             68.2224596

- temperature:       350.0000000
  free_energy:      -107.6688441
  entropy:           508.2167288
  heat_capacity:     198.4859203
  energy:             70.2070110

- temperature:       360.0000000
  free_energy:      -112.7791030
  entropy:           513.8090667
  heat_capacity:     198.5432806
  energy:             72.1921610

- temperature:       370.0000000
  free_energy:      -117.9445198
  entropy:           519.2496787
  heat_capacity:     198.5960769
  energy:             74.1778614

- temperature:       380.0000000
  free_energy:      -123.1636175
  entropy:           524.5465431
  heat_capacity:     198.6447803
  energy:             76.1640689

- temperature:       390.0000000
  free_energy:      -128.4349961
  entropy:           529.7070277
  heat_capacity:     198.6898027
  energy:             78.1507447

- temperature:       400.0000000
  free_energy:      -133.7573262
  entropy:           534.7379503
  heat_capacity:     198.7315056
  energy:             80.1378539

- temperature:       410.0000000
  free_energy:      -139.1293443
  entropy:           539.6456321
  heat_capacity:     198.7702071
  energy:             82.1253648

- temperature:       420.0000000
  free_energy:      -144.5498477
  entropy:           544.4359444
  heat_capacity:     198.8061883
  energy:             84.1132490

- temperature:       430.0000000
  free_energy:      -150.0176902
  entropy:           549.1143502
  heat_capacity:     198.8396978
  energy:             86.1014804

- temperature:       440.0000000
  free_energy:      -155.5317787
  entropy:           553.6859411
  heat_capacity:     198.8709570
  energy:             88.0900354

- temperature:       450.0000000
  free_energy:      -161.0910689
  entropy:           558.1554701
  heat_capacity:     198.9001626
  energy:             90.0788927

- temperature:       460.0000000
  free_energy:      -166.6945627
  entropy:           562.5273807
  heat_capacity:     198.9274906
  energy:             92.0680324

- temperature:       470.0000000
  free_energy:      -172.3413050
  entropy:           566.8058335
  heat_capacity:     198.9530984
  energy:             94.0574367

- temperature:       480.0000000
  free_energy:      -178.0303809
  entropy:           570.9947292
  heat_capacity:     198.9771273
  energy:             96.0470891

- temperature:       490.0000000
  free_energy:      -183.7609133
  entropy:           575.0977301
  heat_capacity:     198.9997044
  energy:             98.0369744

- temperature:       500.0000000
  free_energy:      -189.5320607
  entropy:           579.1182789
  heat_capacity:     199.0209442
  energy:            100.0270788

- temperature:       510.0000000
  free_energy:      -195.3430149
  entropy:           583.0596158
  heat_capacity:     199.0409503
  energy:            102.0173892

- temperature:       520.0000000
  free_energy:      -201.1929991
  entropy:           586.9247944
  heat_capacity:     199.0598163
  energy:            104.0078940

- temperature:       530.0000000
  free_energy:      -207.0812665
  entropy:           590.7166953
  heat_capacity:     199.0776271
  energy:            105.9985820

- temperature:       540.0000000
  free_energy:      -213.0070979
  entropy:           594.4380391
  heat_capacity:     199.0944601
  energy:            107.9894433

- temperature:       550.0000000
  free_energy:      -218.9698007
  entropy:           598.0913980
  heat_capacity:     199.1103854
  energy:            109.9804682

- temperature:       560.0000000
  free_energy:      -224.9687074
  entropy:           601.6792062
  heat_capacity:     199.1254670
  energy:            111.9716481

- temperature:       570.0000000
  free_energy:      -231.0031740
  entropy:           605.2037701
  heat_capacity:     199.1397636
  energy:            113.9629749

- temperature:       580.0000000
  free_energy:      -237.0725792
  entropy:           608.6672762
  heat_capacity:     199.1533287
  energy:            115.9544410

- temperature:       590.0000000
  free_energy:      -243.1763229
  entropy:           612.0718003
  heat_capacity:     199.1662112
  energy:            117.9460392

- temperature:       600.0000000
  free_energy:      -249.3138252
  entropy:           615.4193138
  heat_capacity:     199.1784563
  energy:            119.9377631

- temperature:       610.0000000
  free_energy:      -255.4845254
  entropy:           618.7116915
  heat_capacity:     199.1901052
  energy:            121.9296064

- temperature:       620.0000000
  free_energy:      -261.6878812
  entropy:           621.9507170
  heat_capacity:     199.2011960
  energy:            123.9215633

- temperature:       630.0000000
  free_energy:      -267.9233676
  entropy:           625.1380891
  heat_capacity:     199.2117639
  energy:            125.9136285

- temperature:       640.0000000
  free_energy:      -274.1904762
  entropy:           628.2754269
  heat_capacity:     199.2218411
  energy:            127.9057970

- temperature:       650.0000000
  free_energy:      -280.4887145
  entropy:           631.3642744
  heat_capacity:     199.2314575
  energy:            129.8980638

- temperature:       660.0000000
  free_energy:      -286.8176050
  entropy:           634.4061056
  heat_capacity:     199.2406409
  energy:            131.8904247

- temperature:       670.0000000
  free_energy:      -293.1766846
  entropy:           637.4023282
  heat_capacity:     199.2494168
  energy:            133.8828753

- temperature:       680.0000000
  free_energy:      -299.5655040
  entropy:           640.3542879
  heat_capacity:     199.2578089
  energy:            135.8754117

- temperature:       690.0000000
  free_energy:      -305.9836271
  entropy:           643.2632716
  heat_capacity:     199.2658394
  energy:            137.8680303

- temperature:       700.0000000
  free_energy:      -312.4306303
  entropy:           646.1305110
  heat_capacity:     199.2735287
  energy:            139.8607274

- temperature:       710.0000000
  free_energy:      -318.9061021
  entropy:           648.9571858
  heat_capacity:     199.2808958
  energy:            141.8534998

- temperature:       720.0000000
  free_energy:      -325.4096426
  entropy:           651.7444262
  heat_capacity:     199.2879585
  energy:            143.8463443

- temperature:       730.0000000
  free_energy:      -331.9408628
  entropy:           654.4933162
  heat_capacity:     199.2947333
  energy:            145.8392580

- temperature:       740.0000000
  free_energy:      -338.4993846
  entropy:           657.2048954
  heat_capacity:     199.3012356
  energy:            147.8322380

- temperature:       750.0000000
  free_energy:      -345.0848397
  entropy:           659.8801620
  heat_capacity:     199.3074800
  energy:            149.8252818

- temperature:       760.0000000
  free_energy:      -351.6968700
  entropy:           662.5200747
  heat_capacity:     199.3134798
  energy:            151.8183868

- temperature:       770.0000000
  free_energy:      -358.3351264
  entropy:           665.1255546
  heat_capacity:     199.3192476
  energy:            153.8115507

- temperature:       780.0000000
  free_energy:      -364.9992692
  entropy:           667.6974875
  heat_capacity:     199.3247952
  energy:            155.8047710

- temperature:       790.0000000
  free_energy:      -371.6889672
  entropy:           670.2367254
  heat_capacity:     199.3301338
  energy:            157.7980459

- temperature:       800.0000000
  free_energy:      -378.4038975
  entropy:           672.7440882
  heat_capacity:     199.3352736
  energy:            159.7913731

- temperature:       810.0000000
  free_energy:      -385.1437453
  entropy:           675.2203655
  heat_capacity:     199.3402245
  energy:            161.7847507

- temperature:       820.0000000
  free_energy:      -391.9082037
  entropy:           677.6663179
  heat_capacity:     199.3449955
  energy:            163.7781769

- temperature:       830.0000000
  free_energy:      -398.6969731
  entropy:           680.0826784
  heat_capacity:     199.3495953
  energy:            165.7716500

- temperature:       840.0000000
  free_energy:      -405.5097610
  entropy:           682.4701539
  heat_capacity:     199.3540319
  energy:            167.7651683

- temperature:       850.0000000
  free_energy:      -412.3462821
  entropy:           684.8294262
  heat_capacity:     199.3583131
  energy:            169.7587302

- temperature:       860.0000000
  free_energy:      -419.2062577
  entropy:           687.1611532
  heat_capacity:     199.3624459
  energy:            171.7523341

- temperature:       870.0000000
  free_energy:      -426.0894155
  entropy:           689.4659702
  heat_capacity:     199.3664371
  energy:            173.7459786

- temperature:       880.0000000
  free_energy:      -432.9954895
  entropy:           691.7444907
  heat_capacity:     199.3702932
  energy:            175.7396624

- temperature:       890.0000000
  free_energy:      -439.9242196
  entropy:           693.9973075
  heat_capacity:     199.3740201
  energy:            177.7333840

- temperature:       900.0000000
  free_energy:      -446.8753518
  entropy:           696.2249936
  heat_capacity:     199.3776237
  energy:            179.7271424

- temperature:       910.0000000
  free_energy:      -453.8486376
  entropy:           698.4281030
  heat_capacity:     199.3811091
  energy:            181.7209361

- temperature:       920.0000000
  free_energy:      -460.8438338
  entropy:           700.6071717
  heat_capacity:     199.3844817
  energy:            183.7147642

- temperature:       930.0000000
  free_energy:      -467.8607026
  entropy:           702.7627183
  heat_capacity:     199.3877461
  energy:            185.7086254

- temperature:       940.0000000
  free_energy:      -474.8990114
  entropy:           704.8952448
  heat_capacity:     199.3909069
  energy:            187.7025187

- temperature:       950.0000000
  free_energy:      -481.9585324
  entropy:           707.0052375
  heat_capacity:     199.3939686
  energy:            189.6964432

- temperature:       960.0000000
  free_energy:      -489.0390426
  entropy:           709.0931671
  heat_capacity:     199.3969351
  energy:            191.6903978

- temperature:       970.0000000
  free_energy:      -496.1403237
  entropy:           711.1594900
  heat_capacity:     199.3998105
  energy:            193.6843816

- temperature:       980.0000000
  free_energy:      -503.2621619
  entropy:           713.2046486
  heat_capacity:     199.4025983
  energy:            195.6783937

- temperature:       990.0000000
  free_energy:      -510.4043476
  entropy:           715.2290716
  heat_capacity:     199.4053021
  energy:            197.6724333

- temperature:      1000.0000000
  free_energy:      -517.5666756
  entropy:           717.2331751
  heat_capacity:     199.4079253
  energy:            199.6664995
