phonopy:
  version: "2.37.1"
  frequency_unit_conversion_factor: 15.633302
  symmetry_tolerance: 1.00000e-05

space_group:
  type: "Pm-3m"
  number: 221
  Hall_symbol: "-P 4 2 3"

primitive_matrix:
- [  1.000000000000000,  0.000000000000000,  0.000000000000000 ]
- [  0.000000000000000,  1.000000000000000, -0.000000000000000 ]
- [  0.000000000000000,  0.000000000000000,  1.000000000000000 ]

supercell_matrix:
- [   3,   0,   0 ]
- [   0,   3,   0 ]
- [   0,   0,   3 ]

primitive_cell:
  lattice:
  - [     4.653283546052792,     0.000000000000000,     0.000000000000000 ] # a
  - [     0.000000008368730,     4.653283608688509,     0.000000000000000 ] # b
  - [     0.000000011058313,     0.000000031363262,     4.653283553655475 ] # c
  points:
  - symbol: Li # 1
    coordinates: [  0.999999999977374,  0.000000000071400,  0.999999999821270 ]
    mass: 6.940000
  - symbol: Sn # 2
    coordinates: [  0.999999999565128,  0.499999999990369,  0.499999999976744 ]
    mass: 118.710000
  - symbol: Sn # 3
    coordinates: [  0.500000000079115,  0.000000000620401,  0.500000000377063 ]
    mass: 118.710000
  - symbol: Sn # 4
    coordinates: [  0.500000000316193,  0.499999999340435,  0.999999999848753 ]
    mass: 118.710000
  reciprocal_lattice: # without 2pi
  - [     0.214902012762206,    -0.000000000386492,    -0.000000000510705 ] # a*
  - [     0.000000000000000,     0.214902009869508,    -0.000000001448446 ] # b*
  - [     0.000000000000000,     0.000000000000000,     0.214902012411092 ] # c*

unit_cell:
  lattice:
  - [     4.653283546052793,     0.000000000000000,     0.000000000000000 ] # a
  - [     0.000000008368730,     4.653283608688510,     0.000000000000000 ] # b
  - [     0.000000011058313,     0.000000031363262,     4.653283553655475 ] # c
  points:
  - symbol: Li # 1
    coordinates: [  0.999999999977374,  0.000000000071400,  0.999999999821270 ]
    mass: 6.940000
    reduced_to: 1
  - symbol: Sn # 2
    coordinates: [  0.999999999565128,  0.499999999990369,  0.499999999976744 ]
    mass: 118.710000
    reduced_to: 2
  - symbol: Sn # 3
    coordinates: [  0.500000000079115,  0.000000000620401,  0.500000000377063 ]
    mass: 118.710000
    reduced_to: 3
  - symbol: Sn # 4
    coordinates: [  0.500000000316193,  0.499999999340435,  0.999999999848753 ]
    mass: 118.710000
    reduced_to: 4

supercell:
  lattice:
  - [    13.959850638158379,     0.000000000000000,     0.000000000000000 ] # a
  - [     0.000000025106191,    13.959850826065530,     0.000000000000000 ] # b
  - [     0.000000033174940,     0.000000094089786,    13.959850660966426 ] # c
  points:
  - symbol: Li # 1
    coordinates: [  0.333333333325791,  0.000000000023800,  0.333333333273757 ]
    mass: 6.940000
    reduced_to: 1
  - symbol: Li # 2
    coordinates: [  0.666666666659125,  0.000000000023800,  0.333333333273757 ]
    mass: 6.940000
    reduced_to: 1
  - symbol: Li # 3
    coordinates: [  0.999999999992458,  0.000000000023800,  0.333333333273757 ]
    mass: 6.940000
    reduced_to: 1
  - symbol: Li # 4
    coordinates: [  0.333333333325791,  0.333333333357133,  0.333333333273757 ]
    mass: 6.940000
    reduced_to: 1
  - symbol: Li # 5
    coordinates: [  0.666666666659125,  0.333333333357133,  0.333333333273757 ]
    mass: 6.940000
    reduced_to: 1
  - symbol: Li # 6
    coordinates: [  0.999999999992458,  0.333333333357133,  0.333333333273757 ]
    mass: 6.940000
    reduced_to: 1
  - symbol: Li # 7
    coordinates: [  0.333333333325791,  0.666666666690467,  0.333333333273757 ]
    mass: 6.940000
    reduced_to: 1
  - symbol: Li # 8
    coordinates: [  0.666666666659125,  0.666666666690467,  0.333333333273757 ]
    mass: 6.940000
    reduced_to: 1
  - symbol: Li # 9
    coordinates: [  0.999999999992458,  0.666666666690467,  0.333333333273757 ]
    mass: 6.940000
    reduced_to: 1
  - symbol: Li # 10
    coordinates: [  0.333333333325791,  0.000000000023800,  0.666666666607090 ]
    mass: 6.940000
    reduced_to: 1
  - symbol: Li # 11
    coordinates: [  0.666666666659125,  0.000000000023800,  0.666666666607090 ]
    mass: 6.940000
    reduced_to: 1
  - symbol: Li # 12
    coordinates: [  0.999999999992458,  0.000000000023800,  0.666666666607090 ]
    mass: 6.940000
    reduced_to: 1
  - symbol: Li # 13
    coordinates: [  0.333333333325791,  0.333333333357133,  0.666666666607090 ]
    mass: 6.940000
    reduced_to: 1
  - symbol: Li # 14
    coordinates: [  0.666666666659125,  0.333333333357133,  0.666666666607090 ]
    mass: 6.940000
    reduced_to: 1
  - symbol: Li # 15
    coordinates: [  0.999999999992458,  0.333333333357133,  0.666666666607090 ]
    mass: 6.940000
    reduced_to: 1
  - symbol: Li # 16
    coordinates: [  0.333333333325791,  0.666666666690467,  0.666666666607090 ]
    mass: 6.940000
    reduced_to: 1
  - symbol: Li # 17
    coordinates: [  0.666666666659125,  0.666666666690467,  0.666666666607090 ]
    mass: 6.940000
    reduced_to: 1
  - symbol: Li # 18
    coordinates: [  0.999999999992458,  0.666666666690467,  0.666666666607090 ]
    mass: 6.940000
    reduced_to: 1
  - symbol: Li # 19
    coordinates: [  0.333333333325791,  0.000000000023800,  0.999999999940423 ]
    mass: 6.940000
    reduced_to: 1
  - symbol: Li # 20
    coordinates: [  0.666666666659125,  0.000000000023800,  0.999999999940423 ]
    mass: 6.940000
    reduced_to: 1
  - symbol: Li # 21
    coordinates: [  0.999999999992458,  0.000000000023800,  0.999999999940423 ]
    mass: 6.940000
    reduced_to: 1
  - symbol: Li # 22
    coordinates: [  0.333333333325791,  0.333333333357133,  0.999999999940423 ]
    mass: 6.940000
    reduced_to: 1
  - symbol: Li # 23
    coordinates: [  0.666666666659125,  0.333333333357133,  0.999999999940423 ]
    mass: 6.940000
    reduced_to: 1
  - symbol: Li # 24
    coordinates: [  0.999999999992458,  0.333333333357133,  0.999999999940423 ]
    mass: 6.940000
    reduced_to: 1
  - symbol: Li # 25
    coordinates: [  0.333333333325791,  0.666666666690467,  0.999999999940423 ]
    mass: 6.940000
    reduced_to: 1
  - symbol: Li # 26
    coordinates: [  0.666666666659125,  0.666666666690467,  0.999999999940423 ]
    mass: 6.940000
    reduced_to: 1
  - symbol: Li # 27
    coordinates: [  0.999999999992458,  0.666666666690467,  0.999999999940423 ]
    mass: 6.940000
    reduced_to: 1
  - symbol: Sn # 28
    coordinates: [  0.333333333188376,  0.166666666663456,  0.166666666658915 ]
    mass: 118.710000
    reduced_to: 28
  - symbol: Sn # 29
    coordinates: [  0.666666666521709,  0.166666666663456,  0.166666666658915 ]
    mass: 118.710000
    reduced_to: 28
  - symbol: Sn # 30
    coordinates: [  0.999999999855043,  0.166666666663456,  0.166666666658915 ]
    mass: 118.710000
    reduced_to: 28
  - symbol: Sn # 31
    coordinates: [  0.333333333188376,  0.499999999996790,  0.166666666658915 ]
    mass: 118.710000
    reduced_to: 28
  - symbol: Sn # 32
    coordinates: [  0.666666666521709,  0.499999999996790,  0.166666666658915 ]
    mass: 118.710000
    reduced_to: 28
  - symbol: Sn # 33
    coordinates: [  0.999999999855043,  0.499999999996790,  0.166666666658915 ]
    mass: 118.710000
    reduced_to: 28
  - symbol: Sn # 34
    coordinates: [  0.333333333188376,  0.833333333330123,  0.166666666658915 ]
    mass: 118.710000
    reduced_to: 28
  - symbol: Sn # 35
    coordinates: [  0.666666666521709,  0.833333333330123,  0.166666666658915 ]
    mass: 118.710000
    reduced_to: 28
  - symbol: Sn # 36
    coordinates: [  0.999999999855043,  0.833333333330123,  0.166666666658915 ]
    mass: 118.710000
    reduced_to: 28
  - symbol: Sn # 37
    coordinates: [  0.333333333188376,  0.166666666663456,  0.499999999992248 ]
    mass: 118.710000
    reduced_to: 28
  - symbol: Sn # 38
    coordinates: [  0.666666666521709,  0.166666666663456,  0.499999999992248 ]
    mass: 118.710000
    reduced_to: 28
  - symbol: Sn # 39
    coordinates: [  0.999999999855043,  0.166666666663456,  0.499999999992248 ]
    mass: 118.710000
    reduced_to: 28
  - symbol: Sn # 40
    coordinates: [  0.333333333188376,  0.499999999996790,  0.499999999992248 ]
    mass: 118.710000
    reduced_to: 28
  - symbol: Sn # 41
    coordinates: [  0.666666666521709,  0.499999999996790,  0.499999999992248 ]
    mass: 118.710000
    reduced_to: 28
  - symbol: Sn # 42
    coordinates: [  0.999999999855043,  0.499999999996790,  0.499999999992248 ]
    mass: 118.710000
    reduced_to: 28
  - symbol: Sn # 43
    coordinates: [  0.333333333188376,  0.833333333330123,  0.499999999992248 ]
    mass: 118.710000
    reduced_to: 28
  - symbol: Sn # 44
    coordinates: [  0.666666666521709,  0.833333333330123,  0.499999999992248 ]
    mass: 118.710000
    reduced_to: 28
  - symbol: Sn # 45
    coordinates: [  0.999999999855043,  0.833333333330123,  0.499999999992248 ]
    mass: 118.710000
    reduced_to: 28
  - symbol: Sn # 46
    coordinates: [  0.333333333188376,  0.166666666663456,  0.833333333325581 ]
    mass: 118.710000
    reduced_to: 28
  - symbol: Sn # 47
    coordinates: [  0.666666666521709,  0.166666666663456,  0.833333333325581 ]
    mass: 118.710000
    reduced_to: 28
  - symbol: Sn # 48
    coordinates: [  0.999999999855043,  0.166666666663456,  0.833333333325581 ]
    mass: 118.710000
    reduced_to: 28
  - symbol: Sn # 49
    coordinates: [  0.333333333188376,  0.499999999996790,  0.833333333325581 ]
    mass: 118.710000
    reduced_to: 28
  - symbol: Sn # 50
    coordinates: [  0.666666666521709,  0.499999999996790,  0.833333333325581 ]
    mass: 118.710000
    reduced_to: 28
  - symbol: Sn # 51
    coordinates: [  0.999999999855043,  0.499999999996790,  0.833333333325581 ]
    mass: 118.710000
    reduced_to: 28
  - symbol: Sn # 52
    coordinates: [  0.333333333188376,  0.833333333330123,  0.833333333325581 ]
    mass: 118.710000
    reduced_to: 28
  - symbol: Sn # 53
    coordinates: [  0.666666666521709,  0.833333333330123,  0.833333333325581 ]
    mass: 118.710000
    reduced_to: 28
  - symbol: Sn # 54
    coordinates: [  0.999999999855043,  0.833333333330123,  0.833333333325581 ]
    mass: 118.710000
    reduced_to: 28
  - symbol: Sn # 55
    coordinates: [  0.166666666693038,  0.000000000206800,  0.166666666792354 ]
    mass: 118.710000
    reduced_to: 55
  - symbol: Sn # 56
    coordinates: [  0.500000000026372,  0.000000000206800,  0.166666666792354 ]
    mass: 118.710000
    reduced_to: 55
  - symbol: Sn # 57
    coordinates: [  0.833333333359705,  0.000000000206800,  0.166666666792354 ]
    mass: 118.710000
    reduced_to: 55
  - symbol: Sn # 58
    coordinates: [  0.166666666693038,  0.333333333540134,  0.166666666792354 ]
    mass: 118.710000
    reduced_to: 55
  - symbol: Sn # 59
    coordinates: [  0.500000000026372,  0.333333333540134,  0.166666666792354 ]
    mass: 118.710000
    reduced_to: 55
  - symbol: Sn # 60
    coordinates: [  0.833333333359705,  0.333333333540134,  0.166666666792354 ]
    mass: 118.710000
    reduced_to: 55
  - symbol: Sn # 61
    coordinates: [  0.166666666693038,  0.666666666873467,  0.166666666792354 ]
    mass: 118.710000
    reduced_to: 55
  - symbol: Sn # 62
    coordinates: [  0.500000000026372,  0.666666666873467,  0.166666666792354 ]
    mass: 118.710000
    reduced_to: 55
  - symbol: Sn # 63
    coordinates: [  0.833333333359705,  0.666666666873467,  0.166666666792354 ]
    mass: 118.710000
    reduced_to: 55
  - symbol: Sn # 64
    coordinates: [  0.166666666693038,  0.000000000206800,  0.500000000125687 ]
    mass: 118.710000
    reduced_to: 55
  - symbol: Sn # 65
    coordinates: [  0.500000000026372,  0.000000000206800,  0.500000000125687 ]
    mass: 118.710000
    reduced_to: 55
  - symbol: Sn # 66
    coordinates: [  0.833333333359705,  0.000000000206800,  0.500000000125687 ]
    mass: 118.710000
    reduced_to: 55
  - symbol: Sn # 67
    coordinates: [  0.166666666693038,  0.333333333540134,  0.500000000125687 ]
    mass: 118.710000
    reduced_to: 55
  - symbol: Sn # 68
    coordinates: [  0.500000000026372,  0.333333333540134,  0.500000000125687 ]
    mass: 118.710000
    reduced_to: 55
  - symbol: Sn # 69
    coordinates: [  0.833333333359705,  0.333333333540134,  0.500000000125687 ]
    mass: 118.710000
    reduced_to: 55
  - symbol: Sn # 70
    coordinates: [  0.166666666693038,  0.666666666873467,  0.500000000125687 ]
    mass: 118.710000
    reduced_to: 55
  - symbol: Sn # 71
    coordinates: [  0.500000000026372,  0.666666666873467,  0.500000000125687 ]
    mass: 118.710000
    reduced_to: 55
  - symbol: Sn # 72
    coordinates: [  0.833333333359705,  0.666666666873467,  0.500000000125687 ]
    mass: 118.710000
    reduced_to: 55
  - symbol: Sn # 73
    coordinates: [  0.166666666693038,  0.000000000206800,  0.833333333459021 ]
    mass: 118.710000
    reduced_to: 55
  - symbol: Sn # 74
    coordinates: [  0.500000000026372,  0.000000000206800,  0.833333333459021 ]
    mass: 118.710000
    reduced_to: 55
  - symbol: Sn # 75
    coordinates: [  0.833333333359705,  0.000000000206800,  0.833333333459021 ]
    mass: 118.710000
    reduced_to: 55
  - symbol: Sn # 76
    coordinates: [  0.166666666693038,  0.333333333540134,  0.833333333459021 ]
    mass: 118.710000
    reduced_to: 55
  - symbol: Sn # 77
    coordinates: [  0.500000000026372,  0.333333333540134,  0.833333333459021 ]
    mass: 118.710000
    reduced_to: 55
  - symbol: Sn # 78
    coordinates: [  0.833333333359705,  0.333333333540134,  0.833333333459021 ]
    mass: 118.710000
    reduced_to: 55
  - symbol: Sn # 79
    coordinates: [  0.166666666693038,  0.666666666873467,  0.833333333459021 ]
    mass: 118.710000
    reduced_to: 55
  - symbol: Sn # 80
    coordinates: [  0.500000000026372,  0.666666666873467,  0.833333333459021 ]
    mass: 118.710000
    reduced_to: 55
  - symbol: Sn # 81
    coordinates: [  0.833333333359705,  0.666666666873467,  0.833333333459021 ]
    mass: 118.710000
    reduced_to: 55
  - symbol: Sn # 82
    coordinates: [  0.166666666772064,  0.166666666446812,  0.333333333282918 ]
    mass: 118.710000
    reduced_to: 82
  - symbol: Sn # 83
    coordinates: [  0.500000000105398,  0.166666666446812,  0.333333333282918 ]
    mass: 118.710000
    reduced_to: 82
  - symbol: Sn # 84
    coordinates: [  0.833333333438731,  0.166666666446812,  0.333333333282918 ]
    mass: 118.710000
    reduced_to: 82
  - symbol: Sn # 85
    coordinates: [  0.166666666772064,  0.499999999780145,  0.333333333282918 ]
    mass: 118.710000
    reduced_to: 82
  - symbol: Sn # 86
    coordinates: [  0.500000000105398,  0.499999999780145,  0.333333333282918 ]
    mass: 118.710000
    reduced_to: 82
  - symbol: Sn # 87
    coordinates: [  0.833333333438731,  0.499999999780145,  0.333333333282918 ]
    mass: 118.710000
    reduced_to: 82
  - symbol: Sn # 88
    coordinates: [  0.166666666772064,  0.833333333113478,  0.333333333282918 ]
    mass: 118.710000
    reduced_to: 82
  - symbol: Sn # 89
    coordinates: [  0.500000000105398,  0.833333333113478,  0.333333333282918 ]
    mass: 118.710000
    reduced_to: 82
  - symbol: Sn # 90
    coordinates: [  0.833333333438731,  0.833333333113478,  0.333333333282918 ]
    mass: 118.710000
    reduced_to: 82
  - symbol: Sn # 91
    coordinates: [  0.166666666772064,  0.166666666446812,  0.666666666616251 ]
    mass: 118.710000
    reduced_to: 82
  - symbol: Sn # 92
    coordinates: [  0.500000000105398,  0.166666666446812,  0.666666666616251 ]
    mass: 118.710000
    reduced_to: 82
  - symbol: Sn # 93
    coordinates: [  0.833333333438731,  0.166666666446812,  0.666666666616251 ]
    mass: 118.710000
    reduced_to: 82
  - symbol: Sn # 94
    coordinates: [  0.166666666772064,  0.499999999780145,  0.666666666616251 ]
    mass: 118.710000
    reduced_to: 82
  - symbol: Sn # 95
    coordinates: [  0.500000000105398,  0.499999999780145,  0.666666666616251 ]
    mass: 118.710000
    reduced_to: 82
  - symbol: Sn # 96
    coordinates: [  0.833333333438731,  0.499999999780145,  0.666666666616251 ]
    mass: 118.710000
    reduced_to: 82
  - symbol: Sn # 97
    coordinates: [  0.166666666772064,  0.833333333113478,  0.666666666616251 ]
    mass: 118.710000
    reduced_to: 82
  - symbol: Sn # 98
    coordinates: [  0.500000000105398,  0.833333333113478,  0.666666666616251 ]
    mass: 118.710000
    reduced_to: 82
  - symbol: Sn # 99
    coordinates: [  0.833333333438731,  0.833333333113478,  0.666666666616251 ]
    mass: 118.710000
    reduced_to: 82
  - symbol: Sn # 100
    coordinates: [  0.166666666772064,  0.166666666446812,  0.999999999949584 ]
    mass: 118.710000
    reduced_to: 82
  - symbol: Sn # 101
    coordinates: [  0.500000000105398,  0.166666666446812,  0.999999999949584 ]
    mass: 118.710000
    reduced_to: 82
  - symbol: Sn # 102
    coordinates: [  0.833333333438731,  0.166666666446812,  0.999999999949584 ]
    mass: 118.710000
    reduced_to: 82
  - symbol: Sn # 103
    coordinates: [  0.166666666772064,  0.499999999780145,  0.999999999949584 ]
    mass: 118.710000
    reduced_to: 82
  - symbol: Sn # 104
    coordinates: [  0.500000000105398,  0.499999999780145,  0.999999999949584 ]
    mass: 118.710000
    reduced_to: 82
  - symbol: Sn # 105
    coordinates: [  0.833333333438731,  0.499999999780145,  0.999999999949584 ]
    mass: 118.710000
    reduced_to: 82
  - symbol: Sn # 106
    coordinates: [  0.166666666772064,  0.833333333113478,  0.999999999949584 ]
    mass: 118.710000
    reduced_to: 82
  - symbol: Sn # 107
    coordinates: [  0.500000000105398,  0.833333333113478,  0.999999999949584 ]
    mass: 118.710000
    reduced_to: 82
  - symbol: Sn # 108
    coordinates: [  0.833333333438731,  0.833333333113478,  0.999999999949584 ]
    mass: 118.710000
    reduced_to: 82

displacements:
- atom:    1
  displacement:
    [   0.0100000000000000,  0.0000000000000000,  0.0000000000000000 ]
  forces:
  - [  -0.0102824755012989, -0.0000013368735381,  0.0000003214227036 ]
  - [   0.0002848501317203,  0.0000004051653093, -0.0000006607442629 ]
  - [   0.0002767373807728, -0.0000008362876542, -0.0000001259031706 ]
  - [  -0.0002704858779907,  0.0000006621703506, -0.0000000965665095 ]
  - [  -0.0002694935537875, -0.0002481294795871, -0.0000010429939721 ]
  - [  -0.0002640485763550,  0.0002432074397802, -0.0000003703462426 ]
  - [  -0.0002697422169149,  0.0000006956979632,  0.0000003659224603 ]
  - [  -0.0002692001871765,  0.0002477085217834, -0.0000003252353054 ]
  - [  -0.0002643764019012, -0.0002420693635941,  0.0000002885353751 ]
  - [  -0.0002709897235036,  0.0000006547597877,  0.0000001219741534 ]
  - [  -0.0002696649171412,  0.0000023385910026, -0.0002479495306034 ]
  - [  -0.0002629491500556,  0.0000010598851077,  0.0002428563893773 ]
  - [  -0.0000103544443846,  0.0000003306195140,  0.0000006143818609 ]
  - [   0.0000073551200330,  0.0000161565840244,  0.0000170569110196 ]
  - [   0.0000089979730546, -0.0000179233029485, -0.0000175862223841 ]
  - [  -0.0000096857547760, -0.0000006249174476,  0.0000006775662769 ]
  - [   0.0000075520947576, -0.0000182725489140,  0.0000171796418726 ]
  - [   0.0000086324289441,  0.0000170590355992, -0.0000173264415935 ]
  - [  -0.0002705263905227, -0.0000007832022675, -0.0000000743020792 ]
  - [  -0.0002695946022868,  0.0000010254261724,  0.0002492528874427 ]
  - [  -0.0002637924626470, -0.0000004088105925, -0.0002422752731945 ]
  - [  -0.0000096959993243,  0.0000009741634130, -0.0000003144814400 ]
  - [   0.0000073583796620,  0.0000167964026332, -0.0000158725597430 ]
  - [   0.0000082636252046, -0.0000172238796949,  0.0000180957431439 ]
  - [  -0.0000091912224889,  0.0000000987201929, -0.0000006979244063 ]
  - [   0.0000076051801443, -0.0000175703316927, -0.0000161416683113 ]
  - [   0.0000077728182077,  0.0000178450718522,  0.0000176002504304 ]
  - [  -0.0002553220838308, -0.0000057037395891,  0.0000058831647038 ]
  - [   0.0000262530520558,  0.0000092762929853, -0.0000095367431641 ]
  - [   0.0000260053202510, -0.0000104940263554,  0.0000104540959001 ]
  - [  -0.0000010821968317, -0.0000011718366295,  0.0000006733462214 ]
  - [   0.0000005597248673, -0.0000005600741133,  0.0000039311125875 ]
  - [   0.0000006780028343, -0.0000010548683349, -0.0000032046809793 ]
  - [  -0.0002537462860346,  0.0000055911368690,  0.0000059809535742 ]
  - [   0.0000265156850219, -0.0000095976283774, -0.0000092089176178 ]
  - [   0.0000250730663538,  0.0000102729536593,  0.0000106971710920 ]
  - [  -0.0002545751631260, -0.0000055744021665, -0.0000046845525503 ]
  - [   0.0000261757522821,  0.0000095293216873,  0.0000107623636723 ]
  - [   0.0000255759805441, -0.0000102548510768, -0.0000093476846814 ]
  - [  -0.0000003287568688, -0.0000002344313543, -0.0000002775341272 ]
  - [   0.0000004991889000,  0.0000001628650352, -0.0000032847747207 ]
  - [   0.0000000540167093,  0.0000000693835318,  0.0000035436823964 ]
  - [  -0.0002530422061682,  0.0000053866533563, -0.0000064000487328 ]
  - [   0.0000265967100859, -0.0000096198346000,  0.0000087376683950 ]
  - [   0.0000244965776801,  0.0000102863996290, -0.0000114925205708 ]
  - [  -0.0000013299286366, -0.0000001132721081, -0.0000008540228009 ]
  - [   0.0000004125759006, -0.0000035914708860, -0.0000014109537005 ]
  - [   0.0000009723007679,  0.0000036495330278, -0.0000011324882507 ]
  - [   0.0000202106311917,  0.0000001638545655, -0.0000005811452866 ]
  - [  -0.0000096168369055,  0.0000005719775800, -0.0000010132789612 ]
  - [  -0.0000100955367088,  0.0000000527361408, -0.0000007562339306 ]
  - [   0.0000001229345798,  0.0000003299792297, -0.0000000800937414 ]
  - [   0.0000008251518011,  0.0000035473785829, -0.0000004395842552 ]
  - [  -0.0000002551823854, -0.0000035507546272, -0.0000000344589353 ]
  - [   0.0017099729739130,  0.0000007146790040,  0.0018342947587371 ]
  - [   0.0017412038287148, -0.0000000843403924, -0.0018811048939824 ]
  - [  -0.0000023104075808, -0.0000000819819661,  0.0000004302710295 ]
  - [  -0.0000203867675737,  0.0000158157199621,  0.0000128617975861 ]
  - [  -0.0000211256265175, -0.0000161938369274, -0.0000103141937871 ]
  - [   0.0000329017348122,  0.0000001154839993,  0.0000005393230822 ]
  - [  -0.0000204459065571, -0.0000156965106726,  0.0000131254782900 ]
  - [  -0.0000206880213227,  0.0000167917460203, -0.0000105017970782 ]
  - [   0.0000323601125274,  0.0000003203749657,  0.0000003487803042 ]
  - [   0.0017102059209719, -0.0000000225198100, -0.0018333336338401 ]
  - [   0.0017403813544661, -0.0000008010184729,  0.0018812259659171 ]
  - [  -0.0000020288280211, -0.0000009210455119, -0.0000002505257726 ]
  - [  -0.0000204548414331,  0.0000161025673151, -0.0000120326876640 ]
  - [  -0.0000215756299440, -0.0000158902257681,  0.0000107510131784 ]
  - [   0.0000331361079589,  0.0000004041939974, -0.0000004562607501 ]
  - [  -0.0000205226533581, -0.0000156965106726, -0.0000118240714073 ]
  - [  -0.0000213218736462,  0.0000169053673744,  0.0000110636174213 ]
  - [   0.0000327966990881,  0.0000004321336746, -0.0000001382722985 ]
  - [   0.0000062780163717, -0.0000000750552402, -0.0000009834766388 ]
  - [   0.0000055682612583, -0.0000009422913649, -0.0000007273629308 ]
  - [  -0.0000123109202832, -0.0000009275648267, -0.0000007832422853 ]
  - [   0.0000027027272154, -0.0000328179448843, -0.0000009573996067 ]
  - [   0.0000022014719434,  0.0000335816293955, -0.0000006246264093 ]
  - [  -0.0000054660486057,  0.0000004693865776, -0.0000006327754818 ]
  - [   0.0000024797918741,  0.0000333711504936, -0.0000012293457985 ]
  - [   0.0000024440523703, -0.0000328160822392, -0.0000009038194548 ]
  - [  -0.0000054498668760,  0.0000005252659321, -0.0000010619987734 ]
  - [   0.0017101159319282, -0.0018339930102229, -0.0000014472752810 ]
  - [   0.0017411010339856,  0.0018811924383044, -0.0000007056514733 ]
  - [  -0.0000022361055017, -0.0000000875443220, -0.0000006749469321 ]
  - [   0.0000062482431531, -0.0000011520460248, -0.0000002728775144 ]
  - [   0.0000055683776736, -0.0000002179294825,  0.0000002862943802 ]
  - [  -0.0000120801851153,  0.0000001639127731,  0.0000003499153536 ]
  - [   0.0017098831012845,  0.0018336381763220,  0.0000000614672899 ]
  - [   0.0017390260472894, -0.0018808887107298,  0.0000009275972843 ]
  - [  -0.0000011604279280,  0.0000003346358426,  0.0000010095536709 ]
  - [  -0.0000206744298339, -0.0000127013772726,  0.0000162115320563 ]
  - [  -0.0000203661620617,  0.0000106906518340, -0.0000162803917192 ]
  - [   0.0000322982668877, -0.0000002738088369,  0.0000002020969987 ]
  - [   0.0000025006011128, -0.0000006742775440, -0.0000325832515955 ]
  - [   0.0000025164335966,  0.0000004656612873,  0.0000336418743245 ]
  - [  -0.0000057173892856,  0.0000008698552847,  0.0000004270114005 ]
  - [  -0.0000207396224141,  0.0000125393271446,  0.0000166175886989 ]
  - [  -0.0000220723450184, -0.0000105750514194, -0.0000159423798323 ]
  - [   0.0000332118943334,  0.0000001321313903,  0.0000007245689631 ]
  - [  -0.0000206157565117, -0.0000126520171762, -0.0000153174623847 ]
  - [  -0.0000206017866731,  0.0000105844810605,  0.0000168359256350 ]
  - [   0.0000325273722410, -0.0000001275911927,  0.0000005762558430 ]
  - [   0.0000025974586606, -0.0000013317912817,  0.0000331243500113 ]
  - [   0.0000022137537599,  0.0000000223517418, -0.0000335318036377 ]
  - [  -0.0000051939859986,  0.0000002048909664, -0.0000001551234163 ]
  - [  -0.0000204425305128,  0.0000126361846924, -0.0000164341181517 ]
  - [  -0.0000226004049182, -0.0000106789811980,  0.0000157114118338 ]
  - [   0.0000336375087500,  0.0000001663283911, -0.0000006295740604 ]
- atom:   28
  displacement:
    [   0.0070710677706338,  0.0070710678530972,  0.0000000000000000 ]
  forces:
  - [  -0.0001742793247104,  0.0012085158377886, -0.0012978764716536 ]
  - [   0.0000108163803816, -0.0000027855458029, -0.0000207286211662 ]
  - [   0.0000266511924565, -0.0000270381169685,  0.0000018189894035 ]
  - [  -0.0001846849918365,  0.0012301439419389,  0.0013285198947415 ]
  - [   0.0000236369669437, -0.0000271499156952, -0.0000055817945395 ]
  - [   0.0000117025338113, -0.0000033807009459,  0.0000192083534785 ]
  - [   0.0000001601874828,  0.0000000707805157,  0.0000007309427019 ]
  - [   0.0000005592592061,  0.0000238558277488,  0.0000230778532568 ]
  - [  -0.0000000461004674,  0.0000242628157139, -0.0000232303573284 ]
  - [  -0.0000012731179595,  0.0000047609610192,  0.0000001112639438 ]
  - [   0.0000029364600778, -0.0000193789201148, -0.0000002485467121 ]
  - [  -0.0000011431984603,  0.0000259634507529, -0.0000000587024260 ]
  - [  -0.0000013825483620,  0.0000037197023630,  0.0000000169675332 ]
  - [  -0.0000025695189834,  0.0000239387154579, -0.0000002083834261 ]
  - [   0.0000042491592467, -0.0000223135575652, -0.0000001034932211 ]
  - [   0.0000137635506690, -0.0000083371996880,  0.0000001589942258 ]
  - [  -0.0000069285742939, -0.0000043176114559, -0.0000000410364009 ]
  - [  -0.0000060144811869, -0.0000034924596548,  0.0000000580912456 ]
  - [  -0.0001745568588376,  0.0012088883668184,  0.0012979770544916 ]
  - [   0.0000107279047370, -0.0000023860084184,  0.0000213122984860 ]
  - [   0.0000270130112767, -0.0000265976013907, -0.0000013975659385 ]
  - [  -0.0001849038526416,  0.0012300163507462, -0.0013284308370203 ]
  - [   0.0000235037878156, -0.0000273920595646,  0.0000061148166424 ]
  - [   0.0000120899640024, -0.0000035893172026, -0.0000188932754099 ]
  - [  -0.0000002058222890, -0.0000002579763532, -0.0000002478773240 ]
  - [   0.0000003408640623,  0.0000236043706536, -0.0000222638482228 ]
  - [   0.0000003394670784,  0.0000239731743932,  0.0000236355117522 ]
  - [  -0.0135000189766288, -0.0106339100748301,  0.0000006100162864 ]
  - [  -0.0000415025278926, -0.0000442130549345, -0.0000001080334187 ]
  - [  -0.0000335685908794, -0.0000523206617800, -0.0000000288709998 ]
  - [   0.0000058924779296,  0.0000131572596729,  0.0000002682209015 ]
  - [   0.0005293935537338,  0.0005566457402892,  0.0000000465661287 ]
  - [  -0.0000247824937105,  0.0000022830499802,  0.0000002244487405 ]
  - [   0.0000003492459655,  0.0000202432274818,  0.0000004321336746 ]
  - [  -0.0000251932069659,  0.0000031029630918,  0.0000002346932888 ]
  - [   0.0005174800753593,  0.0005471359472722,  0.0000003073364496 ]
  - [   0.0000022565945983,  0.0000369169283658, -0.0000037932768464 ]
  - [   0.0002505537122488,  0.0000267966825049,  0.0002765078097582 ]
  - [   0.0002481304109097,  0.0000262992980424, -0.0002726651728153 ]
  - [  -0.0000121863558888, -0.0000812169164419, -0.0000692717730999 ]
  - [  -0.0000042347237468, -0.0000203601957764, -0.0000273073092103 ]
  - [   0.0000160671770573,  0.0000000027939677, -0.0000070985406637 ]
  - [  -0.0000106859952211, -0.0000794574152678,  0.0000670906156301 ]
  - [   0.0000162925571203,  0.0000001840817276,  0.0000060647726059 ]
  - [  -0.0000056494027376, -0.0000204194802791,  0.0000265156850219 ]
  - [   0.0000025266781449,  0.0000371078785975,  0.0000038212165236 ]
  - [   0.0002506868913770,  0.0000270657474175, -0.0002766940742731 ]
  - [   0.0002478389069438,  0.0000262257235590,  0.0002724137157202 ]
  - [  -0.0000120233744383, -0.0000809576013125,  0.0000687455758452 ]
  - [  -0.0000040484592319, -0.0000200455833692,  0.0000267960131168 ]
  - [   0.0000159591436386,  0.0000002790766302,  0.0000063367187977 ]
  - [  -0.0000105518847704, -0.0000794478110038, -0.0000682044774294 ]
  - [   0.0000163661316037,  0.0000000810250640, -0.0000070873647928 ]
  - [  -0.0000056475400925, -0.0000200601061806, -0.0000274693593383 ]
  - [   0.0030237296596169,  0.0036781146191061,  0.0000002468004823 ]
  - [   0.0001451465359423, -0.0005106012104079,  0.0000002142041922 ]
  - [  -0.0001658671826590, -0.0000013233184291,  0.0000002421438694 ]
  - [   0.0001505828986410, -0.0005193650722504,  0.0000003990717232 ]
  - [   0.0032215313985944,  0.0038909204304218,  0.0000003050372470 ]
  - [  -0.0001658148248680, -0.0000002421438694,  0.0000002552696969 ]
  - [  -0.0000011391239241, -0.0001650322228670,  0.0000001807929948 ]
  - [   0.0000009853974916, -0.0001641046255827, -0.0000000114378054 ]