# Thermal properties / unit cell (natom)

unit:
  temperature:   K
  free_energy:   kJ/mol
  entropy:       J/K/mol
  heat_capacity: J/K/mol

natom: 11   
cutoff_frequency: 0.00000
num_modes: 580008
num_integrated_modes: 580008

zero_point_energy:      45.5477288

thermal_properties:
- temperature:         0.0000000
  free_energy:        45.5477288
  entropy:             0.0000000
  heat_capacity:       0.0000000
  energy:             45.5477288

- temperature:        10.0000000
  free_energy:        45.5469229
  entropy:             0.2933600
  heat_capacity:       1.0393071
  energy:             45.5498565

- temperature:        20.0000000
  free_energy:        45.5304936
  entropy:             3.9656531
  heat_capacity:      13.2548765
  energy:             45.6098067

- temperature:        30.0000000
  free_energy:        45.4502167
  entropy:            12.6855401
  heat_capacity:      30.6989938
  energy:             45.8307829

- temperature:        40.0000000
  free_energy:        45.2695483
  entropy:            23.6522517
  heat_capacity:      45.9402347
  energy:             46.2156384

- temperature:        50.0000000
  free_energy:        44.9745897
  entropy:            35.4249661
  heat_capacity:      60.0284237
  energy:             46.7458380

- temperature:        60.0000000
  free_energy:        44.5597144
  entropy:            47.6055957
  heat_capacity:      74.0402821
  energy:             47.4160501

- temperature:        70.0000000
  free_energy:        44.0214952
  entropy:            60.0819026
  heat_capacity:      88.2141649
  energy:             48.2272284

- temperature:        80.0000000
  free_energy:        43.3573127
  entropy:            72.7868809
  heat_capacity:     102.3633367
  energy:             49.1802632

- temperature:        90.0000000
  free_energy:        42.5652435
  entropy:            85.6457886
  heat_capacity:     116.1745295
  energy:             50.2733644

- temperature:       100.0000000
  free_energy:        41.6441627
  entropy:            98.5749737
  heat_capacity:     129.3606261
  energy:             51.5016601

- temperature:       110.0000000
  free_energy:        40.5937886
  entropy:           111.4910703
  heat_capacity:     141.7186117
  energy:             52.8578063

- temperature:       120.0000000
  free_energy:        39.4146374
  entropy:           124.3187517
  heat_capacity:     153.1356730
  energy:             54.3328876

- temperature:       130.0000000
  free_energy:        38.1079203
  entropy:           136.9948329
  heat_capacity:     163.5731416
  energy:             55.9172486

- temperature:       140.0000000
  free_energy:        36.6754139
  entropy:           149.4693879
  heat_capacity:     173.0450337
  energy:             57.6011282

- temperature:       150.0000000
  free_energy:        35.1193301
  entropy:           161.7050432
  heat_capacity:     181.5987223
  energy:             59.3750866

- temperature:       160.0000000
  free_energy:        33.4421984
  entropy:           173.6753898
  heat_capacity:     189.3001063
  energy:             61.2302608

- temperature:       170.0000000
  free_energy:        31.6467652
  entropy:           185.3631135
  heat_capacity:     196.2232628
  energy:             63.1584945

- temperature:       180.0000000
  free_energy:        29.7359123
  entropy:           196.7581764
  heat_capacity:     202.4437321
  energy:             65.1523841

- temperature:       190.0000000
  free_energy:        27.7125923
  entropy:           207.8562015
  heat_capacity:     208.0344593
  energy:             67.2052706

- temperature:       200.0000000
  free_energy:        25.5797790
  entropy:           218.6571140
  heat_capacity:     213.0635563
  energy:             69.3112018

- temperature:       210.0000000
  free_energy:        23.3404302
  entropy:           229.1640356
  heat_capacity:     217.5932511
  energy:             71.4648777

- temperature:       220.0000000
  free_energy:        20.9974603
  entropy:           239.3824059
  heat_capacity:     221.6795779
  energy:             73.6615896

- temperature:       230.0000000
  free_energy:        18.5537205
  entropy:           249.3192960
  heat_capacity:     225.3725055
  energy:             75.8971586

- temperature:       240.0000000
  free_energy:        16.0119855
  entropy:           258.9828794
  heat_capacity:     228.7163066
  energy:             78.1678766

- temperature:       250.0000000
  free_energy:        13.3749444
  entropy:           268.3820291
  heat_capacity:     231.7500442
  energy:             80.4704517

- temperature:       260.0000000
  free_energy:        10.6451955
  entropy:           277.5260133
  heat_capacity:     234.5080972
  energy:             82.8019590

- temperature:       270.0000000
  free_energy:         7.8252432
  entropy:           286.4242688
  heat_capacity:     237.0206825
  energy:             85.1597958

- temperature:       280.0000000
  free_energy:         4.9174977
  entropy:           295.0862339
  heat_capacity:     239.3143467
  energy:             87.5416432

- temperature:       290.0000000
  free_energy:         1.9242751
  entropy:           303.5212275
  heat_capacity:     241.4124170
  energy:             89.9454311

- temperature:       300.0000000
  free_energy:        -1.1522007
  entropy:           311.7383629
  heat_capacity:     243.3354062
  energy:             92.3693082

- temperature:       310.0000000
  free_energy:        -4.3097955
  entropy:           319.7464887
  heat_capacity:     245.1013711
  energy:             94.8116160

- temperature:       320.0000000
  free_energy:        -7.5464622
  entropy:           327.5541492
  heat_capacity:     246.7262280
  energy:             97.2708655

- temperature:       330.0000000
  free_energy:       -10.8602377
  entropy:           335.1695604
  heat_capacity:     248.2240278
  energy:             99.7457173

- temperature:       340.0000000
  free_energy:       -14.2492389
  entropy:           342.6005971
  heat_capacity:     249.6071955
  energy:            102.2349641

- temperature:       350.0000000
  free_energy:       -17.7116602
  entropy:           349.8547887
  heat_capacity:     250.8867374
  energy:            104.7375159

- temperature:       360.0000000
  free_energy:       -21.2457692
  entropy:           356.9393203
  heat_capacity:     252.0724214
  energy:            107.2523861

- temperature:       370.0000000
  free_energy:       -24.8499039
  entropy:           363.8610389
  heat_capacity:     253.1729327
  energy:            109.7786805

- temperature:       380.0000000
  free_energy:       -28.5224690
  entropy:           370.6264625
  heat_capacity:     254.1960080
  energy:            112.3155867

- temperature:       390.0000000
  free_energy:       -32.2619329
  entropy:           377.2417910
  heat_capacity:     255.1485527
  energy:            114.8623656

- temperature:       400.0000000
  free_energy:       -36.0668242
  entropy:           383.7129189
  heat_capacity:     256.0367416
  energy:            117.4183433

- temperature:       410.0000000
  free_energy:       -39.9357293
  entropy:           390.0454481
  heat_capacity:     256.8661068
  energy:            119.9829045

- temperature:       420.0000000
  free_energy:       -43.8672889
  entropy:           396.2447023
  heat_capacity:     257.6416139
  energy:            122.5554860

- temperature:       430.0000000
  free_energy:       -47.8601960
  entropy:           402.3157398
  heat_capacity:     258.3677279
  energy:            125.1355721

- temperature:       440.0000000
  free_energy:       -51.9131924
  entropy:           408.2633677
  heat_capacity:     259.0484713
  energy:            127.7226894

- temperature:       450.0000000
  free_energy:       -56.0250672
  entropy:           414.0921548
  heat_capacity:     259.6874739
  energy:            130.3164025

- temperature:       460.0000000
  free_energy:       -60.1946539
  entropy:           419.8064447
  heat_capacity:     260.2880172
  energy:            132.9163107

- temperature:       470.0000000
  free_energy:       -64.4208282
  entropy:           425.4103676
  heat_capacity:     260.8530728
  energy:            135.5220446

- temperature:       480.0000000
  free_energy:       -68.7025064
  entropy:           430.9078527
  heat_capacity:     261.3853359
  energy:            138.1332629

- temperature:       490.0000000
  free_energy:       -73.0386430
  entropy:           436.3026390
  heat_capacity:     261.8872552
  energy:            140.7496501

- temperature:       500.0000000
  free_energy:       -77.4282288
  entropy:           441.5982861
  heat_capacity:     262.3610588
  energy:            143.3709143

- temperature:       510.0000000
  free_energy:       -81.8702896
  entropy:           446.7981842
  heat_capacity:     262.8087773
  energy:            145.9967844

- temperature:       520.0000000
  free_energy:       -86.3638841
  entropy:           451.9055637
  heat_capacity:     263.2322641
  energy:            148.6270091

- temperature:       530.0000000
  free_energy:       -90.9081027
  entropy:           456.9235043
  heat_capacity:     263.6332131
  energy:            151.2613546

- temperature:       540.0000000
  free_energy:       -95.5020658
  entropy:           461.8549430
  heat_capacity:     264.0131750
  energy:            153.8996034

- temperature:       550.0000000
  free_energy:      -100.1449226
  entropy:           466.7026826
  heat_capacity:     264.3735710
  energy:            156.5415529

- temperature:       560.0000000
  free_energy:      -104.8358494
  entropy:           471.4693989
  heat_capacity:     264.7157057
  energy:            159.1870139

- temperature:       570.0000000
  free_energy:      -109.5740490
  entropy:           476.1576476
  heat_capacity:     265.0407781
  energy:            161.8358101

- temperature:       580.0000000
  free_energy:      -114.3587490
  entropy:           480.7698712
  heat_capacity:     265.3498914
  energy:            164.4877763

- temperature:       590.0000000
  free_energy:      -119.1892008
  entropy:           485.3084050
  heat_capacity:     265.6440623
  energy:            167.1427581

- temperature:       600.0000000
  free_energy:      -124.0646789
  entropy:           489.7754830
  heat_capacity:     265.9242285
  energy:            169.8006109

- temperature:       610.0000000
  free_energy:      -128.9844794
  entropy:           494.1732432
  heat_capacity:     266.1912561
  energy:            172.4611989

- temperature:       620.0000000
  free_energy:      -133.9479195
  entropy:           498.5037330
  heat_capacity:     266.4459461
  energy:            175.1243949

- temperature:       630.0000000
  free_energy:      -138.9543364
  entropy:           502.7689137
  heat_capacity:     266.6890399
  energy:            177.7900792

- temperature:       640.0000000
  free_energy:      -144.0030864
  entropy:           506.9706652
  heat_capacity:     266.9212245
  energy:            180.4581393

- temperature:       650.0000000
  free_energy:      -149.0935443
  entropy:           511.1107904
  heat_capacity:     267.1431374
  energy:            183.1284694

- temperature:       660.0000000
  free_energy:      -154.2251026
  entropy:           515.1910187
  heat_capacity:     267.3553703
  energy:            185.8009698

- temperature:       670.0000000
  free_energy:      -159.3971706
  entropy:           519.2130104
  heat_capacity:     267.5584736
  energy:            188.4755464

- temperature:       680.0000000
  free_energy:      -164.6091740
  entropy:           523.1783596
  heat_capacity:     267.7529594
  energy:            191.1521106

- temperature:       690.0000000
  free_energy:      -169.8605541
  entropy:           527.0885979
  heat_capacity:     267.9393045
  energy:            193.8305785

- temperature:       700.0000000
  free_energy:      -175.1507671
  entropy:           530.9451973
  heat_capacity:     268.1179536
  energy:            196.5108710

- temperature:       710.0000000
  free_energy:      -180.4792839
  entropy:           534.7495735
  heat_capacity:     268.2893217
  energy:            199.1929133

- temperature:       720.0000000
  free_energy:      -185.8455891
  entropy:           538.5030882
  heat_capacity:     268.4537962
  energy:            201.8766345

- temperature:       730.0000000
  free_energy:      -191.2491805
  entropy:           542.2070520
  heat_capacity:     268.6117395
  energy:            204.5619674

- temperature:       740.0000000
  free_energy:      -196.6895692
  entropy:           545.8627267
  heat_capacity:     268.7634905
  energy:            207.2488486

- temperature:       750.0000000
  free_energy:      -202.1662782
  entropy:           549.4713278
  heat_capacity:     268.9093666
  energy:            209.9372177

- temperature:       760.0000000
  free_energy:      -207.6788427
  entropy:           553.0340264
  heat_capacity:     269.0496654
  energy:            212.6270174

- temperature:       770.0000000
  free_energy:      -213.2268094
  entropy:           556.5519516
  heat_capacity:     269.1846656
  energy:            215.3181933

- temperature:       780.0000000
  free_energy:      -218.8097361
  entropy:           560.0261923
  heat_capacity:     269.3146294
  energy:            218.0106939

- temperature:       790.0000000
  free_energy:      -224.4271912
  entropy:           563.4577989
  heat_capacity:     269.4398025
  energy:            220.7044699

- temperature:       800.0000000
  free_energy:      -230.0787534
  entropy:           566.8477851
  heat_capacity:     269.5604163
  energy:            223.3994747

- temperature:       810.0000000
  free_energy:      -235.7640114
  entropy:           570.1971299
  heat_capacity:     269.6766883
  energy:            226.0956638

- temperature:       820.0000000
  free_energy:      -241.4825637
  entropy:           573.5067785
  heat_capacity:     269.7888232
  energy:            228.7929947

- temperature:       830.0000000
  free_energy:      -247.2340177
  entropy:           576.7776444
  heat_capacity:     269.8970141
  energy:            231.4914271

- temperature:       840.0000000
  free_energy:      -253.0179902
  entropy:           580.0106103
  heat_capacity:     270.0014427
  energy:            234.1909225

- temperature:       850.0000000
  free_energy:      -258.8341064
  entropy:           583.2065299
  heat_capacity:     270.1022806
  energy:            236.8914440

- temperature:       860.0000000
  free_energy:      -264.6820001
  entropy:           586.3662287
  heat_capacity:     270.1996898
  energy:            239.5929566

- temperature:       870.0000000
  free_energy:      -270.5613129
  entropy:           589.4905055
  heat_capacity:     270.2938232
  energy:            242.2954269

- temperature:       880.0000000
  free_energy:      -276.4716947
  entropy:           592.5801334
  heat_capacity:     270.3848253
  energy:            244.9988227

- temperature:       890.0000000
  free_energy:      -282.4128026
  entropy:           595.6358607
  heat_capacity:     270.4728329
  energy:            247.7031134

- temperature:       900.0000000
  free_energy:      -288.3843013
  entropy:           598.6584123
  heat_capacity:     270.5579754
  energy:            250.4082698

- temperature:       910.0000000
  free_energy:      -294.3858626
  entropy:           601.6484905
  heat_capacity:     270.6403752
  energy:            253.1142638

- temperature:       920.0000000
  free_energy:      -300.4171652
  entropy:           604.6067757
  heat_capacity:     270.7201484
  energy:            255.8210685

- temperature:       930.0000000
  free_energy:      -306.4778944
  entropy:           607.5339276
  heat_capacity:     270.7974049
  energy:            258.5286583

- temperature:       940.0000000
  free_energy:      -312.5677421
  entropy:           610.4305858
  heat_capacity:     270.8722491
  energy:            261.2370086

- temperature:       950.0000000
  free_energy:      -318.6864065
  entropy:           613.2973706
  heat_capacity:     270.9447800
  energy:            263.9460956

- temperature:       960.0000000
  free_energy:      -324.8335919
  entropy:           616.1348841
  heat_capacity:     271.0150915
  energy:            266.6558968

- temperature:       970.0000000
  free_energy:      -331.0090086
  entropy:           618.9437102
  heat_capacity:     271.0832730
  energy:            269.3663903

- temperature:       980.0000000
  free_energy:      -337.2123724
  entropy:           621.7244161
  heat_capacity:     271.1494093
  energy:            272.0775554

- temperature:       990.0000000
  free_energy:      -343.4434050
  entropy:           624.4775525
  heat_capacity:     271.2135810
  energy:            274.7893720

- temperature:      1000.0000000
  free_energy:      -349.7018333
  entropy:           627.2036541
  heat_capacity:     271.2758650
  energy:            277.5018208
