phonopy:
  version: "2.37.1"
  frequency_unit_conversion_factor: 15.633302
  symmetry_tolerance: 1.00000e-05

space_group:
  type: "P1"
  number: 1
  Hall_symbol: "P 1"

primitive_matrix:
- [ -1.000000000000000, -0.000000000000000,  0.000000000000000 ]
- [  0.000000000000000,  1.000000000000000,  0.000000000000000 ]
- [  0.000000000000000,  0.000000000000000, -1.000000000000000 ]

supercell_matrix:
- [   4,   0,   0 ]
- [   0,   2,   0 ]
- [   0,   0,   2 ]

primitive_cell:
  lattice:
  - [    -3.180865849613154,     0.000000000000000,     0.000000000000000 ] # a
  - [     0.023596184938719,     5.974382200090620,     0.000000000000000 ] # b
  - [     0.002309862861044,    -0.009139012540022,    -5.975511108530019 ] # c
  points:
  - symbol: Sn # 1
    coordinates: [  0.085523925957892,  0.751558996560092,  0.283891263617977 ]
    mass: 118.710000
  - symbol: Sn # 2
    coordinates: [  0.834399463169629,  0.751691289447679,  0.783818700475390 ]
    mass: 118.710000
  - symbol: Sn # 3
    coordinates: [  0.336145750182124,  0.252508291463012,  0.282966762706312 ]
    mass: 118.710000
  - symbol: Sn # 4
    coordinates: [  0.584222360830365,  0.253182059643355,  0.781643125932239 ]
    mass: 118.710000
  reciprocal_lattice: # without 2pi
  - [    -0.314379809548276,     0.001241662129850,    -0.000123424055067 ] # a*
  - [    -0.000000000000000,     0.167381323542513,    -0.000255994840782 ] # b*
  - [    -0.000000000000000,     0.000000000000000,    -0.167349701446041 ] # c*

unit_cell:
  lattice:
  - [     3.180865849613154,     0.000000000000000,     0.000000000000000 ] # a
  - [     0.023596184938720,     5.974382200090619,     0.000000000000000 ] # b
  - [    -0.002309862861044,     0.009139012540022,     5.975511108530019 ] # c
  points:
  - symbol: Sn # 1
    coordinates: [  0.914476074042108,  0.751558996560092,  0.716108736382023 ]
    mass: 118.710000
    reduced_to: 1
  - symbol: Sn # 2
    coordinates: [  0.165600536830371,  0.751691289447680,  0.216181299524610 ]
    mass: 118.710000
    reduced_to: 2
  - symbol: Sn # 3
    coordinates: [  0.663854249817876,  0.252508291463012,  0.717033237293688 ]
    mass: 118.710000
    reduced_to: 3
  - symbol: Sn # 4
    coordinates: [  0.415777639169635,  0.253182059643355,  0.218356874067761 ]
    mass: 118.710000
    reduced_to: 4

supercell:
  lattice:
  - [    12.723463398452617,     0.000000000000000,     0.000000000000000 ] # a
  - [     0.047192369877439,    11.948764400181238,     0.000000000000000 ] # b
  - [    -0.004619725722089,     0.018278025080045,    11.951022217060038 ] # c
  points:
  - symbol: Sn # 1
    coordinates: [  0.228619018510527,  0.375779498280046,  0.358054368191012 ]
    mass: 118.710000
    reduced_to: 1
  - symbol: Sn # 2
    coordinates: [  0.478619018510527,  0.375779498280046,  0.358054368191012 ]
    mass: 118.710000
    reduced_to: 1
  - symbol: Sn # 3
    coordinates: [  0.728619018510527,  0.375779498280046,  0.358054368191012 ]
    mass: 118.710000
    reduced_to: 1
  - symbol: Sn # 4
    coordinates: [  0.978619018510527,  0.375779498280046,  0.358054368191012 ]
    mass: 118.710000
    reduced_to: 1
  - symbol: Sn # 5
    coordinates: [  0.228619018510527,  0.875779498280046,  0.358054368191012 ]
    mass: 118.710000
    reduced_to: 1
  - symbol: Sn # 6
    coordinates: [  0.478619018510527,  0.875779498280046,  0.358054368191012 ]
    mass: 118.710000
    reduced_to: 1
  - symbol: Sn # 7
    coordinates: [  0.728619018510527,  0.875779498280046,  0.358054368191012 ]
    mass: 118.710000
    reduced_to: 1
  - symbol: Sn # 8
    coordinates: [  0.978619018510527,  0.875779498280046,  0.358054368191012 ]
    mass: 118.710000
    reduced_to: 1
  - symbol: Sn # 9
    coordinates: [  0.228619018510527,  0.375779498280046,  0.858054368191012 ]
    mass: 118.710000
    reduced_to: 1
  - symbol: Sn # 10
    coordinates: [  0.478619018510527,  0.375779498280046,  0.858054368191012 ]
    mass: 118.710000
    reduced_to: 1
  - symbol: Sn # 11
    coordinates: [  0.728619018510527,  0.375779498280046,  0.858054368191012 ]
    mass: 118.710000
    reduced_to: 1
  - symbol: Sn # 12
    coordinates: [  0.978619018510527,  0.375779498280046,  0.858054368191012 ]
    mass: 118.710000
    reduced_to: 1
  - symbol: Sn # 13
    coordinates: [  0.228619018510527,  0.875779498280046,  0.858054368191012 ]
    mass: 118.710000
    reduced_to: 1
  - symbol: Sn # 14
    coordinates: [  0.478619018510527,  0.875779498280046,  0.858054368191012 ]
    mass: 118.710000
    reduced_to: 1
  - symbol: Sn # 15
    coordinates: [  0.728619018510527,  0.875779498280046,  0.858054368191012 ]
    mass: 118.710000
    reduced_to: 1
  - symbol: Sn # 16
    coordinates: [  0.978619018510527,  0.875779498280046,  0.858054368191012 ]
    mass: 118.710000
    reduced_to: 1
  - symbol: Sn # 17
    coordinates: [  0.041400134207593,  0.375845644723840,  0.108090649762305 ]
    mass: 118.710000
    reduced_to: 17
  - symbol: Sn # 18
    coordinates: [  0.291400134207593,  0.375845644723840,  0.108090649762305 ]
    mass: 118.710000
    reduced_to: 17
  - symbol: Sn # 19
    coordinates: [  0.541400134207593,  0.375845644723840,  0.108090649762305 ]
    mass: 118.710000
    reduced_to: 17
  - symbol: Sn # 20
    coordinates: [  0.791400134207593,  0.375845644723840,  0.108090649762305 ]
    mass: 118.710000
    reduced_to: 17
  - symbol: Sn # 21
    coordinates: [  0.041400134207593,  0.875845644723840,  0.108090649762305 ]
    mass: 118.710000
    reduced_to: 17
  - symbol: Sn # 22
    coordinates: [  0.291400134207593,  0.875845644723840,  0.108090649762305 ]
    mass: 118.710000
    reduced_to: 17
  - symbol: Sn # 23
    coordinates: [  0.541400134207593,  0.875845644723840,  0.108090649762305 ]
    mass: 118.710000
    reduced_to: 17
  - symbol: Sn # 24
    coordinates: [  0.791400134207593,  0.875845644723840,  0.108090649762305 ]
    mass: 118.710000
    reduced_to: 17
  - symbol: Sn # 25
    coordinates: [  0.041400134207593,  0.375845644723840,  0.608090649762305 ]
    mass: 118.710000
    reduced_to: 17
  - symbol: Sn # 26
    coordinates: [  0.291400134207593,  0.375845644723840,  0.608090649762305 ]
    mass: 118.710000
    reduced_to: 17
  - symbol: Sn # 27
    coordinates: [  0.541400134207593,  0.375845644723840,  0.608090649762305 ]
    mass: 118.710000
    reduced_to: 17
  - symbol: Sn # 28
    coordinates: [  0.791400134207593,  0.375845644723840,  0.608090649762305 ]
    mass: 118.710000
    reduced_to: 17
  - symbol: Sn # 29
    coordinates: [  0.041400134207593,  0.875845644723840,  0.608090649762305 ]
    mass: 118.710000
    reduced_to: 17
  - symbol: Sn # 30
    coordinates: [  0.291400134207593,  0.875845644723840,  0.608090649762305 ]
    mass: 118.710000
    reduced_to: 17
  - symbol: Sn # 31
    coordinates: [  0.541400134207593,  0.875845644723840,  0.608090649762305 ]
    mass: 118.710000
    reduced_to: 17
  - symbol: Sn # 32
    coordinates: [  0.791400134207593,  0.875845644723840,  0.608090649762305 ]
    mass: 118.710000
    reduced_to: 17
  - symbol: Sn # 33
    coordinates: [  0.165963562454469,  0.126254145731506,  0.358516618646844 ]
    mass: 118.710000
    reduced_to: 33
  - symbol: Sn # 34
    coordinates: [  0.415963562454469,  0.126254145731506,  0.358516618646844 ]
    mass: 118.710000
    reduced_to: 33
  - symbol: Sn # 35
    coordinates: [  0.665963562454469,  0.126254145731506,  0.358516618646844 ]
    mass: 118.710000
    reduced_to: 33
  - symbol: Sn # 36
    coordinates: [  0.915963562454469,  0.126254145731506,  0.358516618646844 ]
    mass: 118.710000
    reduced_to: 33
  - symbol: Sn # 37
    coordinates: [  0.165963562454469,  0.626254145731506,  0.358516618646844 ]
    mass: 118.710000
    reduced_to: 33
  - symbol: Sn # 38
    coordinates: [  0.415963562454469,  0.626254145731506,  0.358516618646844 ]
    mass: 118.710000
    reduced_to: 33
  - symbol: Sn # 39
    coordinates: [  0.665963562454469,  0.626254145731506,  0.358516618646844 ]
    mass: 118.710000
    reduced_to: 33
  - symbol: Sn # 40
    coordinates: [  0.915963562454469,  0.626254145731506,  0.358516618646844 ]
    mass: 118.710000
    reduced_to: 33
  - symbol: Sn # 41
    coordinates: [  0.165963562454469,  0.126254145731506,  0.858516618646844 ]
    mass: 118.710000
    reduced_to: 33
  - symbol: Sn # 42
    coordinates: [  0.415963562454469,  0.126254145731506,  0.858516618646844 ]
    mass: 118.710000
    reduced_to: 33
  - symbol: Sn # 43
    coordinates: [  0.665963562454469,  0.126254145731506,  0.858516618646844 ]
    mass: 118.710000
    reduced_to: 33
  - symbol: Sn # 44
    coordinates: [  0.915963562454469,  0.126254145731506,  0.858516618646844 ]
    mass: 118.710000
    reduced_to: 33
  - symbol: Sn # 45
    coordinates: [  0.165963562454469,  0.626254145731506,  0.858516618646844 ]
    mass: 118.710000
    reduced_to: 33
  - symbol: Sn # 46
    coordinates: [  0.415963562454469,  0.626254145731506,  0.858516618646844 ]
    mass: 118.710000
    reduced_to: 33
  - symbol: Sn # 47
    coordinates: [  0.665963562454469,  0.626254145731506,  0.858516618646844 ]
    mass: 118.710000
    reduced_to: 33
  - symbol: Sn # 48
    coordinates: [  0.915963562454469,  0.626254145731506,  0.858516618646844 ]
    mass: 118.710000
    reduced_to: 33
  - symbol: Sn # 49
    coordinates: [  0.103944409792409,  0.126591029821677,  0.109178437033880 ]
    mass: 118.710000
    reduced_to: 49
  - symbol: Sn # 50
    coordinates: [  0.353944409792409,  0.126591029821677,  0.109178437033880 ]
    mass: 118.710000
    reduced_to: 49
  - symbol: Sn # 51
    coordinates: [  0.603944409792409,  0.126591029821677,  0.109178437033880 ]
    mass: 118.710000
    reduced_to: 49
  - symbol: Sn # 52
    coordinates: [  0.853944409792409,  0.126591029821677,  0.109178437033880 ]
    mass: 118.710000
    reduced_to: 49
  - symbol: Sn # 53
    coordinates: [  0.103944409792409,  0.626591029821677,  0.109178437033880 ]
    mass: 118.710000
    reduced_to: 49
  - symbol: Sn # 54
    coordinates: [  0.353944409792409,  0.626591029821677,  0.109178437033880 ]
    mass: 118.710000
    reduced_to: 49
  - symbol: Sn # 55
    coordinates: [  0.603944409792409,  0.626591029821677,  0.109178437033880 ]
    mass: 118.710000
    reduced_to: 49
  - symbol: Sn # 56
    coordinates: [  0.853944409792409,  0.626591029821677,  0.109178437033880 ]
    mass: 118.710000
    reduced_to: 49
  - symbol: Sn # 57
    coordinates: [  0.103944409792409,  0.126591029821677,  0.609178437033881 ]
    mass: 118.710000
    reduced_to: 49
  - symbol: Sn # 58
    coordinates: [  0.353944409792409,  0.126591029821677,  0.609178437033881 ]
    mass: 118.710000
    reduced_to: 49
  - symbol: Sn # 59
    coordinates: [  0.603944409792409,  0.126591029821677,  0.609178437033881 ]
    mass: 118.710000
    reduced_to: 49
  - symbol: Sn # 60
    coordinates: [  0.853944409792409,  0.126591029821677,  0.609178437033881 ]
    mass: 118.710000
    reduced_to: 49
  - symbol: Sn # 61
    coordinates: [  0.103944409792409,  0.626591029821677,  0.609178437033881 ]
    mass: 118.710000
    reduced_to: 49
  - symbol: Sn # 62
    coordinates: [  0.353944409792409,  0.626591029821677,  0.609178437033881 ]
    mass: 118.710000
    reduced_to: 49
  - symbol: Sn # 63
    coordinates: [  0.603944409792409,  0.626591029821677,  0.609178437033881 ]
    mass: 118.710000
    reduced_to: 49
  - symbol: Sn # 64
    coordinates: [  0.853944409792409,  0.626591029821677,  0.609178437033881 ]
    mass: 118.710000
    reduced_to: 49

displacements:
- atom:    1
  displacement:
    [   0.0100000000000000,  0.0000000000000000,  0.0000000000000000 ]
  forces:
  - [  -0.0165173821151257,  0.0088998973369598,  0.0043874643743038 ]
  - [   0.0064375796355307,  0.0091729760169983,  0.0043451031669974 ]
  - [   0.0049342652782798,  0.0091091999784112,  0.0043417988345027 ]
  - [   0.0060204807668924,  0.0090556424111128,  0.0043275505304337 ]
  - [   0.0003775166114792,  0.0091238431632519,  0.0043441290035844 ]
  - [   0.0014247600920498,  0.0091060390695930,  0.0043369960039854 ]
  - [   0.0011631264351308,  0.0091176470741630,  0.0043396675027907 ]
  - [   0.0014273426495492,  0.0091158812865615,  0.0043435730040073 ]
  - [   0.0003676399355754,  0.0091166635975242,  0.0043336935341358 ]
  - [   0.0014170631766319,  0.0091165183112025,  0.0043381443247199 ]
  - [   0.0011624394683167,  0.0091157490387559,  0.0043375748209655 ]
  - [   0.0014226865023375,  0.0091167511418462,  0.0043394262902439 ]
  - [   0.0012431859504431,  0.0091154333204031,  0.0043363799341023 ]
  - [   0.0012551282998174,  0.0091151781380177,  0.0043387124314904 ]
  - [   0.0012694422621280,  0.0091147702187300,  0.0043371557258070 ]
  - [   0.0012538011651486,  0.0091159529983997,  0.0043385685421526 ]
  - [  -0.0013134832261130,  0.0185635834932327,  0.0011071315966547 ]
  - [   0.0000818570260890,  0.0185603685677052, -0.0043446742929518 ]
  - [  -0.0023406278342009,  0.0185566581785679,  0.0009781385306269 ]
  - [  -0.0010572187602520,  0.0185636468231678,  0.0005821703816764 ]
  - [  -0.0016023768112063,  0.0185551159083843,  0.0000534015853191 ]
  - [  -0.0014253850094974,  0.0185601413249969,  0.0003524966305122 ]
  - [  -0.0014086889568716,  0.0185620598495007,  0.0002190509549109 ]
  - [  -0.0014256641734391,  0.0185632370412350,  0.0001713512756396 ]
  - [  -0.0013227621093392,  0.0185619071125984, -0.0007372755790129 ]
  - [   0.0000863020541146,  0.0185728762298822,  0.0046959263272583 ]
  - [  -0.0023665428161621,  0.0185539945960045, -0.0006329352618195 ]
  - [  -0.0010595080675557,  0.0185634307563305, -0.0002196236891905 ]
  - [  -0.0016072108410299,  0.0185569375753403,  0.0003057170542888 ]
  - [  -0.0014251266838983,  0.0185581892728806,  0.0000100777979242 ]
  - [  -0.0014098600950092,  0.0185613445937634,  0.0001456222962588 ]
  - [  -0.0014261588221416,  0.0185638405382633,  0.0001888307888294 ]
  - [   0.0034859215375036, -0.0033827710431069,  0.0114328395575285 ]
  - [   0.0021207192912698, -0.0089469449594617,  0.0114394556730986 ]
  - [   0.0023343423381448, -0.0083487546071410,  0.0114420186728239 ]
  - [   0.0012802057899535, -0.0085375979542732,  0.0114493574947119 ]
  - [   0.0034970417618752, -0.0123226074501872,  0.0114326383918524 ]
  - [   0.0020412351004779, -0.0070729139260948,  0.0114389266818762 ]
  - [   0.0023320824839175, -0.0075427806004882,  0.0114441458135843 ]
  - [   0.0010610637255013, -0.0071682822890580,  0.0114497691392899 ]
  - [   0.0019536637701094, -0.0081073679029942,  0.0114471009001136 ]
  - [   0.0017798939952627, -0.0078164199367166,  0.0114472564309835 ]
  - [   0.0019599604420364, -0.0079347481951118,  0.0114441122859716 ]
  - [   0.0019743866287172, -0.0079786907881498,  0.0114455241709948 ]
  - [   0.0019628205336630, -0.0077764294110239,  0.0114470943808556 ]
  - [   0.0017764802323654, -0.0080699538812041,  0.0114478990435600 ]
  - [   0.0019621013198048, -0.0079514645040035,  0.0114444484934211 ]
  - [   0.0019747056066990, -0.0079071614891291,  0.0114473719149828 ]
  - [  -0.0015366438310593, -0.0192937776446342, -0.0157848969101906 ]
  - [  -0.0015410847263411, -0.0199102051556110, -0.0163918416947126 ]
  - [  -0.0018494674004614, -0.0195940025150776, -0.0159701034426689 ]
  - [  -0.0018499027937651, -0.0197261907160282, -0.0161049235612154 ]
  - [  -0.0015436958055943, -0.0201717298477888, -0.0157842319458723 ]
  - [  -0.0015456108376384, -0.0195509307086468, -0.0163894500583410 ]
  - [  -0.0018530616071075, -0.0198731198906898, -0.0159733667969704 ]
  - [  -0.0018471068469808, -0.0197498984634876, -0.0161041524261236 ]
  - [  -0.0015376796945930, -0.0193012431263924, -0.0161470491439104 ]
  - [  -0.0015418666880578, -0.0199004486203194, -0.0155349113047123 ]
  - [  -0.0018481647130102, -0.0195915773510933, -0.0159576628357172 ]
  - [  -0.0018478530691937, -0.0197267234325409, -0.0158257279545069 ]
  - [  -0.0015465090982616, -0.0201597493141890, -0.0161386653780937 ]
  - [  -0.0015495800180361, -0.0195721089839935, -0.0155507912859321 ]
  - [  -0.0018484513275325, -0.0198737531900406, -0.0159571636468172 ]
  - [  -0.0018465277971700, -0.0197451263666153, -0.0158263705670834 ]
- atom:    1
  displacement:
    [  -0.0100000000000000,  0.0000000000000000,  0.0000000000000000 ]
  forces:
  - [   0.0190189220011234,  0.0093342429026961,  0.0042896424420178 ]
  - [  -0.0035195820964873,  0.0090587176382542,  0.0043322294950485 ]
  - [  -0.0024362003896385,  0.0091224163770676,  0.0043400144204497 ]
  - [  -0.0039357389323413,  0.0091773746535182,  0.0043523344211280 ]
  - [   0.0021398388780653,  0.0091071762144566,  0.0043336888775229 ]
  - [   0.0010803580516949,  0.0091263372451067,  0.0043437294661999 ]
  - [   0.0013400225434452,  0.0091137355193496,  0.0043401131406426 ]
  - [   0.0010826620273292,  0.0091182803735137,  0.0043413462117314 ]
  - [   0.0021257316693664,  0.0091139134019613,  0.0043451366946101 ]
  - [   0.0010711164213717,  0.0091149918735027,  0.0043368297629058 ]
  - [   0.0013395859859884,  0.0091158654540777,  0.0043373098596931 ]
  - [   0.0010762326419353,  0.0091158701106906,  0.0043354900553823 ]
  - [   0.0012625462841243,  0.0091144684702158,  0.0043373503722250 ]
  - [   0.0012488657375798,  0.0091161457821727,  0.0043391166254878 ]
  - [   0.0012356840306893,  0.0091149806976318,  0.0043372362852097 ]
  - [   0.0012477749260142,  0.0091147059574723,  0.0043375147506595 ]
  - [  -0.0015431479550898,  0.0185624789446592, -0.0007596330251545 ]
  - [  -0.0029483991675079,  0.0185663476586342,  0.0046271467581391 ]
  - [  -0.0006751824985258,  0.0185680966824293, -0.0004668316687457 ]
  - [  -0.0017891334136948,  0.0185595843940973, -0.0002235848078271 ]
  - [  -0.0012392314383760,  0.0185673423111439,  0.0003108138917014 ]
  - [  -0.0014191061491147,  0.0185664165765047,  0.0000174409069587 ]
  - [  -0.0014380307402462,  0.0185629557818174,  0.0001448196999263 ]
  - [  -0.0014229547232389,  0.0185607001185417,  0.0001885524106910 ]
  - [  -0.0015386519953609,  0.0185650251805782,  0.0011159057030454 ]
  - [  -0.0029524019919336,  0.0185510423034430, -0.0042517418041825 ]
  - [  -0.0006495355628431,  0.0185714177787304,  0.0008404407417402 ]
  - [  -0.0017924765124917,  0.0185615643858910,  0.0005872145411558 ]
  - [  -0.0012428825721145,  0.0185680575668812,  0.0000560808548471 ]
  - [  -0.0014241519384086,  0.0185644775629044,  0.0003434274694882 ]
  - [  -0.0014347694814205,  0.0185646992176771,  0.0002162169257645 ]
  - [  -0.0014260599855334,  0.0185618214309216,  0.0001716174447211 ]
  - [   0.0004586273571476, -0.0125837568193674,  0.0114525891840458 ]
  - [   0.0018158181337640, -0.0069572068750858,  0.0114454366266727 ]
  - [   0.0015969597734511, -0.0075416071340442,  0.0114423409104347 ]
  - [   0.0028118649497628, -0.0071979407221079,  0.0114379609003663 ]
  - [   0.0004501846851781, -0.0034869154915214,  0.0114537524059415 ]
  - [   0.0018898858688772, -0.0088032111525536,  0.0114472908899188 ]
  - [   0.0016016322188079, -0.0083436537533998,  0.0114455409348011 ]
  - [   0.0030238269828260, -0.0088668121024966,  0.0114359594881535 ]
  - [   0.0019667374435812, -0.0077722119167447,  0.0114432098343968 ]
  - [   0.0021410561166704, -0.0080675687640905,  0.0114424899220467 ]
  - [   0.0019617783837020, -0.0079515147954226,  0.0114444652572274 ]
  - [   0.0019461790798232, -0.0079060308635235,  0.0114438207820058 ]
  - [   0.0019575715996325, -0.0081156697124243,  0.0114439483731985 ]
  - [   0.0021427399478853, -0.0078161619603634,  0.0114419842138886 ]
  - [   0.0019634459167719, -0.0079340841621161,  0.0114444019272923 ]
  - [   0.0019479078473523, -0.0079787047579885,  0.0114433858543634 ]
  - [  -0.0020357854664326, -0.0201663635671139, -0.0161366909742355 ]
  - [  -0.0020411068107933, -0.0195525623857975, -0.0155256856232882 ]
  - [  -0.0017303144559264, -0.0198753513395786, -0.0159551650285721 ]
  - [  -0.0017274788115174, -0.0197395235300064, -0.0158212333917618 ]
  - [  -0.0020292527042329, -0.0193090364336967, -0.0161372441798449 ]
  - [  -0.0020403172820807, -0.0199265927076340, -0.0155310165137053 ]
  - [  -0.0017324242508039, -0.0195987559854984, -0.0159549862146378 ]
  - [  -0.0017341828206554, -0.0197255313396454, -0.0158240776509047 ]
  - [  -0.0020315414294600, -0.0201607272028923, -0.0157857965677977 ]
  - [  -0.0020384793169796, -0.0195624008774757, -0.0164011754095554 ]
  - [  -0.0017314190044999, -0.0198757536709309, -0.0159745216369629 ]
  - [  -0.0017255712300539, -0.0197381898760796, -0.0161040499806404 ]
  - [  -0.0020254089031368, -0.0193202197551727, -0.0157933775335550 ]
  - [  -0.0020331812556833, -0.0199031867086887, -0.0163832418620586 ]
  - [  -0.0017290887190029, -0.0195960216224194, -0.0159738510847092 ]
  - [  -0.0017323475331068, -0.0197279825806618, -0.0161034371703863 ]
- atom:    1
  displacement:
    [   0.0000394952986130,  0.0099999220057652,  0.0000000000000000 ]
  forces:
  - [   0.0010562154930085, -0.0101377656683326,  0.0043315412476659 ]
  - [   0.0012014758540317,  0.0079592829570174,  0.0043364595621824 ]
  - [   0.0012577876914293,  0.0092439819127321,  0.0043411692604423 ]
  - [   0.0013466336531565,  0.0079603036865592,  0.0043389839120209 ]
  - [   0.0012729421723634,  0.0110652511939406,  0.0043359380215406 ]
  - [   0.0012502428144217,  0.0097997225821018,  0.0043402980081737 ]
  - [   0.0012533795088530,  0.0090394495055079,  0.0043398807756603 ]
  - [   0.0012386293383315,  0.0098000168800354,  0.0043418682180345 ]
  - [   0.0012483283644542,  0.0092160683125257,  0.0043394798412919 ]
  - [   0.0012488028733060,  0.0091101462021470,  0.0043382709845901 ]
  - [   0.0012512838002294,  0.0090916110202670,  0.0043376302346587 ]
  - [   0.0012541770702228,  0.0091107673943043,  0.0043380269780755 ]
  - [   0.0012529819505289,  0.0090796109288931,  0.0043391641229391 ]
  - [   0.0012521764729172,  0.0091203255578876,  0.0043402304872870 ]
  - [   0.0012525954516605,  0.0091394763439894,  0.0043375883251429 ]
  - [   0.0012502649333328,  0.0091197434812784,  0.0043389867059886 ]
  - [  -0.0014187095221132,  0.0187597554177046,  0.0001904617965920 ]
  - [  -0.0014330275589600,  0.0184892173856497,  0.0002131892251782 ]
  - [  -0.0014249077066779,  0.0187169406563044,  0.0001808634551708 ]
  - [  -0.0014183626044542,  0.0186073258519173,  0.0001824824721552 ]
  - [  -0.0014193775132298,  0.0182964950799942,  0.0001864497899078 ]
  - [  -0.0014252868713811,  0.0182699002325535,  0.0001783048210200 ]
  - [  -0.0014253261033446,  0.0184231139719486,  0.0001810236281017 ]
  - [  -0.0014216534327716,  0.0185163617134094,  0.0001814386196202 ]
  - [  -0.0014240394812077,  0.0187562368810177,  0.0001751317031449 ]
  - [  -0.0014186922926456,  0.0184987597167492,  0.0001792880211724 ]
  - [  -0.0014280078466982,  0.0187182314693928,  0.0001787999935914 ]
  - [  -0.0014219137374312,  0.0186051558703184,  0.0001803657505661 ]
  - [  -0.0014234865084291,  0.0183015167713165,  0.0001758916769177 ]
  - [  -0.0014272184344009,  0.0182605218142271,  0.0001827302767197 ]
  - [  -0.0014249793021008,  0.0184229090809822,  0.0001804088096833 ]
  - [  -0.0014237820869312,  0.0185204446315765,  0.0001791436370695 ]
  - [   0.0064232717268169, -0.0005316536407918,  0.0114552993327379 ]
  - [   0.0009852121584117, -0.0073182177729905,  0.0114440284669399 ]
  - [   0.0015558577142656, -0.0079447990283370,  0.0114432442933321 ]
  - [   0.0013580035883933, -0.0081170992925763,  0.0114431884139776 ]
  - [  -0.0025723401922733, -0.0003023860626854,  0.0114376964047551 ]
  - [   0.0028565940447152, -0.0074303057044744,  0.0114418659359217 ]
  - [   0.0023672117386013, -0.0079429224133492,  0.0114430245012045 ]
  - [   0.0028487821109593, -0.0082920854911208,  0.0114452149719000 ]
  - [   0.0017966070445254, -0.0079403910785913,  0.0114568416029215 ]
  - [   0.0020853059832007, -0.0079421270638704,  0.0114410845562816 ]
  - [   0.0019684911239892, -0.0079432176426053,  0.0114440629258752 ]
  - [   0.0019241644768044, -0.0079417414963245,  0.0114483535289764 ]
  - [   0.0021298895590007, -0.0079449461773038,  0.0114315524697304 ]
  - [   0.0018315878696740, -0.0079424250870943,  0.0114466194063425 ]
  - [   0.0019544253591448, -0.0079424055293202,  0.0114448536187410 ]
  - [   0.0019963514059782, -0.0079436199739575,  0.0114402193576097 ]
  - [  -0.0016038457397372, -0.0193241648375988, -0.0161429159343243 ]
  - [  -0.0022217978257686, -0.0193237476050854, -0.0148347802460194 ]
  - [  -0.0017980549018830, -0.0197360273450613, -0.0158596709370613 ]
  - [  -0.0019269161857665, -0.0197364371269941, -0.0160875711590052 ]
  - [  -0.0019749710336328, -0.0193055029958487, -0.0157862473279238 ]
  - [  -0.0013478412292898, -0.0193142928183079, -0.0170934274792671 ]
  - [  -0.0017820338252932, -0.0197349898517132, -0.0160714220255613 ]
  - [  -0.0016550486907363, -0.0197344291955233, -0.0158449877053499 ]
  - [  -0.0016156377969310, -0.0193346925079823, -0.0158104170113802 ]
  - [  -0.0022123064845800, -0.0193249434232712, -0.0170911550521851 ]
  - [  -0.0017969517502934, -0.0197344422340393, -0.0160727016627789 ]
  - [  -0.0019291611388326, -0.0197356194257736, -0.0158392246812582 ]
  - [  -0.0019575008191168, -0.0193205792456865, -0.0161244496703148 ]
  - [  -0.0013650431064889, -0.0193331316113472, -0.0148492921143770 ]
  - [  -0.0017830147407949, -0.0197342559695244, -0.0158545412123203 ]
  - [  -0.0016484140651301, -0.0197332613170147, -0.0160858407616615 ]
- atom:    1
  displacement:
    [  -0.0000394952986130, -0.0099999220057652,  0.0000000000000000 ]
  forces:
  - [   0.0016272587236017,  0.0283842086791992,  0.0043280553072691 ]
  - [   0.0012830774066970,  0.0102708404883742,  0.0043405955657363 ]
  - [   0.0012421822175384,  0.0089879278093576,  0.0043409531936049 ]
  - [   0.0011929310858250,  0.0102729732170701,  0.0043422374874353 ]
  - [   0.0012634282466024,  0.0071663614362478,  0.0043424945324659 ]
  - [   0.0012510814704001,  0.0084339026361704,  0.0043403496965766 ]
  - [   0.0012502612080425,  0.0091919498518109,  0.0043401280418038 ]
  - [   0.0012576638255268,  0.0084338746964931,  0.0043431422673166 ]
  - [   0.0012528705410659,  0.0090139321982861,  0.0043395445682108 ]
  - [   0.0012463075108826,  0.0091204177588224,  0.0043362919241190 ]
  - [   0.0012510789092630,  0.0091397110372782,  0.0043377922847867 ]
  - [   0.0012513149995357,  0.0091214850544930,  0.0043378039263189 ]
  - [   0.0012516367714852,  0.0091510526835918,  0.0043349601328373 ]
  - [   0.0012514917179942,  0.0091107245534658,  0.0043370728380978 ]
  - [   0.0012531115207821,  0.0090907858684659,  0.0043373517692089 ]
  - [   0.0012514423578978,  0.0091106258332729,  0.0043372199870646 ]
  - [  -0.0014149559428915,  0.0183665379881859,  0.0001818857854232 ]
  - [  -0.0014430148294196,  0.0186374969780445,  0.0002458598755766 ]
  - [  -0.0014244288904592,  0.0184078291058540,  0.0001791250833776 ]
  - [  -0.0014176690019667,  0.0185163579881191,  0.0001824341015890 ]
  - [  -0.0014217472635210,  0.0188260320574045,  0.0001782067120075 ]
  - [  -0.0014203770551831,  0.0188570395112038,  0.0001905725803226 ]
  - [  -0.0014210102381185,  0.0187020190060139,  0.0001827766536735 ]
  - [  -0.0014256254071370,  0.0186072513461113,  0.0001783292245818 ]
  - [  -0.0014166801702231,  0.0183711498975754,  0.0001794182026060 ]
  - [  -0.0014576254179701,  0.0186247099190950,  0.0000860845175339 ]
  - [  -0.0014212958049029,  0.0184075683355331,  0.0001797056611395 ]
  - [  -0.0014208278153092,  0.0185195244848728,  0.0001805436913855 ]
  - [  -0.0014263254124671,  0.0188229475170374,  0.0001854275760707 ]
  - [  -0.0014224012847990,  0.0188623182475567,  0.0001722898014123 ]
  - [  -0.0014198006829247,  0.0187028273940086,  0.0001814422430471 ]
  - [  -0.0014271552208811,  0.0186056904494762,  0.0001817625598051 ]
  - [  -0.0027734441682696, -0.0160128287971020,  0.0114318132400513 ]
  - [   0.0029958030208945, -0.0086365947499871,  0.0114409383386374 ]
  - [   0.0023653327953070, -0.0079393982887268,  0.0114410426467657 ]
  - [   0.0026765989605337, -0.0077029904350638,  0.0114445369690657 ]
  - [   0.0062387720681727, -0.0149481724947691,  0.0114501584321260 ]
  - [   0.0011143494630232, -0.0083988066762686,  0.0114442817866802 ]
  - [   0.0015577145386487, -0.0079487934708595,  0.0114462999626994 ]
  - [   0.0011813285527751, -0.0076578599400818,  0.0114408340305090 ]
  - [   0.0021271873265505, -0.0079434495419264,  0.0114330463111401 ]
  - [   0.0018371701007709, -0.0079437270760536,  0.0114487949758768 ]
  - [   0.0019525457173586, -0.0079434327781200,  0.0114449858665466 ]
  - [   0.0019947118125856, -0.0079436805099249,  0.0114409783855081 ]
  - [   0.0017940374091268, -0.0079422006383538,  0.0114593831822276 ]
  - [   0.0020891353487968, -0.0079411892220378,  0.0114426985383034 ]
  - [   0.0019708496984094, -0.0079420991241932,  0.0114434491842985 ]
  - [   0.0019241248955950, -0.0079414779320359,  0.0114509146660566 ]
  - [  -0.0019728322513402, -0.0201413296163082, -0.0157667361199856 ]
  - [  -0.0013540880754590, -0.0201408080756664, -0.0170891676098108 ]
  - [  -0.0017806622199714, -0.0197351463139057, -0.0160679388791323 ]
  - [  -0.0016516370233148, -0.0197324249893427, -0.0158425457775593 ]
  - [  -0.0016032753046602, -0.0201707929372787, -0.0161239281296730 ]
  - [  -0.0022303052246571, -0.0201587826013565, -0.0148376636207104 ]
  - [  -0.0018013402586803, -0.0197356119751930, -0.0158583056181669 ]
  - [  -0.0019267313182354, -0.0197383724153042, -0.0160861611366272 ]
  - [  -0.0019595636986196, -0.0201360564678907, -0.0161321684718132 ]
  - [  -0.0013616955839097, -0.0201428681612015, -0.0148356854915619 ]
  - [  -0.0017820768989623, -0.0197340250015259, -0.0158579237759113 ]
  - [  -0.0016452735289931, -0.0197318326681852, -0.0160876642912626 ]
  - [  -0.0016211984911934, -0.0201497077941895, -0.0158157423138618 ]