phonopy:
  version: "2.37.1"
  frequency_unit_conversion_factor: 15.633302
  symmetry_tolerance: 1.00000e-05

space_group:
  type: "P1"
  number: 1
  Hall_symbol: "P 1"

primitive_matrix:
- [  1.000000000000000,  1.000000000000000,  0.000000000000000 ]
- [  0.000000000000000,  1.000000000000000, -1.000000000000000 ]
- [  0.000000000000000,  0.000000000000000,  1.000000000000000 ]

supercell_matrix:
- [   3,   0,   0 ]
- [   0,   2,   0 ]
- [   0,   0,   1 ]

primitive_cell:
  lattice:
  - [     4.386561518090279,     0.000000000000000,     0.000000000000000 ] # a
  - [     2.192121259559387,     4.796224975920460,     0.000000000000000 ] # b
  - [     2.190990346103491,    -0.420584050998931,    22.114727960349800 ] # c
  points:
  - symbol: Li # 1
    coordinates: [  0.405557437795179,  0.589671929784117,  0.629652031173236 ]
    mass: 6.940000
  - symbol: Li # 2
    coordinates: [  0.454634122122813,  0.981658688081402,  0.138059300613742 ]
    mass: 6.940000
  - symbol: Li # 3
    coordinates: [  0.630337926020762,  0.756583861342363,  0.011493142211767 ]
    mass: 6.940000
  - symbol: Li # 4
    coordinates: [  0.730553844635807,  0.227471617013337,  0.340317105987026 ]
    mass: 6.940000
  - symbol: Sn # 5
    coordinates: [  0.740041697249223,  0.347357651225728,  0.201547296408598 ]
    mass: 118.710000
  - symbol: Sn # 6
    coordinates: [  0.580392139735427,  0.386575941092694,  0.482357898831601 ]
    mass: 118.710000
  - symbol: Sn # 7
    coordinates: [  0.014446727961935,  0.177724546314168,  0.823454084601224 ]
    mass: 118.710000
  - symbol: Sn # 8
    coordinates: [  0.686973809639085,  0.960405166392084,  0.696171475455509 ]
    mass: 118.710000
  - symbol: Sn # 9
    coordinates: [  0.414908093768253,  0.931244706562863,  0.267659083833576 ]
    mass: 118.710000
  - symbol: Sn # 10
    coordinates: [  0.353214726198647,  0.559500165940175,  0.764377695560616 ]
    mass: 118.710000
  - symbol: Sn # 11
    coordinates: [  0.315152638004508,  0.977618104449863,  0.421299421035855 ]
    mass: 118.710000
  - symbol: Sn # 12
    coordinates: [  0.115994769098527,  0.190033580909569,  0.608361893316250 ]
    mass: 118.710000
  - symbol: Sn # 13
    coordinates: [  0.032840159448226,  0.619138973921991,  0.344081862971458 ]
    mass: 118.710000
  - symbol: Sn # 14
    coordinates: [  0.912428789771828,  0.161809181261371,  0.042290799716676 ]
    mass: 118.710000
  - symbol: Sn # 15
    coordinates: [  0.174807023168579,  0.572974789412041,  0.106251521291968 ]
    mass: 118.710000
  - symbol: Sn # 16
    coordinates: [  0.677325422850591,  0.795211599390228,  0.880197397389394 ]
    mass: 118.710000
  - symbol: Sn # 17
    coordinates: [  0.847593798666866,  0.792027321419353,  0.542917915827597 ]
    mass: 118.710000
  - symbol: Sn # 18
    coordinates: [  0.346044261346000,  0.386910635073830,  0.949932499979150 ]
    mass: 118.710000
  reciprocal_lattice: # without 2pi
  - [     0.227968990261729,    -0.104193542334223,    -0.024567338109307 ] # a*
  - [     0.000000000000000,     0.208497308825278,     0.003965259845173 ] # b*
  - [     0.000000000000000,     0.000000000000000,     0.045218733949291 ] # c*

unit_cell:
  lattice:
  - [     4.386561518090279,     0.000000000000000,     0.000000000000000 ] # a
  - [    -2.194440258530892,     4.796224975920460,     0.000000000000000 ] # b
  - [    -0.003449912427401,     4.375640924921528,    22.114727960349800 ] # c
  points:
  - symbol: Li # 1
    coordinates: [  0.995229367579297,  0.960019898610881,  0.629652031173236 ]
    mass: 6.940000
    reduced_to: 1
  - symbol: Li # 2
    coordinates: [  0.436292810204215,  0.843599387467660,  0.138059300613742 ]
    mass: 6.940000
    reduced_to: 2
  - symbol: Li # 3
    coordinates: [  0.386921787363125,  0.745090719130596,  0.011493142211767 ]
    mass: 6.940000
    reduced_to: 3
  - symbol: Li # 4
    coordinates: [  0.958025461649144,  0.887154511026311,  0.340317105987026 ]
    mass: 6.940000
    reduced_to: 4
  - symbol: Sn # 5
    coordinates: [  0.087399348474951,  0.145810354817131,  0.201547296408598 ]
    mass: 118.710000
    reduced_to: 5
  - symbol: Sn # 6
    coordinates: [  0.966968080828122,  0.904218042261093,  0.482357898831601 ]
    mass: 118.710000
    reduced_to: 6
  - symbol: Sn # 7
    coordinates: [  0.192171274276103,  0.354270461712944,  0.823454084601224 ]
    mass: 118.710000
    reduced_to: 7
  - symbol: Sn # 8
    coordinates: [  0.647378976031169,  0.264233690936575,  0.696171475455509 ]
    mass: 118.710000
    reduced_to: 8
  - symbol: Sn # 9
    coordinates: [  0.346152800331116,  0.663585622729287,  0.267659083833576 ]
    mass: 118.710000
    reduced_to: 9
  - symbol: Sn # 10
    coordinates: [  0.912714892138822,  0.795122470379559,  0.764377695560616 ]
    mass: 118.710000
    reduced_to: 10
  - symbol: Sn # 11
    coordinates: [  0.292770742454371,  0.556318683414007,  0.421299421035855 ]
    mass: 118.710000
    reduced_to: 11
  - symbol: Sn # 12
    coordinates: [  0.306028350008096,  0.581671687593319,  0.608361893316250 ]
    mass: 118.710000
    reduced_to: 12
  - symbol: Sn # 13
    coordinates: [  0.651979133370218,  0.275057110950533,  0.344081862971458 ]
    mass: 118.710000
    reduced_to: 13
  - symbol: Sn # 14
    coordinates: [  0.074237971033199,  0.119518381544695,  0.042290799716676 ]
    mass: 118.710000
    reduced_to: 14
  - symbol: Sn # 15
    coordinates: [  0.747781812580620,  0.466723268120073,  0.106251521291968 ]
    mass: 118.710000
    reduced_to: 15
  - symbol: Sn # 16
    coordinates: [  0.472537022240820,  0.915014202000835,  0.880197397389394 ]
    mass: 118.710000
    reduced_to: 16
  - symbol: Sn # 17
    coordinates: [  0.639621120086219,  0.249109405591756,  0.542917915827597 ]
    mass: 118.710000
    reduced_to: 17
  - symbol: Sn # 18
    coordinates: [  0.732954896419830,  0.436978135094679,  0.949932499979150 ]
    mass: 118.710000
    reduced_to: 18

supercell:
  lattice:
  - [    13.159684554270836,     0.000000000000000,     0.000000000000000 ] # a
  - [    -4.388880517061784,     9.592449951840921,     0.000000000000000 ] # b
  - [    -0.003449912427401,     4.375640924921528,    22.114727960349800 ] # c
  points:
  - symbol: Li # 1
    coordinates: [  0.331743122526432,  0.480009949305441,  0.629652031173236 ]
    mass: 6.940000
    reduced_to: 1
  - symbol: Li # 2
    coordinates: [  0.665076455859765,  0.480009949305441,  0.629652031173236 ]
    mass: 6.940000
    reduced_to: 1
  - symbol: Li # 3
    coordinates: [  0.998409789193099,  0.480009949305441,  0.629652031173236 ]
    mass: 6.940000
    reduced_to: 1
  - symbol: Li # 4
    coordinates: [  0.331743122526432,  0.980009949305441,  0.629652031173236 ]
    mass: 6.940000
    reduced_to: 1
  - symbol: Li # 5
    coordinates: [  0.665076455859765,  0.980009949305441,  0.629652031173236 ]
    mass: 6.940000
    reduced_to: 1
  - symbol: Li # 6
    coordinates: [  0.998409789193099,  0.980009949305441,  0.629652031173236 ]
    mass: 6.940000
    reduced_to: 1
  - symbol: Li # 7
    coordinates: [  0.145430936734738,  0.421799693733830,  0.138059300613742 ]
    mass: 6.940000
    reduced_to: 7
  - symbol: Li # 8
    coordinates: [  0.478764270068072,  0.421799693733830,  0.138059300613742 ]
    mass: 6.940000
    reduced_to: 7
  - symbol: Li # 9
    coordinates: [  0.812097603401405,  0.421799693733830,  0.138059300613742 ]
    mass: 6.940000
    reduced_to: 7
  - symbol: Li # 10
    coordinates: [  0.145430936734738,  0.921799693733830,  0.138059300613742 ]
    mass: 6.940000
    reduced_to: 7
  - symbol: Li # 11
    coordinates: [  0.478764270068072,  0.921799693733830,  0.138059300613742 ]
    mass: 6.940000
    reduced_to: 7
  - symbol: Li # 12
    coordinates: [  0.812097603401405,  0.921799693733830,  0.138059300613742 ]
    mass: 6.940000
    reduced_to: 7
  - symbol: Li # 13
    coordinates: [  0.128973929121042,  0.372545359565298,  0.011493142211767 ]
    mass: 6.940000
    reduced_to: 13
  - symbol: Li # 14
    coordinates: [  0.462307262454375,  0.372545359565298,  0.011493142211767 ]
    mass: 6.940000
    reduced_to: 13
  - symbol: Li # 15
    coordinates: [  0.795640595787708,  0.372545359565298,  0.011493142211767 ]
    mass: 6.940000
    reduced_to: 13
  - symbol: Li # 16
    coordinates: [  0.128973929121042,  0.872545359565298,  0.011493142211767 ]
    mass: 6.940000
    reduced_to: 13
  - symbol: Li # 17
    coordinates: [  0.462307262454375,  0.872545359565298,  0.011493142211767 ]
    mass: 6.940000
    reduced_to: 13
  - symbol: Li # 18
    coordinates: [  0.795640595787708,  0.872545359565298,  0.011493142211767 ]
    mass: 6.940000
    reduced_to: 13
  - symbol: Li # 19
    coordinates: [  0.319341820549715,  0.443577255513156,  0.340317105987026 ]
    mass: 6.940000
    reduced_to: 19
  - symbol: Li # 20
    coordinates: [  0.652675153883048,  0.443577255513156,  0.340317105987026 ]
    mass: 6.940000
    reduced_to: 19
  - symbol: Li # 21
    coordinates: [  0.986008487216381,  0.443577255513156,  0.340317105987026 ]
    mass: 6.940000
    reduced_to: 19
  - symbol: Li # 22
    coordinates: [  0.319341820549715,  0.943577255513156,  0.340317105987026 ]
    mass: 6.940000
    reduced_to: 19
  - symbol: Li # 23
    coordinates: [  0.652675153883048,  0.943577255513156,  0.340317105987026 ]
    mass: 6.940000
    reduced_to: 19
  - symbol: Li # 24
    coordinates: [  0.986008487216381,  0.943577255513156,  0.340317105987026 ]
    mass: 6.940000
    reduced_to: 19
  - symbol: Sn # 25
    coordinates: [  0.029133116158317,  0.072905177408565,  0.201547296408598 ]
    mass: 118.710000
    reduced_to: 25
  - symbol: Sn # 26
    coordinates: [  0.362466449491650,  0.072905177408565,  0.201547296408598 ]
    mass: 118.710000
    reduced_to: 25
  - symbol: Sn # 27
    coordinates: [  0.695799782824984,  0.072905177408565,  0.201547296408598 ]
    mass: 118.710000
    reduced_to: 25
  - symbol: Sn # 28
    coordinates: [  0.029133116158317,  0.572905177408565,  0.201547296408598 ]
    mass: 118.710000
    reduced_to: 25
  - symbol: Sn # 29
    coordinates: [  0.362466449491650,  0.572905177408565,  0.201547296408598 ]
    mass: 118.710000
    reduced_to: 25
  - symbol: Sn # 30
    coordinates: [  0.695799782824984,  0.572905177408565,  0.201547296408598 ]
    mass: 118.710000
    reduced_to: 25
  - symbol: Sn # 31
    coordinates: [  0.322322693609374,  0.452109021130547,  0.482357898831601 ]
    mass: 118.710000
    reduced_to: 31
  - symbol: Sn # 32
    coordinates: [  0.655656026942707,  0.452109021130547,  0.482357898831601 ]
    mass: 118.710000
    reduced_to: 31
  - symbol: Sn # 33
    coordinates: [  0.988989360276041,  0.452109021130547,  0.482357898831601 ]
    mass: 118.710000
    reduced_to: 31
  - symbol: Sn # 34
    coordinates: [  0.322322693609374,  0.952109021130547,  0.482357898831601 ]
    mass: 118.710000
    reduced_to: 31
  - symbol: Sn # 35
    coordinates: [  0.655656026942707,  0.952109021130547,  0.482357898831601 ]
    mass: 118.710000
    reduced_to: 31
  - symbol: Sn # 36
    coordinates: [  0.988989360276041,  0.952109021130547,  0.482357898831601 ]
    mass: 118.710000
    reduced_to: 31
  - symbol: Sn # 37
    coordinates: [  0.064057091425368,  0.177135230856472,  0.823454084601224 ]
    mass: 118.710000
    reduced_to: 37
  - symbol: Sn # 38
    coordinates: [  0.397390424758701,  0.177135230856472,  0.823454084601224 ]
    mass: 118.710000
    reduced_to: 37
  - symbol: Sn # 39
    coordinates: [  0.730723758092034,  0.177135230856472,  0.823454084601224 ]
    mass: 118.710000
    reduced_to: 37
  - symbol: Sn # 40
    coordinates: [  0.064057091425368,  0.677135230856472,  0.823454084601224 ]
    mass: 118.710000
    reduced_to: 37
  - symbol: Sn # 41
    coordinates: [  0.397390424758701,  0.677135230856472,  0.823454084601224 ]
    mass: 118.710000
    reduced_to: 37
  - symbol: Sn # 42
    coordinates: [  0.730723758092034,  0.677135230856472,  0.823454084601224 ]
    mass: 118.710000
    reduced_to: 37
  - symbol: Sn # 43
    coordinates: [  0.215792992010390,  0.132116845468288,  0.696171475455509 ]
    mass: 118.710000
    reduced_to: 43
  - symbol: Sn # 44
    coordinates: [  0.549126325343723,  0.132116845468288,  0.696171475455509 ]
    mass: 118.710000
    reduced_to: 43
  - symbol: Sn # 45
    coordinates: [  0.882459658677056,  0.132116845468288,  0.696171475455509 ]
    mass: 118.710000
    reduced_to: 43
  - symbol: Sn # 46
    coordinates: [  0.215792992010390,  0.632116845468288,  0.696171475455509 ]
    mass: 118.710000
    reduced_to: 43
  - symbol: Sn # 47
    coordinates: [  0.549126325343723,  0.632116845468288,  0.696171475455509 ]
    mass: 118.710000
    reduced_to: 43
  - symbol: Sn # 48
    coordinates: [  0.882459658677056,  0.632116845468288,  0.696171475455509 ]
    mass: 118.710000
    reduced_to: 43
  - symbol: Sn # 49
    coordinates: [  0.115384266777039,  0.331792811364644,  0.267659083833576 ]
    mass: 118.710000
    reduced_to: 49
  - symbol: Sn # 50
    coordinates: [  0.448717600110372,  0.331792811364644,  0.267659083833576 ]
    mass: 118.710000
    reduced_to: 49
  - symbol: Sn # 51
    coordinates: [  0.782050933443705,  0.331792811364644,  0.267659083833576 ]
    mass: 118.710000
    reduced_to: 49
  - symbol: Sn # 52
    coordinates: [  0.115384266777039,  0.831792811364644,  0.267659083833576 ]
    mass: 118.710000
    reduced_to: 49
  - symbol: Sn # 53
    coordinates: [  0.448717600110372,  0.831792811364644,  0.267659083833576 ]
    mass: 118.710000
    reduced_to: 49
  - symbol: Sn # 54
    coordinates: [  0.782050933443705,  0.831792811364644,  0.267659083833576 ]
    mass: 118.710000
    reduced_to: 49
  - symbol: Sn # 55
    coordinates: [  0.304238297379607,  0.397561235189780,  0.764377695560616 ]
    mass: 118.710000
    reduced_to: 55
  - symbol: Sn # 56
    coordinates: [  0.637571630712941,  0.397561235189780,  0.764377695560616 ]
    mass: 118.710000
    reduced_to: 55
  - symbol: Sn # 57
    coordinates: [  0.970904964046274,  0.397561235189780,  0.764377695560616 ]
    mass: 118.710000
    reduced_to: 55
  - symbol: Sn # 58
    coordinates: [  0.304238297379607,  0.897561235189780,  0.764377695560616 ]
    mass: 118.710000
    reduced_to: 55
  - symbol: Sn # 59
    coordinates: [  0.637571630712941,  0.897561235189780,  0.764377695560616 ]
    mass: 118.710000
    reduced_to: 55
  - symbol: Sn # 60
    coordinates: [  0.970904964046274,  0.897561235189780,  0.764377695560616 ]
    mass: 118.710000
    reduced_to: 55
  - symbol: Sn # 61
    coordinates: [  0.097590247484790,  0.278159341707004,  0.421299421035855 ]
    mass: 118.710000
    reduced_to: 61
  - symbol: Sn # 62
    coordinates: [  0.430923580818124,  0.278159341707004,  0.421299421035855 ]
    mass: 118.710000
    reduced_to: 61
  - symbol: Sn # 63
    coordinates: [  0.764256914151457,  0.278159341707004,  0.421299421035855 ]
    mass: 118.710000
    reduced_to: 61
  - symbol: Sn # 64
    coordinates: [  0.097590247484790,  0.778159341707004,  0.421299421035855 ]
    mass: 118.710000
    reduced_to: 61
  - symbol: Sn # 65
    coordinates: [  0.430923580818124,  0.778159341707004,  0.421299421035855 ]
    mass: 118.710000
    reduced_to: 61
  - symbol: Sn # 66
    coordinates: [  0.764256914151457,  0.778159341707004,  0.421299421035855 ]
    mass: 118.710000
    reduced_to: 61
  - symbol: Sn # 67
    coordinates: [  0.102009450002699,  0.290835843796660,  0.608361893316250 ]
    mass: 118.710000
    reduced_to: 67
  - symbol: Sn # 68
    coordinates: [  0.435342783336032,  0.290835843796660,  0.608361893316250 ]
    mass: 118.710000
    reduced_to: 67
  - symbol: Sn # 69
    coordinates: [  0.768676116669365,  0.290835843796660,  0.608361893316250 ]
    mass: 118.710000
    reduced_to: 67
  - symbol: Sn # 70
    coordinates: [  0.102009450002699,  0.790835843796660,  0.608361893316250 ]
    mass: 118.710000
    reduced_to: 67
  - symbol: Sn # 71
    coordinates: [  0.435342783336032,  0.790835843796660,  0.608361893316250 ]
    mass: 118.710000
    reduced_to: 67
  - symbol: Sn # 72
    coordinates: [  0.768676116669365,  0.790835843796660,  0.608361893316250 ]
    mass: 118.710000
    reduced_to: 67
  - symbol: Sn # 73
    coordinates: [  0.217326377790073,  0.137528555475266,  0.344081862971458 ]
    mass: 118.710000
    reduced_to: 73
  - symbol: Sn # 74
    coordinates: [  0.550659711123406,  0.137528555475266,  0.344081862971458 ]
    mass: 118.710000
    reduced_to: 73
  - symbol: Sn # 75
    coordinates: [  0.883993044456739,  0.137528555475266,  0.344081862971458 ]
    mass: 118.710000
    reduced_to: 73
  - symbol: Sn # 76
    coordinates: [  0.217326377790073,  0.637528555475266,  0.344081862971458 ]
    mass: 118.710000
    reduced_to: 73
  - symbol: Sn # 77
    coordinates: [  0.550659711123406,  0.637528555475266,  0.344081862971458 ]
    mass: 118.710000
    reduced_to: 73
  - symbol: Sn # 78
    coordinates: [  0.883993044456739,  0.637528555475266,  0.344081862971458 ]
    mass: 118.710000
    reduced_to: 73
  - symbol: Sn # 79
    coordinates: [  0.024745990344400,  0.059759190772347,  0.042290799716676 ]
    mass: 118.710000
    reduced_to: 79
  - symbol: Sn # 80
    coordinates: [  0.358079323677733,  0.059759190772347,  0.042290799716676 ]
    mass: 118.710000
    reduced_to: 79
  - symbol: Sn # 81
    coordinates: [  0.691412657011066,  0.059759190772347,  0.042290799716676 ]
    mass: 118.710000
    reduced_to: 79
  - symbol: Sn # 82
    coordinates: [  0.024745990344400,  0.559759190772347,  0.042290799716676 ]
    mass: 118.710000
    reduced_to: 79
  - symbol: Sn # 83
    coordinates: [  0.358079323677733,  0.559759190772347,  0.042290799716676 ]
    mass: 118.710000
    reduced_to: 79
  - symbol: Sn # 84
    coordinates: [  0.691412657011066,  0.559759190772347,  0.042290799716676 ]
    mass: 118.710000
    reduced_to: 79
  - symbol: Sn # 85
    coordinates: [  0.249260604193540,  0.233361634060036,  0.106251521291968 ]
    mass: 118.710000
    reduced_to: 85
  - symbol: Sn # 86
    coordinates: [  0.582593937526873,  0.233361634060036,  0.106251521291968 ]
    mass: 118.710000
    reduced_to: 85
  - symbol: Sn # 87
    coordinates: [  0.915927270860206,  0.233361634060036,  0.106251521291968 ]
    mass: 118.710000
    reduced_to: 85
  - symbol: Sn # 88
    coordinates: [  0.249260604193540,  0.733361634060036,  0.106251521291968 ]
    mass: 118.710000
    reduced_to: 85
  - symbol: Sn # 89
    coordinates: [  0.582593937526873,  0.733361634060036,  0.106251521291968 ]
    mass: 118.710000
    reduced_to: 85
  - symbol: Sn # 90
    coordinates: [  0.915927270860206,  0.733361634060036,  0.106251521291968 ]
    mass: 118.710000
    reduced_to: 85
  - symbol: Sn # 91
    coordinates: [  0.157512340746940,  0.457507101000417,  0.880197397389394 ]
    mass: 118.710000
    reduced_to: 91
  - symbol: Sn # 92
    coordinates: [  0.490845674080273,  0.457507101000417,  0.880197397389394 ]
    mass: 118.710000
    reduced_to: 91
  - symbol: Sn # 93
    coordinates: [  0.824179007413606,  0.457507101000417,  0.880197397389394 ]
    mass: 118.710000
    reduced_to: 91
  - symbol: Sn # 94
    coordinates: [  0.157512340746940,  0.957507101000417,  0.880197397389394 ]
    mass: 118.710000
    reduced_to: 91
  - symbol: Sn # 95
    coordinates: [  0.490845674080273,  0.957507101000417,  0.880197397389394 ]
    mass: 118.710000
    reduced_to: 91
  - symbol: Sn # 96
    coordinates: [  0.824179007413606,  0.957507101000417,  0.880197397389394 ]
    mass: 118.710000
    reduced_to: 91
  - symbol: Sn # 97
    coordinates: [  0.213207040028740,  0.124554702795878,  0.542917915827597 ]
    mass: 118.710000
    reduced_to: 97
  - symbol: Sn # 98
    coordinates: [  0.546540373362073,  0.124554702795878,  0.542917915827597 ]
    mass: 118.710000
    reduced_to: 97
  - symbol: Sn # 99
    coordinates: [  0.879873706695406,  0.124554702795878,  0.542917915827597 ]
    mass: 118.710000
    reduced_to: 97
  - symbol: Sn # 100
    coordinates: [  0.213207040028740,  0.624554702795878,  0.542917915827597 ]
    mass: 118.710000
    reduced_to: 97
  - symbol: Sn # 101
    coordinates: [  0.546540373362073,  0.624554702795878,  0.542917915827597 ]
    mass: 118.710000
    reduced_to: 97
  - symbol: Sn # 102
    coordinates: [  0.879873706695406,  0.624554702795878,  0.542917915827597 ]
    mass: 118.710000
    reduced_to: 97
  - symbol: Sn # 103
    coordinates: [  0.244318298806610,  0.218489067547340,  0.949932499979150 ]
    mass: 118.710000
    reduced_to: 103
  - symbol: Sn # 104
    coordinates: [  0.577651632139943,  0.218489067547340,  0.949932499979150 ]
    mass: 118.710000
    reduced_to: 103
  - symbol: Sn # 105
    coordinates: [  0.910984965473277,  0.218489067547340,  0.949932499979150 ]
    mass: 118.710000
    reduced_to: 103
  - symbol: Sn # 106
    coordinates: [  0.244318298806610,  0.718489067547340,  0.949932499979150 ]
    mass: 118.710000
    reduced_to: 103
  - symbol: Sn # 107
    coordinates: [  0.577651632139943,  0.718489067547340,  0.949932499979150 ]
    mass: 118.710000
    reduced_to: 103
  - symbol: Sn # 108
    coordinates: [  0.910984965473277,  0.718489067547340,  0.949932499979150 ]
    mass: 118.710000
    reduced_to: 103

displacements:
- atom:    1
  displacement:
    [   0.0100000000000000,  0.0000000000000000,  0.0000000000000000 ]
  forces:
  - [  -0.0200969818979502, -0.0394380018115044,  0.0010639913380146 ]
  - [  -0.0008691009134054, -0.0394975319504738,  0.0010443553328514 ]
  - [  -0.0008797254413366, -0.0394415408372879,  0.0008968971669674 ]
  - [  -0.0000991077686194, -0.0392273738980293,  0.0008757300674915 ]
  - [  -0.0001209514084621, -0.0394788011908531,  0.0010155253112316 ]
  - [  -0.0001228932233062, -0.0397165864706039,  0.0010178908705711 ]
  - [   0.0001007704704534, -0.0085682086646557,  0.0052204057574272 ]
  - [   0.0001012670400087, -0.0085669467225671,  0.0052195563912392 ]
  - [   0.0001008613180602, -0.0085673090070486,  0.0052194856107235 ]
  - [   0.0001000147458399, -0.0085667520761490,  0.0052190013229847 ]
  - [   0.0001012105349218, -0.0085669029504061,  0.0052193403244019 ]
  - [   0.0001004691439448, -0.0085682161152363,  0.0052202418446541 ]
  - [   0.0001881670614239,  0.0136138424277306,  0.0048963092267513 ]
  - [   0.0001881800999399,  0.0136147346347570,  0.0048866104334593 ]
  - [   0.0001885816309368,  0.0136129464954138,  0.0048918239772320 ]
  - [   0.0001876514870673,  0.0136144338175654,  0.0048930291086435 ]
  - [   0.0001889979466796,  0.0136142466217279,  0.0048914402723312 ]
  - [   0.0001876670867205,  0.0136140687391162,  0.0048909857869148 ]
  - [   0.0001646436867304,  0.0419939383864403, -0.0280788466334343 ]
  - [   0.0001114502447308,  0.0419981889426708, -0.0280574206262827 ]
  - [   0.0001087121781893,  0.0419845022261143, -0.0281039997935295 ]
  - [   0.0001199944963446,  0.0419971793889999, -0.0281057357788086 ]
  - [   0.0001217389071826,  0.0419941879808903, -0.0280494913458824 ]
  - [   0.0001150258613052,  0.0419906824827194, -0.0280915088951588 ]
  - [   0.0001219446567120, -0.0095628304407001, -0.0257180873304605 ]
  - [   0.0001184854190797, -0.0095638372004032, -0.0257197022438049 ]
  - [   0.0001187513917102, -0.0095635764300823, -0.0257190540432930 ]
  - [   0.0001195866207127, -0.0095625165849924, -0.0257184971123934 ]
  - [   0.0001199105754495, -0.0095641976222396, -0.0257187075912952 ]
  - [   0.0001189205795527, -0.0095649296417832, -0.0257194600999355 ]
  - [  -0.0001175841316581,  0.0048533696681261, -0.0033462075516582 ]
  - [   0.0000459980219603,  0.0049040894955397, -0.0034996299073100 ]
  - [   0.0000497279688716,  0.0047704912722111, -0.0031706374138594 ]
  - [  -0.0001075116597349,  0.0050977449864149, -0.0035255253314972 ]
  - [   0.0001502501254436,  0.0045629199594259, -0.0031707743182778 ]
  - [  -0.0001651526545174,  0.0048527996987104, -0.0033099213615060 ]
  - [  -0.0002864798589144, -0.0025989441201091,  0.0012579290196300 ]
  - [  -0.0002852567413356, -0.0024148565717041,  0.0010563195683062 ]
  - [  -0.0001240095007233, -0.0023457505740225,  0.0012334743514657 ]
  - [  -0.0000283150002360, -0.0024429378099740,  0.0010247603058815 ]
  - [  -0.0002794712781906, -0.0024541411548853,  0.0011783055961132 ]
  - [  -0.0000585876405239, -0.0024737333878875,  0.0013472056016326 ]
  - [   0.0000811790232547, -0.0208669975399971, -0.0076842382550240 ]
  - [  -0.0004154909402132, -0.0207537673413754, -0.0076578445732594 ]
  - [  -0.0003745178983081, -0.0209186263382435, -0.0078088678419590 ]
  - [   0.0021530999802053, -0.0227660741657019, -0.0094553008675575 ]
  - [   0.0022097185719758, -0.0188553966581821, -0.0059035494923592 ]
  - [  -0.0002178458234994, -0.0208432301878929, -0.0077257007360458 ]
  - [   0.0002312350407010, -0.0151567384600639, -0.0018756724894047 ]
  - [   0.0002308330876986, -0.0151517465710640, -0.0018750727176666 ]
  - [   0.0002382942329859, -0.0151546411216259, -0.0018733926117420 ]
  - [   0.0002294291625731, -0.0151550080627203, -0.0018957797437906 ]
  - [   0.0002405031409580, -0.0151558853685856, -0.0018742084503174 ]
  - [   0.0002289734547958, -0.0151523035019636, -0.0018514338880777 ]
  - [  -0.0003865948528983, -0.0113688334822655, -0.0017403708770871 ]
  - [  -0.0001984709087992, -0.0113666914403439, -0.0016047880053520 ]
  - [  -0.0002033159835264, -0.0114000700414181, -0.0018054898828268 ]
  - [  -0.0003975077997893, -0.0109652578830719, -0.0015632212162018 ]
  - [  -0.0001306054182351, -0.0116958878934383, -0.0019301529973745 ]
  - [  -0.0004061184008606, -0.0114890523254871, -0.0016312208026648 ]
  - [   0.0000137172319228,  0.0272836387157440, -0.0082518346607685 ]
  - [   0.0000122865603771,  0.0274174138903618, -0.0082727968692780 ]
  - [   0.0000616151664872,  0.0273311473429203, -0.0082661500200629 ]
  - [   0.0002510016784072,  0.0273110903799534, -0.0080592799931765 ]
  - [   0.0000593755394220,  0.0273527950048447, -0.0082567213103175 ]
  - [   0.0002372395247221,  0.0273664034903049, -0.0084849679842591 ]
  - [   0.0047924388200045, -0.0236441101878881,  0.0045673064887524 ]
  - [   0.0049156644381583, -0.0359250307083130,  0.0045376922935247 ]
  - [   0.0001707716437522, -0.0297372806817293,  0.0045706145465374 ]
  - [  -0.0004145523416810, -0.0295448675751686,  0.0045391488820314 ]
  - [  -0.0015211186837405, -0.0298323035240173,  0.0046127196401358 ]
  - [  -0.0004385612555780, -0.0298224892467260,  0.0045529436320066 ]
  - [   0.0001957990752999,  0.0362363457679749,  0.0209706611931324 ]
  - [   0.0001568363513798,  0.0362273566424847,  0.0210088957101107 ]
  - [   0.0001628638419788,  0.0362010523676872,  0.0209460072219372 ]
  - [   0.0001892410800792,  0.0362111106514931,  0.0209544897079468 ]
  - [   0.0001892214932013,  0.0362357087433338,  0.0209981594234705 ]
  - [   0.0001345643540844,  0.0362229980528355,  0.0209756419062614 ]
  - [   0.0001457327452954,  0.0048391516320407,  0.0004651397466660 ]
  - [   0.0001438776671421,  0.0048369406722486,  0.0004639700055122 ]
  - [   0.0001438000181224,  0.0048406198620796,  0.0004655029624701 ]
  - [   0.0001445192610845,  0.0048371832817793,  0.0004652962088585 ]
  - [   0.0001435978338122,  0.0048382421955466,  0.0004658568650484 ]
  - [   0.0001441813074052,  0.0048384265974164,  0.0004674028605223 ]
  - [   0.0001529520231998,  0.0049784872680902,  0.0072270827367902 ]
  - [   0.0001531752495794,  0.0049788746982813,  0.0072284080088139 ]
  - [   0.0001536796626169,  0.0049795010127127,  0.0072264871560037 ]
  - [   0.0001535294286441,  0.0049799066036940,  0.0072271032258868 ]
  - [   0.0001525879051769,  0.0049785738810897,  0.0072279842570424 ]
  - [   0.0001535575574962,  0.0049797194078565,  0.0072277523577213 ]
  - [  -0.0003047902428079,  0.0070128291845322,  0.0133588500320911 ]
  - [  -0.0003058622532990,  0.0068855844438076,  0.0132140256464481 ]
  - [  -0.0002825219999067,  0.0069438721984625,  0.0132822990417480 ]
  - [  -0.0001779397280188,  0.0069573801010847,  0.0132714882493019 ]
  - [  -0.0003055399283767,  0.0069780312478542,  0.0132633857429028 ]
  - [  -0.0002667801454663,  0.0069116912782192,  0.0133260674774647 ]
  - [   0.0005072387866676, -0.0159852690994740,  0.0049959756433964 ]
  - [   0.0000850912183523, -0.0160903222858906,  0.0045148413628340 ]
  - [   0.0000006749760360, -0.0157568696886301,  0.0054486310109496 ]
  - [   0.0030651870183647, -0.0183119121938944,  0.0090979095548391 ]
  - [   0.0031247742008418, -0.0135202314704657,  0.0007656775414944 ]
  - [  -0.0000608318950981, -0.0159586481750011,  0.0049856686964631 ]
  - [   0.0001778313890100,  0.0123313590884209,  0.0129310619086027 ]
  - [   0.0001752502284944,  0.0123316682875156,  0.0129288136959076 ]
  - [   0.0001755270641297,  0.0123259499669075,  0.0129264201968908 ]
  - [   0.0001837015151978,  0.0123362317681313,  0.0129457376897335 ]
  - [   0.0001863976940513,  0.0123271942138672,  0.0129140466451645 ]
  - [   0.0001583446282893,  0.0123331248760223,  0.0129274930804968 ]
- atom:    1
  displacement:
    [  -0.0100000000000000,  0.0000000000000000,  0.0000000000000000 ]
  forces:
  - [   0.0197477396577597, -0.0393876619637012,  0.0010474212467670 ]
  - [   0.0005307830870152, -0.0394386909902096,  0.0008936747908592 ]
  - [   0.0005201846361160, -0.0394954383373260,  0.0010434575378895 ]
  - [  -0.0002424964768579, -0.0397224947810173,  0.0010648071765900 ]
  - [  -0.0002274161524838, -0.0394689664244652,  0.0009215250611305 ]
  - [  -0.0002294066653121, -0.0392339378595352,  0.0009230747818947 ]
  - [   0.0001006478560157, -0.0085679190233350,  0.0052196085453033 ]
  - [   0.0001012834400171, -0.0085672326385975,  0.0052200220525265 ]
  - [   0.0001008525578072, -0.0085674896836281,  0.0052197538316250 ]
  - [   0.0001000855263555, -0.0085669290274382,  0.0052205547690392 ]
  - [   0.0001014601293718, -0.0085668712854385,  0.0052193962037563 ]