# Thermal properties / unit cell (natom)

unit:
  temperature:   K
  free_energy:   kJ/mol
  entropy:       J/K/mol
  heat_capacity: J/K/mol

natom: 4    
cutoff_frequency: 0.00000
num_modes: 165888
num_integrated_modes: 139559

zero_point_energy:       8.3955910

thermal_properties:
- temperature:         0.0000000
  free_energy:         8.3955910
  entropy:             0.0000000
  heat_capacity:       0.0000000
  energy:              8.3955910

- temperature:        10.0000000
  free_energy:         8.3893055
  entropy:             1.9218961
  heat_capacity:       3.5076482
  energy:              8.4085245

- temperature:        20.0000000
  free_energy:         8.3497198
  entropy:             6.2755526
  heat_capacity:      10.3501031
  energy:              8.4752308

- temperature:        30.0000000
  free_energy:         8.2589701
  entropy:            12.0504796
  heat_capacity:      18.7089488
  energy:              8.6204845

- temperature:        40.0000000
  free_energy:         8.1063821
  entropy:            18.5380454
  heat_capacity:      26.6697957
  energy:              8.8479039

- temperature:        50.0000000
  free_energy:         7.8873644
  entropy:            25.2862530
  heat_capacity:      33.9708274
  energy:              9.1516770

- temperature:        60.0000000
  free_energy:         7.6005369
  entropy:            32.0732697
  heat_capacity:      40.5553571
  energy:              9.5249331

- temperature:        70.0000000
  free_energy:         7.2462000
  entropy:            38.7714395
  heat_capacity:      46.3667240
  energy:              9.9602008

- temperature:        80.0000000
  free_energy:         6.8256778
  entropy:            45.2997090
  heat_capacity:      51.3961060
  energy:             10.4496545

- temperature:        90.0000000
  free_energy:         6.3409414
  entropy:            51.6080411
  heat_capacity:      55.6892702
  energy:             10.9856651

- temperature:       100.0000000
  free_energy:         5.7943432
  entropy:            57.6690557
  heat_capacity:      59.3254218
  energy:             11.5612487

- temperature:       110.0000000
  free_energy:         5.1884235
  entropy:            63.4714832
  heat_capacity:      62.3953808
  energy:             12.1702866

- temperature:       120.0000000
  free_energy:         4.5257776
  entropy:            69.0148949
  heat_capacity:      64.9876207
  energy:             12.8075650

- temperature:       130.0000000
  free_energy:         3.8089679
  entropy:            74.3057270
  heat_capacity:      67.1814955
  energy:             13.4687125

- temperature:       140.0000000
  free_energy:         3.0404703
  entropy:            79.3544620
  heat_capacity:      69.0450127
  energy:             14.1500950

- temperature:       150.0000000
  free_energy:         2.2226437
  entropy:            84.1737218
  heat_capacity:      70.6349799
  energy:             14.8487020

- temperature:       160.0000000
  free_energy:         1.3577157
  entropy:            88.7770245
  heat_capacity:      71.9981857
  energy:             15.5620397

- temperature:       170.0000000
  free_energy:         0.4477776
  entropy:            93.1780034
  heat_capacity:      73.1728961
  energy:             16.2880382

- temperature:       180.0000000
  free_energy:        -0.5052142
  entropy:            97.3899344
  heat_capacity:      74.1903253
  energy:             17.0249739

- temperature:       190.0000000
  free_energy:        -1.4994332
  entropy:           101.4254684
  heat_capacity:      75.0759404
  energy:             17.7714058

- temperature:       200.0000000
  free_energy:        -2.5331753
  entropy:           105.2964926
  heat_capacity:      75.8505619
  energy:             18.5261232

- temperature:       210.0000000
  free_energy:        -3.6048517
  entropy:           109.0140761
  heat_capacity:      76.5312656
  energy:             19.2881043

- temperature:       220.0000000
  free_energy:        -4.7129796
  entropy:           112.5884646
  heat_capacity:      77.1321109
  energy:             20.0564826

- temperature:       230.0000000
  free_energy:        -5.8561752
  entropy:           116.0291066
  heat_capacity:      77.6647238
  energy:             20.8305193

- temperature:       240.0000000
  free_energy:        -7.0331450
  entropy:           119.3446958
  heat_capacity:      78.1387624
  energy:             21.6095820

- temperature:       250.0000000
  free_energy:        -8.2426790
  entropy:           122.5432213
  heat_capacity:      78.5622871
  energy:             22.3931263

- temperature:       260.0000000
  free_energy:        -9.4836437
  entropy:           125.6320221
  heat_capacity:      78.9420569
  energy:             23.1806820

- temperature:       270.0000000
  free_energy:       -10.7549762
  entropy:           128.6178404
  heat_capacity:      79.2837654
  energy:             23.9718407

- temperature:       280.0000000
  free_energy:       -12.0556780
  entropy:           131.5068734
  heat_capacity:      79.5922309
  energy:             24.7662466

- temperature:       290.0000000
  free_energy:       -13.3848101
  entropy:           134.3048218
  heat_capacity:      79.8715487
  energy:             25.5635882

- temperature:       300.0000000
  free_energy:       -14.7414884
  entropy:           137.0169348
  heat_capacity:      80.1252147
  energy:             26.3635921

- temperature:       310.0000000
  free_energy:       -16.1248789
  entropy:           139.6480513
  heat_capacity:      80.3562253
  energy:             27.1660170

- temperature:       320.0000000
  free_energy:       -17.5341943
  entropy:           142.2026376
  heat_capacity:      80.5671593
  energy:             27.9706497

- temperature:       330.0000000
  free_energy:       -18.9686903
  entropy:           144.6848214
  heat_capacity:      80.7602443
  energy:             28.7773008

- temperature:       340.0000000
  free_energy:       -20.4276622
  entropy:           147.0984228
  heat_capacity:      80.9374119
  energy:             29.5858016

- temperature:       350.0000000
  free_energy:       -21.9104420
  entropy:           149.4469816
  heat_capacity:      81.1003428
  energy:             30.3960016

- temperature:       360.0000000
  free_energy:       -23.4163960
  entropy:           151.7337829
  heat_capacity:      81.2505043
  energy:             31.2077659

- temperature:       370.0000000
  free_energy:       -24.9449220
  entropy:           153.9618794
  heat_capacity:      81.3891820
  energy:             32.0209734

- temperature:       380.0000000
  free_energy:       -26.4954474
  entropy:           156.1341115
  heat_capacity:      81.5175052
  energy:             32.8355150

- temperature:       390.0000000
  free_energy:       -28.0674268
  entropy:           158.2531260
  heat_capacity:      81.6364693
  energy:             33.6512923

- temperature:       400.0000000
  free_energy:       -29.6603407
  entropy:           160.3213922
  heat_capacity:      81.7469542
  energy:             34.4682162

- temperature:       410.0000000
  free_energy:       -31.2736932
  entropy:           162.3412170
  heat_capacity:      81.8497397
  energy:             35.2862057

- temperature:       420.0000000
  free_energy:       -32.9070108
  entropy:           164.3147581
  heat_capacity:      81.9455187
  energy:             36.1051876

- temperature:       430.0000000
  free_energy:       -34.5598409
  entropy:           166.2440365
  heat_capacity:      82.0349086
  energy:             36.9250948

- temperature:       440.0000000
  free_energy:       -36.2317503
  entropy:           168.1309469
  heat_capacity:      82.1184609
  energy:             37.7458663

- temperature:       450.0000000
  free_energy:       -37.9223245
  entropy:           169.9772683
  heat_capacity:      82.1966692
  energy:             38.5674462

- temperature:       460.0000000
  free_energy:       -39.6311660
  entropy:           171.7846725
  heat_capacity:      82.2699765
  energy:             39.3897834

- temperature:       470.0000000
  free_energy:       -41.3578935
  entropy:           173.5547325
  heat_capacity:      82.3387811
  energy:             40.2128308

- temperature:       480.0000000
  free_energy:       -43.1021411
  entropy:           175.2889298
  heat_capacity:      82.4034419
  energy:             41.0365452

- temperature:       490.0000000
  free_energy:       -44.8635572
  entropy:           176.9886614
  heat_capacity:      82.4642830
  energy:             41.8608869

- temperature:       500.0000000
  free_energy:       -46.6418039
  entropy:           178.6552459
  heat_capacity:      82.5215977
  energy:             42.6858191

- temperature:       510.0000000
  free_energy:       -48.4365558
  entropy:           180.2899289
  heat_capacity:      82.5756517
  energy:             43.5113080

- temperature:       520.0000000
  free_energy:       -50.2475000
  entropy:           181.8938886
  heat_capacity:      82.6266863
  energy:             44.3373221

- temperature:       530.0000000
  free_energy:       -52.0743349
  entropy:           183.4682401
  heat_capacity:      82.6749212
  energy:             45.1638323

- temperature:       540.0000000
  free_energy:       -53.9167697
  entropy:           185.0140398
  heat_capacity:      82.7205563
  energy:             45.9908118

- temperature:       550.0000000
  free_energy:       -55.7745239
  entropy:           186.5322896
  heat_capacity:      82.7637743
  energy:             46.8182354

- temperature:       560.0000000
  free_energy:       -57.6473268
  entropy:           188.0239404
  heat_capacity:      82.8047421
  energy:             47.6460798

- temperature:       570.0000000
  free_energy:       -59.5349170
  entropy:           189.4898953
  heat_capacity:      82.8436125
  energy:             48.4743233

- temperature:       580.0000000
  free_energy:       -61.4370419
  entropy:           190.9310129
  heat_capacity:      82.8805257
  energy:             49.3029455

- temperature:       590.0000000
  free_energy:       -63.3534572
  entropy:           192.3481100
  heat_capacity:      82.9156102
  energy:             50.1319277

- temperature:       600.0000000
  free_energy:       -65.2839266
  entropy:           193.7419645
  heat_capacity:      82.9489845
  energy:             50.9612520

- temperature:       610.0000000
  free_energy:       -67.2282215
  entropy:           195.1133173
  heat_capacity:      82.9807574
  energy:             51.7909020

- temperature:       620.0000000
  free_energy:       -69.1861203
  entropy:           196.4628751
  heat_capacity:      83.0110294
  energy:             52.6208622

- temperature:       630.0000000
  free_energy:       -71.1574086
  entropy:           197.7913120
  heat_capacity:      83.0398932
  energy:             53.4511179

- temperature:       640.0000000
  free_energy:       -73.1418783
  entropy:           199.0992718
  heat_capacity:      83.0674345
  energy:             54.2816556

- temperature:       650.0000000
  free_energy:       -75.1393278
  entropy:           200.3873697
  heat_capacity:      83.0937325
  energy:             55.1124625

- temperature:       660.0000000
  free_energy:       -77.1495615
  entropy:           201.6561938
  heat_capacity:      83.1188608
  energy:             55.9435264

- temperature:       670.0000000
  free_energy:       -79.1723893
  entropy:           202.9063065
  heat_capacity:      83.1428875
  energy:             56.7748360

- temperature:       680.0000000
  free_energy:       -81.2076270
  entropy:           204.1382467
  heat_capacity:      83.1658757
  energy:             57.6063807

- temperature:       690.0000000
  free_energy:       -83.2550954
  entropy:           205.3525300
  heat_capacity:      83.1878844
  energy:             58.4381503

- temperature:       700.0000000
  free_energy:       -85.3146204
  entropy:           206.5496510
  heat_capacity:      83.2089682
  energy:             59.2701353

- temperature:       710.0000000
  free_energy:       -87.3860328
  entropy:           207.7300839
  heat_capacity:      83.2291781
  energy:             60.1023267

- temperature:       720.0000000
  free_energy:       -89.4691680
  entropy:           208.8942835
  heat_capacity:      83.2485616
  energy:             60.9347161

- temperature:       730.0000000
  free_energy:       -91.5638658
  entropy:           210.0426866
  heat_capacity:      83.2671630
  energy:             61.7672954

- temperature:       740.0000000
  free_energy:       -93.6699705
  entropy:           211.1757127
  heat_capacity:      83.2850236
  energy:             62.6000569

- temperature:       750.0000000
  free_energy:       -95.7873302
  entropy:           212.2937649
  heat_capacity:      83.3021823
  energy:             63.4329935

- temperature:       760.0000000
  free_energy:       -97.9157972
  entropy:           213.3972309
  heat_capacity:      83.3186752
  energy:             64.2660983

- temperature:       770.0000000
  free_energy:      -100.0552274
  entropy:           214.4864835
  heat_capacity:      83.3345362
  energy:             65.0993649

- temperature:       780.0000000
  free_energy:      -102.2054806
  entropy:           215.5618817
  heat_capacity:      83.3497972
  energy:             65.9327870

- temperature:       790.0000000
  free_energy:      -104.3664200
  entropy:           216.6237708
  heat_capacity:      83.3644879
  energy:             66.7663589

- temperature:       800.0000000
  free_energy:      -106.5379121
  entropy:           217.6724839
  heat_capacity:      83.3786363
  energy:             67.6000750

- temperature:       810.0000000
  free_energy:      -108.7198269
  entropy:           218.7083417
  heat_capacity:      83.3922688
  energy:             68.4339299

- temperature:       820.0000000
  free_energy:      -110.9120372
  entropy:           219.7316535
  heat_capacity:      83.4054101
  energy:             69.2679187

- temperature:       830.0000000
  free_energy:      -113.1144191
  entropy:           220.7427177
  heat_capacity:      83.4180834
  energy:             70.1020366

- temperature:       840.0000000
  free_energy:      -115.3268516
  entropy:           221.7418221
  heat_capacity:      83.4303107
  energy:             70.9362789

- temperature:       850.0000000
  free_energy:      -117.5492166
  entropy:           222.7292447
  heat_capacity:      83.4421126
  energy:             71.7706414

- temperature:       860.0000000
  free_energy:      -119.7813985
  entropy:           223.7052538
  heat_capacity:      83.4535085
  energy:             72.6051198

- temperature:       870.0000000
  free_energy:      -122.0232845
  entropy:           224.6701089
  heat_capacity:      83.4645169
  energy:             73.4397103

- temperature:       880.0000000
  free_energy:      -124.2747643
  entropy:           225.6240605
  heat_capacity:      83.4751551
  energy:             74.2744089

- temperature:       890.0000000
  free_energy:      -126.5357302
  entropy:           226.5673510
  heat_capacity:      83.4854394
  energy:             75.1092122

- temperature:       900.0000000
  free_energy:      -128.8060766
  entropy:           227.5002146
  heat_capacity:      83.4953854
  energy:             75.9441166

- temperature:       910.0000000
  free_energy:      -131.0857005
  entropy:           228.4228783
  heat_capacity:      83.5050076
  energy:             76.7791188

- temperature:       920.0000000
  free_energy:      -133.3745009
  entropy:           229.3355615
  heat_capacity:      83.5143201
  energy:             77.6142157

- temperature:       930.0000000
  free_energy:      -135.6723791
  entropy:           230.2384767
  heat_capacity:      83.5233359
  energy:             78.4494042

- temperature:       940.0000000
  free_energy:      -137.9792386
  entropy:           231.1318298
  heat_capacity:      83.5320674
  energy:             79.2846815

- temperature:       950.0000000
  free_energy:      -140.2949845
  entropy:           232.0158202
  heat_capacity:      83.5405265
  energy:             80.1200447

- temperature:       960.0000000
  free_energy:      -142.6195244
  entropy:           232.8906412
  heat_capacity:      83.5487244
  energy:             80.9554911

- temperature:       970.0000000
  free_energy:      -144.9527674
  entropy:           233.7564801
  heat_capacity:      83.5566717
  energy:             81.7910183

- temperature:       980.0000000
  free_energy:      -147.2946247
  entropy:           234.6135188
  heat_capacity:      83.5643785
  energy:             82.6266238

- temperature:       990.0000000
  free_energy:      -149.6450090
  entropy:           235.4619335
  heat_capacity:      83.5718543
  energy:             83.4623051

- temperature:      1000.0000000
  free_energy:      -152.0038352
  entropy:           236.3018953
  heat_capacity:      83.5791084
  energy:             84.2980601
