# Tetrahedron method
       -2.8165604906        0.0000000000
       -2.7596223297        0.0000000000
       -2.7026841688        0.0000000000
       -2.6457460079        0.0000000000
       -2.5888078470        0.0000000000
       -2.5318696861        0.0000000000
       -2.4749315252        0.0000000000
       -2.4179933643        0.0000000000
       -2.3610552034        0.0000000000
       -2.3041170425        0.0000000000
       -2.2471788815        0.0000000000
       -2.1902407206        0.0000000000
       -2.1333025597        0.0000000000
       -2.0763643988        0.0000000000
       -2.0194262379        0.0000000000
       -1.9624880770        0.0000000000
       -1.9055499161        0.0000000000
       -1.8486117552        0.1874136345
       -1.7916735943        0.5212238440
       -1.7347354334        0.7155968699
       -1.6777972725        0.8273544042
       -1.6208591116        0.9122391881
       -1.5639209507        1.0135116859
       -1.5069827898        1.0543583395
       -1.4500446288        1.1356305592
       -1.3931064679        1.1922101201
       -1.3361683070        1.2797033211
       -1.2792301461        1.3683647626
       -1.2222919852        1.4998953787
       -1.1653538243        1.4508560364
       -1.1084156634        1.2534665251
       -1.0514775025        1.2054609304
       -0.9945393416        1.5158327393
       -0.9376011807        1.7426138343
       -0.8806630198        1.7324272756
       -0.8237248589        2.0856504921
       -0.7667866980        1.9119154295
       -0.7098485370        1.4980719804
       -0.6529103761        1.2043370216
       -0.5959722152        1.0526684199
       -0.5390340543        0.9313806637
       -0.4820958934        0.8104491728
       -0.4251577325        0.6503564299
       -0.3682195716        0.5162992125
       -0.3112814107        0.4242778265
       -0.2543432498        0.3714190459
       -0.1974050889        0.3367424175
       -0.1404669280        0.3042638431
       -0.0835287671        0.2949118053
       -0.0265906062        0.3010685446
        0.0303475548        0.3057669760
        0.0872857157        0.3133906853
        0.1442238766        0.3261638123
        0.2011620375        0.3491076870
        0.2581001984        0.3977553784
        0.3150383593        0.4973128600
        0.3719765202        0.6962267785
        0.4289146811        0.8113457071
        0.4858528420        0.8884205454
        0.5427910029        1.0496436735
        0.5997291638        0.7289850180
        0.6566673247        0.8014614198
        0.7136054856        0.9677656240
        0.7705436466        1.0020586428
        0.8274818075        1.2052444114
        0.8844199684        1.2176184670
        0.9413581293        0.8167853961
        0.9982962902        0.8173615996
        1.0552344511        0.8894210374
        1.1121726120        0.9313773643
        1.1691107729        0.7639791429
        1.2260489338        0.6875721223
        1.2829870947        0.6461742525
        1.3399252556        0.5540056737
        1.3968634165        0.4669613656
        1.4538015774        0.2947183009
        1.5107397384        0.3364069807
        1.5676778993        0.3596994189
        1.6246160602        0.6773024123
        1.6815542211        1.1729693121
        1.7384923820        2.0793405476
        1.7954305429        2.3670848435
        1.8523687038        2.2246838105
        1.9093068647        2.5767136741
        1.9662450256        4.0188453976
        2.0231831865        3.1798834999
        2.0801213474        2.4616767158
        2.1370595083        2.1049226050
        2.1939976692        2.2371909159
        2.2509358302        2.8013689265
        2.3078739911        3.4306151377
        2.3648121520        6.2239214397
        2.4217503129        4.3285071414
        2.4786884738        3.5415292002
        2.5356266347        2.8687921049
        2.5925647956        3.3026785661
        2.6495029565        2.6201567986
        2.7064411174        0.0000000000
        2.7633792783        0.0000000000
        2.8203174392        0.0000000000
        2.8772556001        0.0000000000
        2.9341937610        0.0000000000
        2.9911319220        0.0000000000
        3.0480700829        0.0000000000
        3.1050082438        0.0000000000
        3.1619464047        0.0000000000
        3.2188845656        0.0000000000
        3.2758227265        0.0000000000
        3.3327608874        0.0000000000
        3.3896990483        0.0000000000
        3.4466372092        0.0000000000
        3.5035753701        0.0000000000
        3.5605135310        0.0000000000
        3.6174516919        0.0000000000
        3.6743898528        0.0000000000
        3.7313280138        0.3886380936
        3.7882661747        2.2074577214
        3.8452043356        2.0561964375
        3.9021424965        1.8710706367
        3.9590806574        1.8360705208
        4.0160188183        2.3125128171
        4.0729569792        5.8066444555
        4.1298951401        5.8534095116
        4.1868333010        4.6740129240
        4.2437714619        3.5221614667
        4.3007096228        4.4429580387
        4.3576477837        1.8451230058
        4.4145859446        0.1090458555
        4.4715241056        0.1487429082
        4.5284622665        0.1859673933
        4.5854004274        0.2363353356
        4.6423385883        0.2941894395
        4.6992767492        0.3674991032
        4.7562149101        0.4662047754
        4.8131530710        0.5971290356
        4.8700912319        0.7981385839
        4.9270293928        0.9316400936
        4.9839675537        0.9727918518
        5.0409057146        1.0080607777
        5.0978438755        1.0372795383
        5.1547820364        1.0551040517
        5.2117201974        1.0676474347
        5.2686583583        1.0686507543
        5.3255965192        1.0570781245
        5.3825346801        1.0363423734
        5.4394728410        0.9992986312
        5.4964110019        0.9547940644
        5.5533491628        0.8859338340
        5.6102873237        0.8020038922
        5.6672254846        0.6813223240
        5.7241636455        0.3398554190
        5.7811018064        0.2426439525
        5.8380399673        0.1879194643
        5.8949781282        0.2066392315
        5.9519162892        0.2857558795
        6.0088544501        0.4048827122
        6.0657926110        0.5157763165
        6.1227307719        0.6119966902
        6.1796689328        0.7064163110
        6.2366070937        0.7937870662
        6.2935452546        0.8796774736
        6.3504834155        0.9560836125
        6.4074215764        1.0338957076
        6.4643597373        1.0986674151
        6.5212978982        1.1562066269
        6.5782360591        1.2010665504
        6.6351742200        1.2291698773
        6.6921123810        1.2425821362
        6.7490505419        1.2165022505
        6.8059887028        1.1476638342
        6.8629268637        1.0357972997
        6.9198650246        0.8805480119
        6.9768031855        0.5591715073
        7.0337413464        1.5231877265
        7.0906795073        4.1291311508
        7.1476176682        3.8155865599
        7.2045558291        3.6636660816
        7.2614939900        3.6697017389
        7.3184321509        3.7131735211
        7.3753703118        3.7957275084
        7.4323084728        3.9641562763
        7.4892466337        4.2197985446
        7.5461847946        2.1791169421
        7.6031229555        0.8595363044
        7.6600611164        0.0000000000
        7.7169992773        0.0000000000
        7.7739374382        0.0000000000
        7.8308755991        0.0000000000
        7.8878137600        0.0000000000
        7.9447519209        0.0000000000
        8.0016900818        0.0000000000
        8.0586282427        0.0000000000
        8.1155664036        0.0000000000
        8.1725045646        0.0000000000
        8.2294427255        0.0000000000
        8.2863808864        0.0000000000
        8.3433190473        0.0000000000
        8.4002572082        0.0000000000
        8.4571953691        0.0000000000
        8.5141335300        0.0000000000
        8.5710716909        0.0000000000
