phonopy:
  version: "2.37.1"
  frequency_unit_conversion_factor: 15.633302
  symmetry_tolerance: 1.00000e-05

space_group:
  type: "P1"
  number: 1
  Hall_symbol: "P 1"

primitive_matrix:
- [ -1.000000000000000,  0.000000000000000,  0.000000000000000 ]
- [  0.000000000000000,  1.000000000000000,  0.000000000000000 ]
- [  0.000000000000000,  0.000000000000000, -1.000000000000000 ]

supercell_matrix:
- [   4,   0,   0 ]
- [   0,   3,   0 ]
- [   0,   0,   2 ]

primitive_cell:
  lattice:
  - [    -3.144787110262229,     0.000000000000000,     0.000000000000000 ] # a
  - [     0.000047063783503,     4.726077447233573,     0.000000000000000 ] # b
  - [     1.538251364505784,    -0.000169521953229,    -5.443666037424660 ] # c
  points:
  - symbol: Li # 1
    coordinates: [  0.159049239110441,  0.971452892047952,  0.841803514191023 ]
    mass: 6.940000
  - symbol: Li # 2
    coordinates: [  0.559076335781828,  0.471465445693653,  0.641505554926073 ]
    mass: 6.940000
  - symbol: Li # 3
    coordinates: [  0.832027416119847,  0.471469510653981,  0.177649265745394 ]
    mass: 6.940000
  - symbol: Sn # 4
    coordinates: [  0.424892540714964,  0.971442762560217,  0.365867584775829 ]
    mass: 118.710000
  reciprocal_lattice: # without 2pi
  - [    -0.317986548830841,     0.000003166611267,    -0.089855483383353 ] # a*
  - [    -0.000000000000000,     0.211591962079537,    -0.000006589214410 ] # b*
  - [    -0.000000000000000,     0.000000000000000,    -0.183699733437926 ] # c*

unit_cell:
  lattice:
  - [     3.144787110262229,     0.000000000000000,     0.000000000000000 ] # a
  - [     0.000047063783503,     4.726077447233574,     0.000000000000000 ] # b
  - [    -1.538251364505784,     0.000169521953229,     5.443666037424660 ] # c
  points:
  - symbol: Li # 1
    coordinates: [  0.840950760889559,  0.971452892047952,  0.158196485808977 ]
    mass: 6.940000
    reduced_to: 1
  - symbol: Li # 2
    coordinates: [  0.440923664218172,  0.471465445693653,  0.358494445073927 ]
    mass: 6.940000
    reduced_to: 2
  - symbol: Li # 3
    coordinates: [  0.167972583880153,  0.471469510653981,  0.822350734254606 ]
    mass: 6.940000
    reduced_to: 3
  - symbol: Sn # 4
    coordinates: [  0.575107459285036,  0.971442762560217,  0.634132415224171 ]
    mass: 118.710000
    reduced_to: 4

supercell:
  lattice:
  - [    12.579148441048915,     0.000000000000000,     0.000000000000000 ] # a
  - [     0.000141191350510,    14.178232341700721,     0.000000000000000 ] # b
  - [    -3.076502729011568,     0.000339043906458,    10.887332074849320 ] # c
  points:
  - symbol: Li # 1
    coordinates: [  0.210237690222390,  0.323817630682651,  0.079098242904488 ]
    mass: 6.940000
    reduced_to: 1
  - symbol: Li # 2
    coordinates: [  0.460237690222390,  0.323817630682651,  0.079098242904488 ]
    mass: 6.940000
    reduced_to: 1
  - symbol: Li # 3
    coordinates: [  0.710237690222390,  0.323817630682651,  0.079098242904488 ]
    mass: 6.940000
    reduced_to: 1
  - symbol: Li # 4
    coordinates: [  0.960237690222390,  0.323817630682651,  0.079098242904488 ]
    mass: 6.940000
    reduced_to: 1
  - symbol: Li # 5
    coordinates: [  0.210237690222390,  0.657150964015984,  0.079098242904488 ]
    mass: 6.940000
    reduced_to: 1
  - symbol: Li # 6
    coordinates: [  0.460237690222390,  0.657150964015984,  0.079098242904488 ]
    mass: 6.940000
    reduced_to: 1
  - symbol: Li # 7
    coordinates: [  0.710237690222390,  0.657150964015984,  0.079098242904488 ]
    mass: 6.940000
    reduced_to: 1
  - symbol: Li # 8
    coordinates: [  0.960237690222390,  0.657150964015984,  0.079098242904488 ]
    mass: 6.940000
    reduced_to: 1
  - symbol: Li # 9
    coordinates: [  0.210237690222390,  0.990484297349317,  0.079098242904488 ]
    mass: 6.940000
    reduced_to: 1
  - symbol: Li # 10
    coordinates: [  0.460237690222390,  0.990484297349317,  0.079098242904488 ]
    mass: 6.940000
    reduced_to: 1
  - symbol: Li # 11
    coordinates: [  0.710237690222390,  0.990484297349317,  0.079098242904488 ]
    mass: 6.940000
    reduced_to: 1
  - symbol: Li # 12
    coordinates: [  0.960237690222390,  0.990484297349317,  0.079098242904488 ]
    mass: 6.940000
    reduced_to: 1
  - symbol: Li # 13
    coordinates: [  0.210237690222390,  0.323817630682651,  0.579098242904488 ]
    mass: 6.940000
    reduced_to: 1
  - symbol: Li # 14
    coordinates: [  0.460237690222390,  0.323817630682651,  0.579098242904488 ]
    mass: 6.940000
    reduced_to: 1
  - symbol: Li # 15
    coordinates: [  0.710237690222390,  0.323817630682651,  0.579098242904488 ]
    mass: 6.940000
    reduced_to: 1
  - symbol: Li # 16
    coordinates: [  0.960237690222390,  0.323817630682651,  0.579098242904488 ]
    mass: 6.940000
    reduced_to: 1
  - symbol: Li # 17
    coordinates: [  0.210237690222390,  0.657150964015984,  0.579098242904488 ]
    mass: 6.940000
    reduced_to: 1
  - symbol: Li # 18
    coordinates: [  0.460237690222390,  0.657150964015984,  0.579098242904488 ]
    mass: 6.940000
    reduced_to: 1
  - symbol: Li # 19
    coordinates: [  0.710237690222390,  0.657150964015984,  0.579098242904488 ]
    mass: 6.940000
    reduced_to: 1
  - symbol: Li # 20
    coordinates: [  0.960237690222390,  0.657150964015984,  0.579098242904488 ]
    mass: 6.940000
    reduced_to: 1
  - symbol: Li # 21
    coordinates: [  0.210237690222390,  0.990484297349317,  0.579098242904488 ]
    mass: 6.940000
    reduced_to: 1
  - symbol: Li # 22
    coordinates: [  0.460237690222390,  0.990484297349317,  0.579098242904488 ]
    mass: 6.940000
    reduced_to: 1
  - symbol: Li # 23
    coordinates: [  0.710237690222390,  0.990484297349317,  0.579098242904488 ]
    mass: 6.940000
    reduced_to: 1
  - symbol: Li # 24
    coordinates: [  0.960237690222390,  0.990484297349317,  0.579098242904488 ]
    mass: 6.940000
    reduced_to: 1
  - symbol: Li # 25
    coordinates: [  0.110230916054543,  0.157155148564551,  0.179247222536964 ]
    mass: 6.940000
    reduced_to: 25
  - symbol: Li # 26
    coordinates: [  0.360230916054543,  0.157155148564551,  0.179247222536964 ]
    mass: 6.940000
    reduced_to: 25
  - symbol: Li # 27
    coordinates: [  0.610230916054543,  0.157155148564551,  0.179247222536964 ]
    mass: 6.940000
    reduced_to: 25
  - symbol: Li # 28
    coordinates: [  0.860230916054543,  0.157155148564551,  0.179247222536964 ]
    mass: 6.940000
    reduced_to: 25
  - symbol: Li # 29
    coordinates: [  0.110230916054543,  0.490488481897884,  0.179247222536964 ]
    mass: 6.940000
    reduced_to: 25
  - symbol: Li # 30
    coordinates: [  0.360230916054543,  0.490488481897884,  0.179247222536964 ]
    mass: 6.940000
    reduced_to: 25
  - symbol: Li # 31
    coordinates: [  0.610230916054543,  0.490488481897884,  0.179247222536964 ]
    mass: 6.940000
    reduced_to: 25
  - symbol: Li # 32
    coordinates: [  0.860230916054543,  0.490488481897884,  0.179247222536964 ]
    mass: 6.940000
    reduced_to: 25
  - symbol: Li # 33
    coordinates: [  0.110230916054543,  0.823821815231218,  0.179247222536964 ]
    mass: 6.940000
    reduced_to: 25
  - symbol: Li # 34
    coordinates: [  0.360230916054543,  0.823821815231218,  0.179247222536964 ]
    mass: 6.940000
    reduced_to: 25
  - symbol: Li # 35
    coordinates: [  0.610230916054543,  0.823821815231218,  0.179247222536964 ]
    mass: 6.940000
    reduced_to: 25
  - symbol: Li # 36
    coordinates: [  0.860230916054543,  0.823821815231218,  0.179247222536964 ]
    mass: 6.940000
    reduced_to: 25
  - symbol: Li # 37
    coordinates: [  0.110230916054543,  0.157155148564551,  0.679247222536964 ]
    mass: 6.940000
    reduced_to: 25
  - symbol: Li # 38
    coordinates: [  0.360230916054543,  0.157155148564551,  0.679247222536964 ]
    mass: 6.940000
    reduced_to: 25
  - symbol: Li # 39
    coordinates: [  0.610230916054543,  0.157155148564551,  0.679247222536964 ]
    mass: 6.940000
    reduced_to: 25
  - symbol: Li # 40
    coordinates: [  0.860230916054543,  0.157155148564551,  0.679247222536964 ]
    mass: 6.940000
    reduced_to: 25
  - symbol: Li # 41
    coordinates: [  0.110230916054543,  0.490488481897884,  0.679247222536964 ]
    mass: 6.940000
    reduced_to: 25
  - symbol: Li # 42
    coordinates: [  0.360230916054543,  0.490488481897884,  0.679247222536964 ]
    mass: 6.940000
    reduced_to: 25
  - symbol: Li # 43
    coordinates: [  0.610230916054543,  0.490488481897884,  0.679247222536964 ]
    mass: 6.940000
    reduced_to: 25
  - symbol: Li # 44
    coordinates: [  0.860230916054543,  0.490488481897884,  0.679247222536964 ]
    mass: 6.940000
    reduced_to: 25
  - symbol: Li # 45
    coordinates: [  0.110230916054543,  0.823821815231218,  0.679247222536964 ]
    mass: 6.940000
    reduced_to: 25
  - symbol: Li # 46
    coordinates: [  0.360230916054543,  0.823821815231218,  0.679247222536964 ]
    mass: 6.940000
    reduced_to: 25
  - symbol: Li # 47
    coordinates: [  0.610230916054543,  0.823821815231218,  0.679247222536964 ]
    mass: 6.940000
    reduced_to: 25
  - symbol: Li # 48
    coordinates: [  0.860230916054543,  0.823821815231218,  0.679247222536964 ]
    mass: 6.940000
    reduced_to: 25
  - symbol: Li # 49
    coordinates: [  0.041993145970038,  0.157156503551327,  0.411175367127303 ]
    mass: 6.940000
    reduced_to: 49
  - symbol: Li # 50
    coordinates: [  0.291993145970038,  0.157156503551327,  0.411175367127303 ]
    mass: 6.940000
    reduced_to: 49
  - symbol: Li # 51
    coordinates: [  0.541993145970038,  0.157156503551327,  0.411175367127303 ]
    mass: 6.940000
    reduced_to: 49
  - symbol: Li # 52
    coordinates: [  0.791993145970038,  0.157156503551327,  0.411175367127303 ]
    mass: 6.940000
    reduced_to: 49
  - symbol: Li # 53
    coordinates: [  0.041993145970038,  0.490489836884660,  0.411175367127303 ]
    mass: 6.940000
    reduced_to: 49
  - symbol: Li # 54
    coordinates: [  0.291993145970038,  0.490489836884660,  0.411175367127303 ]
    mass: 6.940000
    reduced_to: 49
  - symbol: Li # 55
    coordinates: [  0.541993145970038,  0.490489836884660,  0.411175367127303 ]
    mass: 6.940000
    reduced_to: 49
  - symbol: Li # 56
    coordinates: [  0.791993145970038,  0.490489836884660,  0.411175367127303 ]
    mass: 6.940000
    reduced_to: 49
  - symbol: Li # 57
    coordinates: [  0.041993145970038,  0.823823170217994,  0.411175367127303 ]
    mass: 6.940000
    reduced_to: 49
  - symbol: Li # 58
    coordinates: [  0.291993145970038,  0.823823170217994,  0.411175367127303 ]
    mass: 6.940000
    reduced_to: 49
  - symbol: Li # 59
    coordinates: [  0.541993145970038,  0.823823170217994,  0.411175367127303 ]
    mass: 6.940000
    reduced_to: 49
  - symbol: Li # 60
    coordinates: [  0.791993145970038,  0.823823170217994,  0.411175367127303 ]
    mass: 6.940000
    reduced_to: 49
  - symbol: Li # 61
    coordinates: [  0.041993145970038,  0.157156503551327,  0.911175367127303 ]
    mass: 6.940000
    reduced_to: 49
  - symbol: Li # 62
    coordinates: [  0.291993145970038,  0.157156503551327,  0.911175367127303 ]
    mass: 6.940000
    reduced_to: 49
  - symbol: Li # 63
    coordinates: [  0.541993145970038,  0.157156503551327,  0.911175367127303 ]
    mass: 6.940000
    reduced_to: 49
  - symbol: Li # 64
    coordinates: [  0.791993145970038,  0.157156503551327,  0.911175367127303 ]
    mass: 6.940000
    reduced_to: 49
  - symbol: Li # 65
    coordinates: [  0.041993145970038,  0.490489836884660,  0.911175367127303 ]
    mass: 6.940000
    reduced_to: 49
  - symbol: Li # 66
    coordinates: [  0.291993145970038,  0.490489836884660,  0.911175367127303 ]
    mass: 6.940000
    reduced_to: 49
  - symbol: Li # 67
    coordinates: [  0.541993145970038,  0.490489836884660,  0.911175367127303 ]
    mass: 6.940000
    reduced_to: 49
  - symbol: Li # 68
    coordinates: [  0.791993145970038,  0.490489836884660,  0.911175367127303 ]
    mass: 6.940000
    reduced_to: 49
  - symbol: Li # 69
    coordinates: [  0.041993145970038,  0.823823170217994,  0.911175367127303 ]
    mass: 6.940000
    reduced_to: 49
  - symbol: Li # 70
    coordinates: [  0.291993145970038,  0.823823170217994,  0.911175367127303 ]
    mass: 6.940000
    reduced_to: 49
  - symbol: Li # 71
    coordinates: [  0.541993145970038,  0.823823170217994,  0.911175367127303 ]
    mass: 6.940000
    reduced_to: 49
  - symbol: Li # 72
    coordinates: [  0.791993145970038,  0.823823170217994,  0.911175367127303 ]
    mass: 6.940000
    reduced_to: 49
  - symbol: Sn # 73
    coordinates: [  0.143776864821259,  0.323814254186739,  0.317066207612086 ]
    mass: 118.710000
    reduced_to: 73
  - symbol: Sn # 74
    coordinates: [  0.393776864821259,  0.323814254186739,  0.317066207612086 ]
    mass: 118.710000
    reduced_to: 73
  - symbol: Sn # 75
    coordinates: [  0.643776864821259,  0.323814254186739,  0.317066207612086 ]
    mass: 118.710000
    reduced_to: 73
  - symbol: Sn # 76
    coordinates: [  0.893776864821259,  0.323814254186739,  0.317066207612086 ]
    mass: 118.710000
    reduced_to: 73
  - symbol: Sn # 77
    coordinates: [  0.143776864821259,  0.657147587520072,  0.317066207612086 ]
    mass: 118.710000
    reduced_to: 73
  - symbol: Sn # 78
    coordinates: [  0.393776864821259,  0.657147587520072,  0.317066207612086 ]
    mass: 118.710000
    reduced_to: 73
  - symbol: Sn # 79
    coordinates: [  0.643776864821259,  0.657147587520072,  0.317066207612086 ]
    mass: 118.710000
    reduced_to: 73
  - symbol: Sn # 80
    coordinates: [  0.893776864821259,  0.657147587520072,  0.317066207612086 ]
    mass: 118.710000
    reduced_to: 73
  - symbol: Sn # 81
    coordinates: [  0.143776864821259,  0.990480920853406,  0.317066207612086 ]
    mass: 118.710000
    reduced_to: 73
  - symbol: Sn # 82
    coordinates: [  0.393776864821259,  0.990480920853406,  0.317066207612086 ]
    mass: 118.710000
    reduced_to: 73
  - symbol: Sn # 83
    coordinates: [  0.643776864821259,  0.990480920853406,  0.317066207612086 ]
    mass: 118.710000
    reduced_to: 73
  - symbol: Sn # 84
    coordinates: [  0.893776864821259,  0.990480920853406,  0.317066207612086 ]
    mass: 118.710000
    reduced_to: 73
  - symbol: Sn # 85
    coordinates: [  0.143776864821259,  0.323814254186739,  0.817066207612086 ]
    mass: 118.710000
    reduced_to: 73
  - symbol: Sn # 86
    coordinates: [  0.393776864821259,  0.323814254186739,  0.817066207612086 ]
    mass: 118.710000
    reduced_to: 73
  - symbol: Sn # 87
    coordinates: [  0.643776864821259,  0.323814254186739,  0.817066207612086 ]
    mass: 118.710000
    reduced_to: 73
  - symbol: Sn # 88
    coordinates: [  0.893776864821259,  0.323814254186739,  0.817066207612086 ]
    mass: 118.710000
    reduced_to: 73
  - symbol: Sn # 89
    coordinates: [  0.143776864821259,  0.657147587520072,  0.817066207612086 ]
    mass: 118.710000
    reduced_to: 73
  - symbol: Sn # 90
    coordinates: [  0.393776864821259,  0.657147587520072,  0.817066207612086 ]
    mass: 118.710000
    reduced_to: 73
  - symbol: Sn # 91
    coordinates: [  0.643776864821259,  0.657147587520072,  0.817066207612086 ]
    mass: 118.710000
    reduced_to: 73
  - symbol: Sn # 92
    coordinates: [  0.893776864821259,  0.657147587520072,  0.817066207612086 ]
    mass: 118.710000
    reduced_to: 73
  - symbol: Sn # 93
    coordinates: [  0.143776864821259,  0.990480920853406,  0.817066207612086 ]
    mass: 118.710000
    reduced_to: 73
  - symbol: Sn # 94
    coordinates: [  0.393776864821259,  0.990480920853406,  0.817066207612086 ]
    mass: 118.710000
    reduced_to: 73
  - symbol: Sn # 95
    coordinates: [  0.643776864821259,  0.990480920853406,  0.817066207612086 ]
    mass: 118.710000
    reduced_to: 73
  - symbol: Sn # 96
    coordinates: [  0.893776864821259,  0.990480920853406,  0.817066207612086 ]
    mass: 118.710000
    reduced_to: 73

displacements:
- atom:    1
  displacement:
    [   0.0100000000000000,  0.0000000000000000,  0.0000000000000000 ]
  forces:
  - [  -0.0105288838967681,  0.0001071226142813,  0.0037150513380766 ]
  - [   0.0059064570814371,  0.0001071692968253,  0.0040713250637054 ]
  - [   0.0025447146035731,  0.0001071439401130,  0.0039629954844713 ]
  - [   0.0058350125327706,  0.0001072451850632,  0.0038778465241194 ]
  - [   0.0027598231099546,  0.0001063810923370,  0.0039641186594963 ]
  - [   0.0028014483395964,  0.0001608320744708,  0.0039740074425936 ]
  - [   0.0027782330289483,  0.0001074526007869,  0.0039655808359385 ]
  - [   0.0028012658003718,  0.0000547258168808,  0.0039557963609695 ]
  - [   0.0027599669992924,  0.0001072443265002,  0.0039633363485336 ]
  - [   0.0028012045659125,  0.0000532885969733,  0.0039741396903992 ]
  - [   0.0027791550382972,  0.0001063344534487,  0.0039648450911045 ]
  - [   0.0028008422814310,  0.0001589723542565,  0.0039554778486490 ]
  - [   0.0028031803667545,  0.0001079192006728,  0.0044987332075834 ]
  - [   0.0028001582249999,  0.0001073077946785,  0.0032620709389448 ]
  - [   0.0028152167797089,  0.0001076557964552,  0.0039873737841845 ]
  - [   0.0027999728918076,  0.0001078402638086,  0.0040926933288574 ]
  - [   0.0027709864079952,  0.0001041677314788,  0.0039408542215824 ]
  - [   0.0027743312530220,  0.0001092865422834,  0.0039810072630644 ]
  - [   0.0027772746980190,  0.0001114067417802,  0.0039662551134825 ]
  - [   0.0027740709483624,  0.0001048374761012,  0.0039708055555820 ]
  - [   0.0027710031718016,  0.0001101097732317,  0.0039399899542332 ]
  - [   0.0027745119296014,  0.0001048833510140,  0.0039800722151995 ]
  - [   0.0027776807546616,  0.0001028491242323,  0.0039654728025198 ]
  - [   0.0027747452259064,  0.0001093306636903,  0.0039703752845526 ]
  - [   0.0035417939070612,  0.0011494766222313, -0.0338998325169086 ]
  - [   0.0035351375117898, -0.0016411808319390, -0.0323353558778763 ]
  - [   0.0027230402920395, -0.0001870881533250, -0.0331651456654072 ]
  - [   0.0027246116660535, -0.0003266406129114, -0.0330753326416016 ]
  - [   0.0035417082253844, -0.0016639025416225, -0.0338994488120079 ]
  - [   0.0035347542725503,  0.0011262168409303, -0.0323355644941330 ]
  - [   0.0027234111912549, -0.0003277778741904, -0.0331652387976646 ]
  - [   0.0027237555477768, -0.0001882580691017, -0.0330749601125717 ]
  - [   0.0027088122442365, -0.0002581268199719, -0.0331068523228168 ]
  - [   0.0027092650998384, -0.0002580342697911, -0.0331340171396732 ]
  - [   0.0027121792081743, -0.0002582760062069, -0.0331155136227608 ]
  - [   0.0027115298435092, -0.0002578882849775, -0.0331254787743092 ]
  - [   0.0025794527027756, -0.0002583269670140, -0.0331317074596882 ]
  - [   0.0026931362226605, -0.0003222096711397, -0.0331373810768127 ]
  - [   0.0028112009167671, -0.0002638729929458, -0.0331097431480885 ]
  - [   0.0027041453868151, -0.0001981786190299, -0.0331059917807579 ]
  - [   0.0025795395486057, -0.0002569707285147, -0.0331313163042068 ]
  - [   0.0026934756897390, -0.0001930464059114, -0.0331369452178478 ]
  - [   0.0028112581931055, -0.0002510221675038, -0.0331093594431877 ]
  - [   0.0027043311856687, -0.0003173114091624, -0.0331050381064415 ]
  - [   0.0027123466134071, -0.0002576325787231, -0.0331199690699577 ]
  - [   0.0027128746733069, -0.0002579330466688, -0.0331194847822189 ]
  - [   0.0027031502686441, -0.0002580787986517, -0.0331225469708443 ]
  - [   0.0027125137858093, -0.0002581150038168, -0.0331226363778114 ]
  - [  -0.0027428679168224, -0.0004244828596711,  0.0226368792355061 ]
  - [  -0.0026090312749147, -0.0003856085240841,  0.0227584242820740 ]
  - [  -0.0027488032355905, -0.0003617273760028,  0.0228642560541630 ]
  - [  -0.0027639511972666, -0.0003961930051446,  0.0227398797869682 ]
  - [  -0.0027430481277406, -0.0003603417426348,  0.0226368419826031 ]
  - [  -0.0026093716733158, -0.0003984207287431,  0.0227577518671751 ]
  - [  -0.0027485573664308, -0.0004227652098052,  0.0228645242750645 ]
  - [  -0.0027637630701065, -0.0003876173868775,  0.0227397345006466 ]
  - [  -0.0027691395953298, -0.0003909142687917,  0.0227496065199375 ]
  - [  -0.0027791131287813, -0.0003915000706911,  0.0227505415678024 ]
  - [  -0.0027704201638699, -0.0003913344116881,  0.0227500572800636 ]
  - [  -0.0027772421017289, -0.0003912895917892,  0.0227488167583942 ]
  - [  -0.0024791713804007, -0.0001552216708660,  0.0230360366404057 ]
  - [  -0.0024739382788539, -0.0006902582827024,  0.0224083792418242 ]
  - [  -0.0026970729231834, -0.0004629800096154,  0.0227399021387100 ]
  - [  -0.0027001174166799, -0.0003214757889509,  0.0227570421993732 ]
  - [  -0.0024796724319458, -0.0006299037486315,  0.0230350904166698 ]
  - [  -0.0024739271029830, -0.0000939261008170,  0.0224083922803402 ]
  - [  -0.0026980550028384, -0.0003211619332433,  0.0227393247187138 ]
  - [  -0.0026997043751180, -0.0004634195938706,  0.0227562710642815 ]
  - [  -0.0027767107822001, -0.0003914171829820,  0.0227437466382980 ]
  - [  -0.0027766386047006, -0.0003911759704351,  0.0227532312273979 ]
  - [  -0.0027711554430425, -0.0003913901746273,  0.0227456949651241 ]
  - [  -0.0027705272659659, -0.0003909729421139,  0.0227508656680584 ]
  - [  -0.0016575753688812,  0.0005429429002106,  0.0043319724500179 ]
  - [  -0.0016120565123856,  0.0005423109978437,  0.0085187070071697 ]
  - [  -0.0023744909558445,  0.0005424826522358,  0.0064870268106461 ]
  - [  -0.0023864412214607,  0.0005424696719274,  0.0062994696199894 ]
  - [  -0.0027285316027701,  0.0006023248424754,  0.0064420998096466 ]
  - [  -0.0027297029737383,  0.0004809908568859,  0.0063708014786243 ]
  - [  -0.0026698091533035,  0.0005559455603361,  0.0064054951071739 ]
  - [  -0.0026734890416265,  0.0005276649026200,  0.0064045190811157 ]
  - [  -0.0027304096147418,  0.0004822341725230,  0.0064432062208652 ]
  - [  -0.0027289283461869,  0.0006034279358573,  0.0063712038099766 ]
  - [  -0.0026717525906861,  0.0005291424458846,  0.0064064934849739 ]
  - [  -0.0026710880920291,  0.0005565010360442,  0.0064047873020172 ]
  - [  -0.0030644151847810,  0.0005438886582851,  0.0065396465361118 ]
  - [  -0.0032803015783429,  0.0005438828957267,  0.0072012618184090 ]
  - [  -0.0022408198565245,  0.0005435171769932,  0.0064204856753349 ]
  - [  -0.0030967900529504,  0.0005448870360851,  0.0058025233447552 ]
  - [  -0.0027024066075683,  0.0005404520779848,  0.0064119771122932 ]
  - [  -0.0027570996899158,  0.0004485158424359,  0.0064260810613632 ]
  - [  -0.0026928817387670,  0.0005400021327659,  0.0064045563340187 ]
  - [  -0.0027579460293055,  0.0006324592977762,  0.0063872709870338 ]
  - [  -0.0027025421150029,  0.0005428647273220,  0.0064127743244171 ]
  - [  -0.0027579609304667,  0.0006347266025841,  0.0064269788563251 ]
  - [  -0.0026918812654912,  0.0005433463375084,  0.0064055211842060 ]
  - [  -0.0027584265917540,  0.0004511639126576,  0.0063884593546391 ]
- atom:    1
  displacement:
    [  -0.0100000000000000,  0.0000000000000000,  0.0000000000000000 ]
  forces:
  - [   0.0160812921822071,  0.0001068781639333,  0.0039733964949846 ]
  - [  -0.0002862473484129,  0.0001072777668014,  0.0038701668381691 ]
  - [   0.0030027367174625,  0.0001071309234248,  0.0039671808481216 ]
  - [  -0.0003575393639039,  0.0001069884310709,  0.0040626823902130 ]
  - [   0.0027880924753845,  0.0001076700427802,  0.0039660390466452 ]
  - [   0.0027468071784824,  0.0000543698661204,  0.0039550587534904 ]
  - [   0.0027691279537976,  0.0001071771330317,  0.0039655752480030 ]
  - [   0.0027465759776533,  0.0001598889793968,  0.0039737448096275 ]
  - [   0.0027881865389645,  0.0001060610084096,  0.0039654076099396 ]
  - [   0.0027466618921608,  0.0001597020454938,  0.0039549004286528 ]
  - [   0.0027701915241778,  0.0001065098622348,  0.0039648860692978 ]
  - [   0.0027461750432849,  0.0000538464737474,  0.0039738137274981 ]
  - [   0.0027487333863974,  0.0001079244902940,  0.0034320503473282 ]
  - [   0.0027466965839267,  0.0001075153268175,  0.0046707317233086 ]
  - [   0.0027340929955244,  0.0001075964828487,  0.0039411038160324 ]
  - [   0.0027464833110571,  0.0001077975903172,  0.0038333944976330 ]
  - [   0.0027778968214989,  0.0001108418073272,  0.0039875563234091 ]
  - [   0.0027742641977966,  0.0001061228467734,  0.0039484538137913 ]
  - [   0.0027707163244486,  0.0001043119409587,  0.0039636157453060 ]
  - [   0.0027741529047489,  0.0001101411035052,  0.0039579849690199 ]
  - [   0.0027779396623373,  0.0001033775042742,  0.0039869062602520 ]
  - [   0.0027742492966354,  0.0001079762732843,  0.0039474051445723 ]
  - [   0.0027710124850273,  0.0001099476212403,  0.0039625205099583 ]
  - [   0.0027745775878429,  0.0001039729977492,  0.0039574261754751 ]
  - [   0.0018844541627914, -0.0016682014102116, -0.0323340557515621 ]
  - [   0.0018800615798682,  0.0011224169284105, -0.0338978543877602 ]
  - [   0.0026963395066559, -0.0003264585975558, -0.0330763086676598 ]
  - [   0.0026972235646099, -0.0001872966822702, -0.0331667736172676 ]
  - [   0.0018848711624742,  0.0011533830547705, -0.0323340222239494 ]
  - [   0.0018801272381097, -0.0016369835939258, -0.0338975302875042 ]
  - [   0.0026967669837177, -0.0001884297234938, -0.0330767482519150 ]
  - [   0.0026963497512043, -0.0003275734488852, -0.0331662818789482 ]
  - [   0.0027121044695377, -0.0002579471329227, -0.0331344455480576 ]
  - [   0.0027116993442178, -0.0002580073196441, -0.0331071838736534 ]
  - [   0.0027092809323221, -0.0002583174500614, -0.0331254824995995 ]
  - [   0.0027087158523500, -0.0002578563289717, -0.0331157334148884 ]
  - [   0.0028413499239832, -0.0002584011526778, -0.0331094190478325 ]
  - [   0.0027275253087282, -0.0001935204491019, -0.0331047363579273 ]
  - [   0.0026090713217854, -0.0002509043260943, -0.0331318527460098 ]
  - [   0.0027155254501849, -0.0003173507284373, -0.0331363752484322 ]
  - [   0.0028412523679435, -0.0002570363867562, -0.0331090018153191 ]
  - [   0.0027278386987746, -0.0003218245692551, -0.0331042632460594 ]
  - [   0.0026090708561242, -0.0002639628946781, -0.0331313982605934 ]
  - [   0.0027156909927726, -0.0001981717214221, -0.0331354849040508 ]
  - [   0.0027075284160674, -0.0002576677943580, -0.0331222899258137 ]
  - [   0.0027080634608865, -0.0002578566782176, -0.0331228524446487 ]
  - [   0.0027173319831491, -0.0002581560984254, -0.0331199280917645 ]
  - [   0.0027079735882580, -0.0002582171000540, -0.0331194214522839 ]
  - [  -0.0028053298592567, -0.0003619343042374,  0.0228625591844320 ]
  - [  -0.0029388456605375, -0.0003963559865952,  0.0227420851588249 ]
  - [  -0.0027991086244583, -0.0004228703619447,  0.0226348564028740 ]
  - [  -0.0027833497151732, -0.0003871126100421,  0.0227591618895531 ]
  - [  -0.0028052451089025, -0.0004227096214890,  0.0228623971343040 ]
  - [  -0.0029385844245553, -0.0003876714035869,  0.0227416045963764 ]
  - [  -0.0027988487854600, -0.0003616372705437,  0.0226350575685501 ]
  - [  -0.0027832966297865, -0.0003966838121414,  0.0227590296417475 ]
  - [  -0.0027780830860138, -0.0003908788785338,  0.0227495934814215 ]
  - [  -0.0027684341184795, -0.0003915717825294,  0.0227484703063965 ]
  - [  -0.0027776928618550, -0.0003913620603271,  0.0227500442415476 ]
  - [  -0.0027715722098947, -0.0003913715481758,  0.0227504521608353 ]
  - [  -0.0030686715617776, -0.0006361436098814,  0.0224563032388687 ]
  - [  -0.0030737426131964, -0.0000997292372631,  0.0230821240693331 ]
  - [  -0.0028494335711002, -0.0003209207206964,  0.0227581728249788 ]
  - [  -0.0028486726805568, -0.0004635378718376,  0.0227414797991514 ]
  - [  -0.0030692098662257, -0.0001488411799073,  0.0224554948508739 ]
  - [  -0.0030739260837436, -0.0006845527095720,  0.0230818726122379 ]
  - [  -0.0028501665219665, -0.0004630144685507,  0.0227576829493046 ]
  - [  -0.0028481627814472, -0.0003212634474039,  0.0227406919002533 ]
  - [  -0.0027704555541277, -0.0003914441913366,  0.0227532796561718 ]
  - [  -0.0027710366994143, -0.0003910796367563,  0.0227437056601048 ]
  - [  -0.0027770218439400, -0.0003912644460797,  0.0227509699761868 ]
  - [  -0.0027764150872827, -0.0003909235820174,  0.0227460134774446 ]
  - [  -0.0037873911205679,  0.0005426791030914,  0.0085294544696808 ]
  - [  -0.0037816576659679,  0.0005429871380329,  0.0043423995375633 ]
  - [  -0.0030401716940105,  0.0005425584968179,  0.0063267797231674 ]
  - [  -0.0030433535575867,  0.0005422373069450,  0.0065147057175636 ]
  - [  -0.0026902502868325,  0.0004815979627892,  0.0063705183565617 ]
  - [  -0.0026925741694868,  0.0006040222942829,  0.0064418986439705 ]
  - [  -0.0027479939162731,  0.0005279801553115,  0.0064056962728500 ]
  - [  -0.0027513892855495,  0.0005549915367737,  0.0064072161912918 ]
  - [  -0.0026923173572868,  0.0006023262394592,  0.0063715204596519 ]
  - [  -0.0026916395872831,  0.0004804898635484,  0.0064420849084854 ]
  - [  -0.0027497254777700,  0.0005573701346293,  0.0064067021012306 ]
  - [  -0.0027491264045238,  0.0005292077548802,  0.0064074173569679 ]
  - [  -0.0023530484177172,  0.0005440339446068,  0.0063276030123234 ]
  - [  -0.0021680372301489,  0.0005435083294287,  0.0056432858109474 ]
  - [  -0.0031799776479602,  0.0005435437778942,  0.0063961893320084 ]
  - [  -0.0023032769095153,  0.0005449503660202,  0.0070375576615334 ]
  - [  -0.0027182169724256,  0.0005412288010120,  0.0064040832221508 ]
  - [  -0.0026630293577909,  0.0006332648918033,  0.0063889026641846 ]
  - [  -0.0027285255491734,  0.0005419844528660,  0.0064097456634045 ]
  - [  -0.0026660703588277,  0.0004494506865740,  0.0064266659319401 ]
  - [  -0.0027184826321900,  0.0005420286906883,  0.0064049139618874 ]
  - [  -0.0026641171425581,  0.0004500662907958,  0.0063899233937263 ]
  - [  -0.0027273693121970,  0.0005413709441200,  0.0064110904932022 ]
  - [  -0.0026659972500056,  0.0006342862616293,  0.0064279474318027 ]
- atom:    1
  displacement:
    [   0.0000000995831829,  0.0099999999995042,  0.0000000000000000 ]
  forces:
  - [   0.0027730702422559, -0.0114565091207623,  0.0039440449327230 ]
  - [   0.0027679535560310,  0.0002151538355974,  0.0039663184434175 ]