phonopy:
  version: "2.37.1"
  frequency_unit_conversion_factor: 15.633302
  symmetry_tolerance: 1.00000e-05

space_group:
  type: "P6_3/mmc"
  number: 194
  Hall_symbol: "-P 6c 2c"

primitive_matrix:
- [  1.000000000000000,  0.000000000000000,  0.000000000000000 ]
- [  0.000000000000000,  1.000000000000000,  0.000000000000000 ]
- [  0.000000000000000,  0.000000000000000,  1.000000000000000 ]

supercell_matrix:
- [   4,   0,   0 ]
- [   0,   4,   0 ]
- [   0,   0,   2 ]

primitive_cell:
  lattice:
  - [     3.057988520989703,     0.000000000000000,     0.000000000000000 ] # a
  - [    -1.528994395755084,     2.648295717640782,     0.000000000000000 ] # b
  - [    -0.000000076334690,    -0.000000019997964,     9.971338285346679 ] # c
  points:
  - symbol: Li # 1
    coordinates: [  0.999999999976513,  0.999999999820734,  0.999999999937321 ]
    mass: 6.940000
  - symbol: Li # 2
    coordinates: [  0.333333331297612,  0.666666668245554,  0.249999999968318 ]
    mass: 6.940000
  - symbol: Li # 3
    coordinates: [  0.000000000288334,  0.999999999523188,  0.499999999568054 ]
    mass: 6.940000
  - symbol: Li # 4
    coordinates: [  0.666666668334246,  0.333333332388824,  0.750000000532203 ]
    mass: 6.940000
  reciprocal_lattice: # without 2pi
  - [     0.327012345905195,     0.188800684493493,     0.000000002882062 ] # a*
  - [     0.000000000000000,     0.377601335583038,     0.000000000757296 ] # b*
  - [     0.000000000000000,     0.000000000000000,     0.100287441001730 ] # c*

unit_cell:
  lattice:
  - [     3.057988520989703,     0.000000000000000,     0.000000000000000 ] # a
  - [    -1.528994395755084,     2.648295717640782,     0.000000000000000 ] # b
  - [    -0.000000076334690,    -0.000000019997964,     9.971338285346679 ] # c
  points:
  - symbol: Li # 1
    coordinates: [  0.999999999976513,  0.999999999820734,  0.999999999937321 ]
    mass: 6.940000
    reduced_to: 1
  - symbol: Li # 2
    coordinates: [  0.333333331297612,  0.666666668245554,  0.249999999968318 ]
    mass: 6.940000
    reduced_to: 2
  - symbol: Li # 3
    coordinates: [  0.000000000288334,  0.999999999523188,  0.499999999568054 ]
    mass: 6.940000
    reduced_to: 3
  - symbol: Li # 4
    coordinates: [  0.666666668334246,  0.333333332388824,  0.750000000532203 ]
    mass: 6.940000
    reduced_to: 4

supercell:
  lattice:
  - [    12.231954083958813,     0.000000000000000,     0.000000000000000 ] # a
  - [    -6.115977583020338,    10.593182870563126,     0.000000000000000 ] # b
  - [    -0.000000152669379,    -0.000000039995927,    19.942676570693358 ] # c
  points:
  - symbol: Li # 1
    coordinates: [  0.249999999994128,  0.249999999955184,  0.499999999968660 ]
    mass: 6.940000
    reduced_to: 1
  - symbol: Li # 2
    coordinates: [  0.499999999994128,  0.249999999955184,  0.499999999968660 ]
    mass: 6.940000
    reduced_to: 1
  - symbol: Li # 3
    coordinates: [  0.749999999994128,  0.249999999955184,  0.499999999968660 ]
    mass: 6.940000
    reduced_to: 1
  - symbol: Li # 4
    coordinates: [  0.999999999994128,  0.249999999955184,  0.499999999968660 ]
    mass: 6.940000
    reduced_to: 1
  - symbol: Li # 5
    coordinates: [  0.249999999994128,  0.499999999955184,  0.499999999968660 ]
    mass: 6.940000
    reduced_to: 1
  - symbol: Li # 6
    coordinates: [  0.499999999994128,  0.499999999955184,  0.499999999968660 ]
    mass: 6.940000
    reduced_to: 1
  - symbol: Li # 7
    coordinates: [  0.749999999994128,  0.499999999955184,  0.499999999968660 ]
    mass: 6.940000
    reduced_to: 1
  - symbol: Li # 8
    coordinates: [  0.999999999994128,  0.499999999955184,  0.499999999968660 ]
    mass: 6.940000
    reduced_to: 1
  - symbol: Li # 9
    coordinates: [  0.249999999994128,  0.749999999955184,  0.499999999968660 ]
    mass: 6.940000
    reduced_to: 1
  - symbol: Li # 10
    coordinates: [  0.499999999994128,  0.749999999955184,  0.499999999968660 ]
    mass: 6.940000
    reduced_to: 1
  - symbol: Li # 11
    coordinates: [  0.749999999994128,  0.749999999955184,  0.499999999968660 ]
    mass: 6.940000
    reduced_to: 1
  - symbol: Li # 12
    coordinates: [  0.999999999994128,  0.749999999955184,  0.499999999968660 ]
    mass: 6.940000
    reduced_to: 1
  - symbol: Li # 13
    coordinates: [  0.249999999994128,  0.999999999955184,  0.499999999968660 ]
    mass: 6.940000
    reduced_to: 1
  - symbol: Li # 14
    coordinates: [  0.499999999994128,  0.999999999955184,  0.499999999968660 ]
    mass: 6.940000
    reduced_to: 1
  - symbol: Li # 15
    coordinates: [  0.749999999994128,  0.999999999955184,  0.499999999968660 ]
    mass: 6.940000
    reduced_to: 1
  - symbol: Li # 16
    coordinates: [  0.999999999994128,  0.999999999955184,  0.499999999968660 ]
    mass: 6.940000
    reduced_to: 1
  - symbol: Li # 17
    coordinates: [  0.249999999994128,  0.249999999955184,  0.999999999968660 ]
    mass: 6.940000
    reduced_to: 1
  - symbol: Li # 18
    coordinates: [  0.499999999994128,  0.249999999955184,  0.999999999968660 ]
    mass: 6.940000
    reduced_to: 1
  - symbol: Li # 19
    coordinates: [  0.749999999994128,  0.249999999955184,  0.999999999968660 ]
    mass: 6.940000
    reduced_to: 1
  - symbol: Li # 20
    coordinates: [  0.999999999994128,  0.249999999955184,  0.999999999968660 ]
    mass: 6.940000
    reduced_to: 1
  - symbol: Li # 21
    coordinates: [  0.249999999994128,  0.499999999955184,  0.999999999968660 ]
    mass: 6.940000
    reduced_to: 1
  - symbol: Li # 22
    coordinates: [  0.499999999994128,  0.499999999955184,  0.999999999968660 ]
    mass: 6.940000
    reduced_to: 1
  - symbol: Li # 23
    coordinates: [  0.749999999994128,  0.499999999955184,  0.999999999968660 ]
    mass: 6.940000
    reduced_to: 1
  - symbol: Li # 24
    coordinates: [  0.999999999994128,  0.499999999955184,  0.999999999968660 ]
    mass: 6.940000
    reduced_to: 1
  - symbol: Li # 25
    coordinates: [  0.249999999994128,  0.749999999955184,  0.999999999968660 ]
    mass: 6.940000
    reduced_to: 1
  - symbol: Li # 26
    coordinates: [  0.499999999994128,  0.749999999955184,  0.999999999968660 ]
    mass: 6.940000
    reduced_to: 1
  - symbol: Li # 27
    coordinates: [  0.749999999994128,  0.749999999955184,  0.999999999968660 ]
    mass: 6.940000
    reduced_to: 1
  - symbol: Li # 28
    coordinates: [  0.999999999994128,  0.749999999955184,  0.999999999968660 ]
    mass: 6.940000
    reduced_to: 1
  - symbol: Li # 29
    coordinates: [  0.249999999994128,  0.999999999955184,  0.999999999968660 ]
    mass: 6.940000
    reduced_to: 1
  - symbol: Li # 30
    coordinates: [  0.499999999994128,  0.999999999955184,  0.999999999968660 ]
    mass: 6.940000
    reduced_to: 1
  - symbol: Li # 31
    coordinates: [  0.749999999994128,  0.999999999955184,  0.999999999968660 ]
    mass: 6.940000
    reduced_to: 1
  - symbol: Li # 32
    coordinates: [  0.999999999994128,  0.999999999955184,  0.999999999968660 ]
    mass: 6.940000
    reduced_to: 1
  - symbol: Li # 33
    coordinates: [  0.083333332824403,  0.166666667061389,  0.124999999984159 ]
    mass: 6.940000
    reduced_to: 33
  - symbol: Li # 34
    coordinates: [  0.333333332824403,  0.166666667061389,  0.124999999984159 ]
    mass: 6.940000
    reduced_to: 33
  - symbol: Li # 35
    coordinates: [  0.583333332824403,  0.166666667061389,  0.124999999984159 ]
    mass: 6.940000
    reduced_to: 33
  - symbol: Li # 36
    coordinates: [  0.833333332824403,  0.166666667061389,  0.124999999984159 ]
    mass: 6.940000
    reduced_to: 33
  - symbol: Li # 37
    coordinates: [  0.083333332824403,  0.416666667061389,  0.124999999984159 ]
    mass: 6.940000
    reduced_to: 33
  - symbol: Li # 38
    coordinates: [  0.333333332824403,  0.416666667061389,  0.124999999984159 ]
    mass: 6.940000
    reduced_to: 33
  - symbol: Li # 39
    coordinates: [  0.583333332824403,  0.416666667061389,  0.124999999984159 ]
    mass: 6.940000
    reduced_to: 33
  - symbol: Li # 40
    coordinates: [  0.833333332824403,  0.416666667061389,  0.124999999984159 ]
    mass: 6.940000
    reduced_to: 33
  - symbol: Li # 41
    coordinates: [  0.083333332824403,  0.666666667061389,  0.124999999984159 ]
    mass: 6.940000
    reduced_to: 33
  - symbol: Li # 42
    coordinates: [  0.333333332824403,  0.666666667061389,  0.124999999984159 ]
    mass: 6.940000
    reduced_to: 33
  - symbol: Li # 43
    coordinates: [  0.583333332824403,  0.666666667061389,  0.124999999984159 ]
    mass: 6.940000
    reduced_to: 33
  - symbol: Li # 44
    coordinates: [  0.833333332824403,  0.666666667061389,  0.124999999984159 ]
    mass: 6.940000
    reduced_to: 33
  - symbol: Li # 45
    coordinates: [  0.083333332824403,  0.916666667061389,  0.124999999984159 ]
    mass: 6.940000
    reduced_to: 33
  - symbol: Li # 46
    coordinates: [  0.333333332824403,  0.916666667061389,  0.124999999984159 ]
    mass: 6.940000
    reduced_to: 33
  - symbol: Li # 47
    coordinates: [  0.583333332824403,  0.916666667061389,  0.124999999984159 ]
    mass: 6.940000
    reduced_to: 33
  - symbol: Li # 48
    coordinates: [  0.833333332824403,  0.916666667061389,  0.124999999984159 ]
    mass: 6.940000
    reduced_to: 33
  - symbol: Li # 49
    coordinates: [  0.083333332824403,  0.166666667061389,  0.624999999984159 ]
    mass: 6.940000
    reduced_to: 33
  - symbol: Li # 50
    coordinates: [  0.333333332824403,  0.166666667061389,  0.624999999984159 ]
    mass: 6.940000
    reduced_to: 33
  - symbol: Li # 51
    coordinates: [  0.583333332824403,  0.166666667061389,  0.624999999984159 ]
    mass: 6.940000
    reduced_to: 33
  - symbol: Li # 52
    coordinates: [  0.833333332824403,  0.166666667061389,  0.624999999984159 ]
    mass: 6.940000
    reduced_to: 33
  - symbol: Li # 53
    coordinates: [  0.083333332824403,  0.416666667061389,  0.624999999984159 ]
    mass: 6.940000
    reduced_to: 33
  - symbol: Li # 54
    coordinates: [  0.333333332824403,  0.416666667061389,  0.624999999984159 ]
    mass: 6.940000
    reduced_to: 33
  - symbol: Li # 55
    coordinates: [  0.583333332824403,  0.416666667061389,  0.624999999984159 ]
    mass: 6.940000
    reduced_to: 33
  - symbol: Li # 56
    coordinates: [  0.833333332824403,  0.416666667061389,  0.624999999984159 ]
    mass: 6.940000
    reduced_to: 33
  - symbol: Li # 57
    coordinates: [  0.083333332824403,  0.666666667061389,  0.624999999984159 ]
    mass: 6.940000
    reduced_to: 33
  - symbol: Li # 58
    coordinates: [  0.333333332824403,  0.666666667061389,  0.624999999984159 ]
    mass: 6.940000
    reduced_to: 33
  - symbol: Li # 59
    coordinates: [  0.583333332824403,  0.666666667061389,  0.624999999984159 ]
    mass: 6.940000
    reduced_to: 33
  - symbol: Li # 60
    coordinates: [  0.833333332824403,  0.666666667061389,  0.624999999984159 ]
    mass: 6.940000
    reduced_to: 33
  - symbol: Li # 61
    coordinates: [  0.083333332824403,  0.916666667061389,  0.624999999984159 ]
    mass: 6.940000
    reduced_to: 33
  - symbol: Li # 62
    coordinates: [  0.333333332824403,  0.916666667061389,  0.624999999984159 ]
    mass: 6.940000
    reduced_to: 33
  - symbol: Li # 63
    coordinates: [  0.583333332824403,  0.916666667061389,  0.624999999984159 ]
    mass: 6.940000
    reduced_to: 33
  - symbol: Li # 64
    coordinates: [  0.833333332824403,  0.916666667061389,  0.624999999984159 ]
    mass: 6.940000
    reduced_to: 33
  - symbol: Li # 65
    coordinates: [  0.000000000072084,  0.249999999880797,  0.249999999784027 ]
    mass: 6.940000
    reduced_to: 65
  - symbol: Li # 66
    coordinates: [  0.250000000072084,  0.249999999880797,  0.249999999784027 ]
    mass: 6.940000
    reduced_to: 65
  - symbol: Li # 67
    coordinates: [  0.500000000072084,  0.249999999880797,  0.249999999784027 ]
    mass: 6.940000
    reduced_to: 65
  - symbol: Li # 68
    coordinates: [  0.750000000072084,  0.249999999880797,  0.249999999784027 ]
    mass: 6.940000
    reduced_to: 65
  - symbol: Li # 69
    coordinates: [  0.000000000072084,  0.499999999880797,  0.249999999784027 ]
    mass: 6.940000
    reduced_to: 65
  - symbol: Li # 70
    coordinates: [  0.250000000072084,  0.499999999880797,  0.249999999784027 ]
    mass: 6.940000
    reduced_to: 65
  - symbol: Li # 71
    coordinates: [  0.500000000072084,  0.499999999880797,  0.249999999784027 ]
    mass: 6.940000
    reduced_to: 65
  - symbol: Li # 72
    coordinates: [  0.750000000072084,  0.499999999880797,  0.249999999784027 ]
    mass: 6.940000
    reduced_to: 65
  - symbol: Li # 73
    coordinates: [  0.000000000072084,  0.749999999880797,  0.249999999784027 ]
    mass: 6.940000
    reduced_to: 65
  - symbol: Li # 74
    coordinates: [  0.250000000072084,  0.749999999880797,  0.249999999784027 ]
    mass: 6.940000
    reduced_to: 65
  - symbol: Li # 75
    coordinates: [  0.500000000072084,  0.749999999880797,  0.249999999784027 ]
    mass: 6.940000
    reduced_to: 65
  - symbol: Li # 76
    coordinates: [  0.750000000072084,  0.749999999880797,  0.249999999784027 ]
    mass: 6.940000
    reduced_to: 65
  - symbol: Li # 77
    coordinates: [  0.000000000072084,  0.999999999880797,  0.249999999784027 ]
    mass: 6.940000
    reduced_to: 65
  - symbol: Li # 78
    coordinates: [  0.250000000072084,  0.999999999880797,  0.249999999784027 ]
    mass: 6.940000
    reduced_to: 65
  - symbol: Li # 79
    coordinates: [  0.500000000072084,  0.999999999880797,  0.249999999784027 ]
    mass: 6.940000
    reduced_to: 65
  - symbol: Li # 80
    coordinates: [  0.750000000072084,  0.999999999880797,  0.249999999784027 ]
    mass: 6.940000
    reduced_to: 65
  - symbol: Li # 81
    coordinates: [  0.000000000072084,  0.249999999880797,  0.749999999784027 ]
    mass: 6.940000
    reduced_to: 65
  - symbol: Li # 82
    coordinates: [  0.250000000072084,  0.249999999880797,  0.749999999784027 ]
    mass: 6.940000
    reduced_to: 65
  - symbol: Li # 83
    coordinates: [  0.500000000072084,  0.249999999880797,  0.749999999784027 ]
    mass: 6.940000
    reduced_to: 65
  - symbol: Li # 84
    coordinates: [  0.750000000072084,  0.249999999880797,  0.749999999784027 ]
    mass: 6.940000
    reduced_to: 65
  - symbol: Li # 85
    coordinates: [  0.000000000072084,  0.499999999880797,  0.749999999784027 ]
    mass: 6.940000
    reduced_to: 65
  - symbol: Li # 86
    coordinates: [  0.250000000072084,  0.499999999880797,  0.749999999784027 ]
    mass: 6.940000
    reduced_to: 65
  - symbol: Li # 87
    coordinates: [  0.500000000072084,  0.499999999880797,  0.749999999784027 ]
    mass: 6.940000
    reduced_to: 65
  - symbol: Li # 88
    coordinates: [  0.750000000072084,  0.499999999880797,  0.749999999784027 ]
    mass: 6.940000
    reduced_to: 65
  - symbol: Li # 89
    coordinates: [  0.000000000072084,  0.749999999880797,  0.749999999784027 ]
    mass: 6.940000
    reduced_to: 65
  - symbol: Li # 90
    coordinates: [  0.250000000072084,  0.749999999880797,  0.749999999784027 ]
    mass: 6.940000
    reduced_to: 65
  - symbol: Li # 91
    coordinates: [  0.500000000072084,  0.749999999880797,  0.749999999784027 ]
    mass: 6.940000
    reduced_to: 65
  - symbol: Li # 92
    coordinates: [  0.750000000072084,  0.749999999880797,  0.749999999784027 ]
    mass: 6.940000
    reduced_to: 65
  - symbol: Li # 93
    coordinates: [  0.000000000072084,  0.999999999880797,  0.749999999784027 ]
    mass: 6.940000
    reduced_to: 65
  - symbol: Li # 94
    coordinates: [  0.250000000072084,  0.999999999880797,  0.749999999784027 ]
    mass: 6.940000
    reduced_to: 65
  - symbol: Li # 95
    coordinates: [  0.500000000072084,  0.999999999880797,  0.749999999784027 ]
    mass: 6.940000
    reduced_to: 65
  - symbol: Li # 96
    coordinates: [  0.750000000072084,  0.999999999880797,  0.749999999784027 ]
    mass: 6.940000
    reduced_to: 65
  - symbol: Li # 97
    coordinates: [  0.166666667083562,  0.083333333097206,  0.375000000266102 ]
    mass: 6.940000
    reduced_to: 97
  - symbol: Li # 98
    coordinates: [  0.416666667083562,  0.083333333097206,  0.375000000266102 ]
    mass: 6.940000
    reduced_to: 97
  - symbol: Li # 99
    coordinates: [  0.666666667083562,  0.083333333097206,  0.375000000266102 ]
    mass: 6.940000
    reduced_to: 97
  - symbol: Li # 100
    coordinates: [  0.916666667083562,  0.083333333097206,  0.375000000266102 ]
    mass: 6.940000
    reduced_to: 97
  - symbol: Li # 101
    coordinates: [  0.166666667083562,  0.333333333097206,  0.375000000266102 ]
    mass: 6.940000
    reduced_to: 97
  - symbol: Li # 102
    coordinates: [  0.416666667083562,  0.333333333097206,  0.375000000266102 ]
    mass: 6.940000
    reduced_to: 97
  - symbol: Li # 103
    coordinates: [  0.666666667083562,  0.333333333097206,  0.375000000266102 ]
    mass: 6.940000
    reduced_to: 97
  - symbol: Li # 104
    coordinates: [  0.916666667083562,  0.333333333097206,  0.375000000266102 ]
    mass: 6.940000
    reduced_to: 97
  - symbol: Li # 105
    coordinates: [  0.166666667083562,  0.583333333097206,  0.375000000266102 ]
    mass: 6.940000
    reduced_to: 97
  - symbol: Li # 106
    coordinates: [  0.416666667083562,  0.583333333097206,  0.375000000266102 ]
    mass: 6.940000
    reduced_to: 97
  - symbol: Li # 107
    coordinates: [  0.666666667083562,  0.583333333097206,  0.375000000266102 ]
    mass: 6.940000
    reduced_to: 97
  - symbol: Li # 108
    coordinates: [  0.916666667083562,  0.583333333097206,  0.375000000266102 ]
    mass: 6.940000
    reduced_to: 97
  - symbol: Li # 109
    coordinates: [  0.166666667083562,  0.833333333097206,  0.375000000266102 ]
    mass: 6.940000
    reduced_to: 97
  - symbol: Li # 110
    coordinates: [  0.416666667083562,  0.833333333097206,  0.375000000266102 ]
    mass: 6.940000
    reduced_to: 97
  - symbol: Li # 111
    coordinates: [  0.666666667083562,  0.833333333097206,  0.375000000266102 ]
    mass: 6.940000
    reduced_to: 97
  - symbol: Li # 112
    coordinates: [  0.916666667083562,  0.833333333097206,  0.375000000266102 ]
    mass: 6.940000
    reduced_to: 97
  - symbol: Li # 113
    coordinates: [  0.166666667083562,  0.083333333097206,  0.875000000266102 ]
    mass: 6.940000
    reduced_to: 97
  - symbol: Li # 114
    coordinates: [  0.416666667083562,  0.083333333097206,  0.875000000266102 ]
    mass: 6.940000
    reduced_to: 97
  - symbol: Li # 115
    coordinates: [  0.666666667083562,  0.083333333097206,  0.875000000266102 ]
    mass: 6.940000
    reduced_to: 97
  - symbol: Li # 116
    coordinates: [  0.916666667083562,  0.083333333097206,  0.875000000266102 ]
    mass: 6.940000
    reduced_to: 97
  - symbol: Li # 117
    coordinates: [  0.166666667083562,  0.333333333097206,  0.875000000266102 ]
    mass: 6.940000
    reduced_to: 97
  - symbol: Li # 118
    coordinates: [  0.416666667083562,  0.333333333097206,  0.875000000266102 ]
    mass: 6.940000
    reduced_to: 97
  - symbol: Li # 119
    coordinates: [  0.666666667083562,  0.333333333097206,  0.875000000266102 ]
    mass: 6.940000
    reduced_to: 97
  - symbol: Li # 120
    coordinates: [  0.916666667083562,  0.333333333097206,  0.875000000266102 ]
    mass: 6.940000
    reduced_to: 97
  - symbol: Li # 121
    coordinates: [  0.166666667083562,  0.583333333097206,  0.875000000266102 ]
    mass: 6.940000
    reduced_to: 97
  - symbol: Li # 122
    coordinates: [  0.416666667083562,  0.583333333097206,  0.875000000266102 ]
    mass: 6.940000
    reduced_to: 97
  - symbol: Li # 123
    coordinates: [  0.666666667083562,  0.583333333097206,  0.875000000266102 ]
    mass: 6.940000
    reduced_to: 97
  - symbol: Li # 124
    coordinates: [  0.916666667083562,  0.583333333097206,  0.875000000266102 ]
    mass: 6.940000
    reduced_to: 97
  - symbol: Li # 125
    coordinates: [  0.166666667083562,  0.833333333097206,  0.875000000266102 ]
    mass: 6.940000
    reduced_to: 97
  - symbol: Li # 126
    coordinates: [  0.416666667083562,  0.833333333097206,  0.875000000266102 ]
    mass: 6.940000
    reduced_to: 97
  - symbol: Li # 127
    coordinates: [  0.666666667083562,  0.833333333097206,  0.875000000266102 ]
    mass: 6.940000
    reduced_to: 97
  - symbol: Li # 128
    coordinates: [  0.916666667083562,  0.833333333097206,  0.875000000266102 ]
    mass: 6.940000
    reduced_to: 97

displacements:
- atom:    1
  displacement:
    [   0.0052284239487257, -0.0000000000170959,  0.0085242936958080 ]
  forces:
  - [  -0.0056916903704405,  0.0000002333617886, -0.0090669095516205 ]
  - [   0.0016777937998995, -0.0000342819839716, -0.0000662673264742 ]
  - [   0.0000371448695660,  0.0000071332615335, -0.0000283085828414 ]
  - [   0.0016696278471500, -0.0000339392572641, -0.0000588400289416 ]
  - [   0.0004366694483906, -0.0007216436788440, -0.0000424596655648 ]
  - [   0.0003696567146108,  0.0007468257099390, -0.0000825691240607 ]
  - [  -0.0000332643212460, -0.0000314274802804, -0.0000147055834532 ]
  - [  -0.0000478546935483,  0.0000398010015488, -0.0000227354903473 ]
  - [  -0.0000140462070704, -0.0000295190257020, -0.0000318311795127 ]
  - [   0.0000213626772165, -0.0000067761211540, -0.0000186287070392 ]
  - [  -0.0000022100284696,  0.0000223573297262, -0.0000243000686169 ]
  - [   0.0000211782753468, -0.0000088468950707, -0.0000188758858712 ]
  - [   0.0004287539049983, -0.0007115202024579, -0.0000461610034108 ]
  - [  -0.0000464003533125,  0.0000391742214561, -0.0000228144199355 ]
  - [  -0.0000341460108757, -0.0000319313257933, -0.0000146721868077 ]
  - [   0.0003769011236727,  0.0007551405578852, -0.0000786194577813 ]
  - [   0.0000004278745394,  0.0000001291191438, -0.0000100426404970 ]
  - [  -0.0000001551475748,  0.0000002626329660, -0.0000052731484175 ]
  - [  -0.0000004172325134,  0.0000002624437911, -0.0000006395857781 ]
  - [   0.0000004362564425,  0.0000001937150955, -0.0000049713999033 ]
  - [   0.0000002675271276, -0.0000000875443220, -0.0000050553062465 ]
  - [   0.0000001442186175, -0.0000000987201929, -0.0000047949724831 ]
  - [  -0.0000002247214894, -0.0000001033768058, -0.0000005681067705 ]
  - [  -0.0000004885585554,  0.0000003194436431, -0.0000004862376954 ]
  - [  -0.0000002291053534,  0.0000000613799784, -0.0000005915353540 ]
  - [   0.0000002998858690, -0.0000002043670975, -0.0000004740941222 ]
  - [  -0.0000002216547728, -0.0000003138557076, -0.0000003203749657 ]
  - [   0.0000000372529030, -0.0000000683648977, -0.0000005020410754 ]
  - [   0.0000000819563866,  0.0000000409781933, -0.0000051921233535 ]
  - [  -0.0000001732259989,  0.0000001257285476, -0.0000005247711670 ]
  - [  -0.0000001396983862, -0.0000003706663847, -0.0000005416077329 ]
  - [   0.0000001761800377, -0.0000001890584826, -0.0000048708170652 ]
  - [   0.0000050254166126,  0.0000034748809412,  0.0000230116711464 ]
  - [  -0.0000032596290112,  0.0000015379046090,  0.0000193735322682 ]
  - [   0.0000014156103134,  0.0000000446452759, -0.0000025346525945 ]
  - [  -0.0000033597511901,  0.0000005468027666, -0.0000057761644712 ]
  - [   0.0000001931806253,  0.0000004582107067,  0.0000072667316999 ]
  - [  -0.0000008610765576, -0.0000045030610636,  0.0000210634607356 ]
  - [   0.0000025440979243,  0.0000017508864403,  0.0000038099606172 ]
  - [  -0.0000018666456754,  0.0000017117708921, -0.0000048857909860 ]
  - [  -0.0000016699989374,  0.0000000797444955, -0.0000055313794292 ]
  - [  -0.0000011258858876,  0.0000020854640752, -0.0000043904292397 ]
  - [   0.0000016753116370,  0.0000015797559172, -0.0000040809245547 ]
  - [   0.0000006010840252, -0.0000015408731997, -0.0000040176237235 ]
  - [   0.0000003753229976, -0.0000018225982785,  0.0000056225035223 ]
  - [   0.0000008530914783, -0.0000012363307178, -0.0000026667839848 ]
  - [  -0.0000006901100278, -0.0000001529697329, -0.0000040605373215 ]
  - [  -0.0000010095536709, -0.0000033956021070, -0.0000057683064369 ]
  - [  -0.0007256045937538, -0.0003869431093335,  0.0011335220187902 ]
  - [   0.0015611751005054, -0.0009347638115287,  0.0025531761348248 ]
  - [  -0.0001021157950163,  0.0000105972867459, -0.0000448620849056 ]
  - [   0.0000113478845378, -0.0000231228768826,  0.0000265920534730 ]
  - [   0.0001727844064590, -0.0000464767217636,  0.0000828474876471 ]
  - [  -0.0000569570329390,  0.0013196337968111,  0.0018402254208922 ]
  - [  -0.0005368161946535, -0.0003636796027422, -0.0003582062199712 ]
  - [   0.0000530590332346,  0.0000166576355696,  0.0000041928578867 ]
  - [  -0.0000072011234806, -0.0000349152833223, -0.0000045407723519 ]
  - [   0.0000251951532846, -0.0000413586385548,  0.0000112457200885 ]
  - [  -0.0000420847427449, -0.0000495715066791, -0.0000287014991045 ]
  - [   0.0000206505956157,  0.0000184932723641,  0.0000130998305394 ]
  - [   0.0000924800260691,  0.0004095211625099, -0.0001370850950480 ]
  - [  -0.0000604577362537,  0.0000734240747988, -0.0000245068804361 ]
  - [   0.0000272886827588, -0.0000001932494342,  0.0000034915283322 ]
  - [  -0.0000153263899847,  0.0000303252600133,  0.0000070137903094 ]
  - [   0.0000021121031750, -0.0000235252082348,  0.0000049099326134 ]
  - [   0.0000147464252223,  0.0000001164153218, -0.0002913083881140 ]
  - [  -0.0000211210808629, -0.0000108797103167, -0.0000096820294857 ]
  - [   0.0000120969489217,  0.0000038328580558,  0.0000130524858832 ]
  - [   0.0000219204030145, -0.0000142939388752,  0.0000240262597799 ]
  - [   0.0000145856402014,  0.0000073406845331, -0.0000081341713667 ]
  - [  -0.0000267132618319, -0.0000094790011644,  0.0000028964132071 ]
  - [  -0.0000112646193884, -0.0000042263418436, -0.0000011492520571 ]
  - [  -0.0000033269545838,  0.0000187940895557,  0.0000114766880870 ]
  - [   0.0000001415610313, -0.0000068717636168,  0.0000151442363858 ]
  - [  -0.0000035846605897, -0.0000239880755544,  0.0000113742426038 ]
  - [   0.0000066086649895,  0.0000028256326914,  0.0000109178945422 ]
  - [  -0.0000150579917317,  0.0000228360295296,  0.0000100843608379 ]
  - [   0.0000033061951399,  0.0000141849741340, -0.0000152830034494 ]
  - [  -0.0000153739601956,  0.0000067418441176,  0.0000014835968614 ]
  - [   0.0000258618965745,  0.0000169663690031,  0.0000216057524085 ]
  - [  -0.0000208314249903, -0.0000106802035589, -0.0000088921224233 ]
  - [   0.0000160377712746,  0.0000000320724212, -0.0003693849139381 ]
  - [   0.0000006504460544, -0.0000236965715885,  0.0000042580068111 ]
  - [   0.0000125402584672,  0.0000041024759412,  0.0000138264149427 ]
  - [  -0.0000150875621330,  0.0000070184469223,  0.0000019138678908 ]
  - [   0.0000031451365885,  0.0000140201300383, -0.0000149373809109 ]
  - [  -0.0000158586972248,  0.0000226413831115,  0.0000101229234133 ]
  - [   0.0000258727995970,  0.0000173710286617,  0.0000221505761147 ]
  - [  -0.0000033202113627, -0.0000242823734879,  0.0000120541080832 ]
  - [   0.0000001797452569, -0.0000073098635767,  0.0000156834139489 ]
  - [  -0.0000035660341382,  0.0000187501500477,  0.0000119906326290 ]
  - [   0.0000068285589805,  0.0000027706846595,  0.0000114254653454 ]
  - [  -0.0000264924074145, -0.0000096242874861,  0.0000035970442696 ]
  - [   0.0000143591314554,  0.0000078361481428, -0.0000082077458501 ]
  - [   0.0000218395143747, -0.0000149030238390,  0.0000248924188782 ]
  - [  -0.0000112503767014, -0.0000044186599553, -0.0000007441267371 ]
  - [  -0.0000499011948705,  0.0012986715883017,  0.0018206969834864 ]
  - [   0.0001739602885209, -0.0000477284193039,  0.0000814053055365 ]
  - [   0.0000532334670424,  0.0000165347009897,  0.0000049482841860 ]
  - [  -0.0005332752480172, -0.0003598909825087, -0.0003561289631762 ]
  - [   0.0015269471332431, -0.0009097913280129,  0.0024974178522825 ]
  - [  -0.0007215337827802, -0.0003871330991387,  0.0011383686214685 ]
  - [   0.0000124014914036, -0.0000227009877563,  0.0000268571602646 ]
  - [  -0.0001003136858344,  0.0000102519989014, -0.0000437566268374 ]
  - [  -0.0000600470229983,  0.0000723414123058, -0.0000241996094701 ]
  - [   0.0000906651839614,  0.0004079723730683, -0.0001382042246405 ]
  - [  -0.0000136755552376,  0.0000313026830554,  0.0000066275533754 ]
  - [   0.0000268854200840, -0.0000001043081284,  0.0000042921019485 ]
  - [   0.0000253561884165, -0.0000419105053879,  0.0000110996334115 ]
  - [  -0.0000073369592428, -0.0000347425811924, -0.0000038294019760 ]
  - [   0.0000215787440538,  0.0000185600365512,  0.0000140046395245 ]
  - [  -0.0000417483970523, -0.0000500942696817, -0.0000285587157123 ]
  - [  -0.0000005457550287, -0.0000047255307436,  0.0000207204939215 ]
  - [   0.0000000906293280,  0.0000000866129994,  0.0000071404574555 ]
  - [  -0.0000015394762158,  0.0000018719583750, -0.0000054815536714 ]
  - [   0.0000023682041501,  0.0000014230608940,  0.0000034200784285 ]
  - [  -0.0000028805807233,  0.0000011287629604,  0.0000188760895981 ]
  - [   0.0000052498653531,  0.0000030649825931,  0.0000227755226661 ]
  - [  -0.0000029923394322,  0.0000005513429642, -0.0000064432751969 ]
  - [   0.0000008847564459, -0.0000002495944500, -0.0000033188262023 ]
  - [   0.0000010598450899, -0.0000010132789612, -0.0000035330813262 ]
  - [   0.0000002672895789, -0.0000016679987311,  0.0000053016847232 ]
  - [  -0.0000004553148756, -0.0000033285468817, -0.0000064787527663 ]
  - [  -0.0000007022172213, -0.0000002160668373, -0.0000046006534831 ]
  - [  -0.0000008782371879,  0.0000022611347958, -0.0000050471498980 ]
  - [  -0.0000018384307623,  0.0000003207242116, -0.0000064205305534 ]
  - [   0.0000013923272491, -0.0000015977420844, -0.0000048001093091 ]
  - [   0.0000017564743757,  0.0000015686382540, -0.0000047313878895 ]
- atom:   33
  displacement:
    [   0.0052284239487257, -0.0000000000170959,  0.0085242936958080 ]
  forces:
  - [   0.0000043388954509,  0.0000031409435906,  0.0000242837777478 ]
  - [  -0.0000036084918520, -0.0000016298145056, -0.0000054100528359 ]
  - [   0.0000021997839212, -0.0000007426133379, -0.0000027812784538 ]
  - [  -0.0000028608005778,  0.0000007916241884,  0.0000188760459423 ]
  - [   0.0000005348167065,  0.0000036992132664,  0.0000058851146605 ]
  - [  -0.0000023219236027, -0.0000017881393433, -0.0000045533524826 ]