# Thermal properties / unit cell (natom)

unit:
  temperature:   K
  free_energy:   kJ/mol
  entropy:       J/K/mol
  heat_capacity: J/K/mol

natom: 4    
cutoff_frequency: 0.00000
num_modes: 173280
num_integrated_modes: 173278

zero_point_energy:      14.0143861

thermal_properties:
- temperature:         0.0000000
  free_energy:        14.0143861
  entropy:             0.0000000
  heat_capacity:       0.0000000
  energy:             14.0143861

- temperature:        10.0000000
  free_energy:        14.0141217
  entropy:             0.0795964
  heat_capacity:       0.2043542
  energy:             14.0149177

- temperature:        20.0000000
  free_energy:        14.0114973
  entropy:             0.5442239
  heat_capacity:       1.5996406
  energy:             14.0223818

- temperature:        30.0000000
  free_energy:        14.0005231
  entropy:             1.8166840
  heat_capacity:       5.3691516
  energy:             14.0550236

- temperature:        40.0000000
  free_energy:        13.9715848
  entropy:             4.1514550
  heat_capacity:      11.4745766
  energy:             14.1376430

- temperature:        50.0000000
  free_energy:        13.9140914
  entropy:             7.5023542
  heat_capacity:      18.9916434
  energy:             14.2892091

- temperature:        60.0000000
  free_energy:        13.8188061
  entropy:            11.6719687
  heat_capacity:      27.0123720
  energy:             14.5191243

- temperature:        70.0000000
  free_energy:        13.6786867
  entropy:            16.4320411
  heat_capacity:      34.8840012
  energy:             14.8289296

- temperature:        80.0000000
  free_energy:        13.4888897
  entropy:            21.5761946
  heat_capacity:      42.2168163
  energy:             15.2149852

- temperature:        90.0000000
  free_energy:        13.2464427
  entropy:            26.9377730
  heat_capacity:      48.8270036
  energy:             15.6708423

- temperature:       100.0000000
  free_energy:        12.9498321
  entropy:            32.3911541
  heat_capacity:      54.6663631
  energy:             16.1889476

- temperature:       110.0000000
  free_energy:        12.5986174
  entropy:            37.8461411
  heat_capacity:      59.7639060
  energy:             16.7616929

- temperature:       120.0000000
  free_energy:        12.1931138
  entropy:            43.2404911
  heat_capacity:      64.1859496
  energy:             17.3819727

- temperature:       130.0000000
  free_energy:        11.7341490
  entropy:            48.5328967
  heat_capacity:      68.0120918
  energy:             18.0434256

- temperature:       140.0000000
  free_energy:        11.2228839
  entropy:            53.6972221
  heat_capacity:      71.3221702
  energy:             18.7404950

- temperature:       150.0000000
  free_energy:        10.6606836
  entropy:            58.7180806
  heat_capacity:      74.1899725
  energy:             19.4683957

- temperature:       160.0000000
  free_energy:        10.0490274
  entropy:            63.5875711
  heat_capacity:      76.6807768
  energy:             20.2230388

- temperature:       170.0000000
  free_energy:         9.3894464
  entropy:            68.3029230
  heat_capacity:      78.8509102
  energy:             21.0009433

- temperature:       180.0000000
  free_energy:         8.6834807
  entropy:            72.8648217
  heat_capacity:      80.7482810
  energy:             21.7991486

- temperature:       190.0000000
  free_energy:         7.9326517
  entropy:            77.2762285
  heat_capacity:      82.4133105
  energy:             22.6151352

- temperature:       200.0000000
  free_energy:         7.1384432
  entropy:            81.5415551
  heat_capacity:      83.8799659
  energy:             23.4467542

- temperature:       210.0000000
  free_energy:         6.3022900
  entropy:            85.6660893
  heat_capacity:      85.1767510
  energy:             24.2921688

- temperature:       220.0000000
  free_energy:         5.4255715
  entropy:            89.6555985
  heat_capacity:      86.3275932
  energy:             25.1498032

- temperature:       230.0000000
  free_energy:         4.5096082
  entropy:            93.5160580
  heat_capacity:      87.3526086
  energy:             26.0183015

- temperature:       240.0000000
  free_energy:         3.5556605
  entropy:            97.2534676
  heat_capacity:      88.2687483
  energy:             26.8964927

- temperature:       250.0000000
  free_energy:         2.5649293
  entropy:           100.8737290
  heat_capacity:      89.0903358
  energy:             27.7833616

- temperature:       260.0000000
  free_energy:         1.5385573
  entropy:           104.3825678
  heat_capacity:      89.8295130
  energy:             28.6780249

- temperature:       270.0000000
  free_energy:         0.4776310
  entropy:           107.7854841
  heat_capacity:      90.4966063
  energy:             29.5797117

- temperature:       280.0000000
  free_energy:        -0.6168168
  entropy:           111.0877254
  heat_capacity:      91.1004288
  energy:             30.4877463

- temperature:       290.0000000
  free_energy:        -1.7438045
  entropy:           114.2942732
  heat_capacity:      91.6485282
  energy:             31.4015347

- temperature:       300.0000000
  free_energy:        -2.9023990
  entropy:           117.4098396
  heat_capacity:      92.1473908
  energy:             32.3205528

- temperature:       310.0000000
  free_energy:        -4.0917129
  entropy:           120.4388710
  heat_capacity:      92.6026103
  energy:             33.2443371

- temperature:       320.0000000
  free_energy:        -5.3109020
  entropy:           123.3855555
  heat_capacity:      93.0190270
  energy:             34.1724758

- temperature:       330.0000000
  free_energy:        -6.5591627
  entropy:           126.2538335
  heat_capacity:      93.4008430
  energy:             35.1046024

- temperature:       340.0000000
  free_energy:        -7.8357297
  entropy:           129.0474095
  heat_capacity:      93.7517182
  energy:             36.0403896

- temperature:       350.0000000
  free_energy:        -9.1398735
  entropy:           131.7697652
  heat_capacity:      94.0748504
  energy:             36.9795443

- temperature:       360.0000000
  free_energy:       -10.4708985
  entropy:           134.4241722
  heat_capacity:      94.3730420
  energy:             37.9218035

- temperature:       370.0000000
  free_energy:       -11.8281407
  entropy:           137.0137053
  heat_capacity:      94.6487562
  energy:             38.8669302

- temperature:       380.0000000
  free_energy:       -13.2109660
  entropy:           139.5412552
  heat_capacity:      94.9041643
  energy:             39.8147109

- temperature:       390.0000000
  free_energy:       -14.6187683
  entropy:           142.0095399
  heat_capacity:      95.1411852
  energy:             40.7649523

- temperature:       400.0000000
  free_energy:       -16.0509678
  entropy:           144.4211171
  heat_capacity:      95.3615198
  energy:             41.7174790

- temperature:       410.0000000
  free_energy:       -17.5070097
  entropy:           146.7783945
  heat_capacity:      95.5666794
  energy:             42.6721321

- temperature:       420.0000000
  free_energy:       -18.9863623
  entropy:           149.0836401
  heat_capacity:      95.7580099
  energy:             43.6287665

- temperature:       430.0000000
  free_energy:       -20.4885162
  entropy:           151.3389916
  heat_capacity:      95.9367131
  energy:             44.5872502

- temperature:       440.0000000
  free_energy:       -22.0129825
  entropy:           153.5464656
  heat_capacity:      96.1038646
  energy:             45.5474623

- temperature:       450.0000000
  free_energy:       -23.5592922
  entropy:           155.7079655
  heat_capacity:      96.2604289
  energy:             46.5092922

- temperature:       460.0000000
  free_energy:       -25.1269946
  entropy:           157.8252893
  heat_capacity:      96.4072730
  energy:             47.4726385

- temperature:       470.0000000
  free_energy:       -26.7156564
  entropy:           159.9001369
  heat_capacity:      96.5451778
  energy:             48.4374079

- temperature:       480.0000000
  free_energy:       -28.3248611
  entropy:           161.9341161
  heat_capacity:      96.6748482
  energy:             49.4035146

- temperature:       490.0000000
  free_energy:       -29.9542076
  entropy:           163.9287493
  heat_capacity:      96.7969213
  energy:             50.3708795

- temperature:       500.0000000
  free_energy:       -31.6033098
  entropy:           165.8854788
  heat_capacity:      96.9119744
  energy:             51.3394296

- temperature:       510.0000000
  free_energy:       -33.2717954
  entropy:           167.8056722
  heat_capacity:      97.0205315
  energy:             52.3090974

- temperature:       520.0000000
  free_energy:       -34.9593058
  entropy:           169.6906269
  heat_capacity:      97.1230689
  energy:             53.2798202

- temperature:       530.0000000
  free_energy:       -36.6654946
  entropy:           171.5415750
  heat_capacity:      97.2200205
  energy:             54.2515401

- temperature:       540.0000000
  free_energy:       -38.3900278
  entropy:           173.3596873
  heat_capacity:      97.3117819
  energy:             55.2242033

- temperature:       550.0000000
  free_energy:       -40.1325826
  entropy:           175.1460769
  heat_capacity:      97.3987145
  energy:             56.1977597

- temperature:       560.0000000
  free_energy:       -41.8928471
  entropy:           176.9018032
  heat_capacity:      97.4811493
  energy:             57.1721626

- temperature:       570.0000000
  free_energy:       -43.6705198
  entropy:           178.6278746
  heat_capacity:      97.5593892
  energy:             58.1473687

- temperature:       580.0000000
  free_energy:       -45.4653090
  entropy:           180.3252523
  heat_capacity:      97.6337125
  energy:             59.1233374

- temperature:       590.0000000
  free_energy:       -47.2769323
  entropy:           181.9948526
  heat_capacity:      97.7043748
  energy:             60.1000307

- temperature:       600.0000000
  free_energy:       -49.1051164
  entropy:           183.6375497
  heat_capacity:      97.7716113
  energy:             61.0774134

- temperature:       610.0000000
  free_energy:       -50.9495964
  entropy:           185.2541782
  heat_capacity:      97.8356387
  energy:             62.0554523

- temperature:       620.0000000
  free_energy:       -52.8101157
  entropy:           186.8455353
  heat_capacity:      97.8966570
  energy:             63.0341162

- temperature:       630.0000000
  free_energy:       -54.6864254
  entropy:           188.4123832
  heat_capacity:      97.9548509
  energy:             64.0133760

- temperature:       640.0000000
  free_energy:       -56.5782841
  entropy:           189.9554507
  heat_capacity:      98.0103911
  energy:             64.9932044

- temperature:       650.0000000
  free_energy:       -58.4854575
  entropy:           191.4754354
  heat_capacity:      98.0634360
  energy:             65.9735755

- temperature:       660.0000000
  free_energy:       -60.4077181
  entropy:           192.9730051
  heat_capacity:      98.1141319
  energy:             66.9544652

- temperature:       670.0000000
  free_energy:       -62.3448450
  entropy:           194.4487997
  heat_capacity:      98.1626151
  energy:             67.9358508

- temperature:       680.0000000
  free_energy:       -64.2966236
  entropy:           195.9034326
  heat_capacity:      98.2090118
  energy:             68.9177106

- temperature:       690.0000000
  free_energy:       -66.2628451
  entropy:           197.3374921
  heat_capacity:      98.2534396
  energy:             69.9000244

- temperature:       700.0000000
  free_energy:       -68.2433067
  entropy:           198.7515427
  heat_capacity:      98.2960079
  energy:             70.8827732

- temperature:       710.0000000
  free_energy:       -70.2378111
  entropy:           200.1461265
  heat_capacity:      98.3368186
  energy:             71.8659387

- temperature:       720.0000000
  free_energy:       -72.2461661
  entropy:           201.5217640
  heat_capacity:      98.3759668
  energy:             72.8495040

- temperature:       730.0000000
  free_energy:       -74.2681848
  entropy:           202.8789557
  heat_capacity:      98.4135413
  energy:             73.8334528

- temperature:       740.0000000
  free_energy:       -76.3036853
  entropy:           204.2181827
  heat_capacity:      98.4496249
  energy:             74.8177699

- temperature:       750.0000000
  free_energy:       -78.3524902
  entropy:           205.5399077
  heat_capacity:      98.4842952
  energy:             75.8024406

- temperature:       760.0000000
  free_energy:       -80.4144266
  entropy:           206.8445762
  heat_capacity:      98.5176249
  energy:             76.7874513

- temperature:       770.0000000
  free_energy:       -82.4893263
  entropy:           208.1326171
  heat_capacity:      98.5496819
  energy:             77.7727889

- temperature:       780.0000000
  free_energy:       -84.5770249
  entropy:           209.4044434
  heat_capacity:      98.5805300
  energy:             78.7584409

- temperature:       790.0000000
  free_energy:       -86.6773624
  entropy:           210.6604532
  heat_capacity:      98.6102290
  energy:             79.7443957

- temperature:       800.0000000
  free_energy:       -88.7901825
  entropy:           211.9010305
  heat_capacity:      98.6388352
  energy:             80.7306419

- temperature:       810.0000000
  free_energy:       -90.9153328
  entropy:           213.1265453
  heat_capacity:      98.6664013
  energy:             81.7171689

- temperature:       820.0000000
  free_energy:       -93.0526644
  entropy:           214.3373549
  heat_capacity:      98.6929770
  energy:             82.7039666

- temperature:       830.0000000
  free_energy:       -95.2020320
  entropy:           215.5338040
  heat_capacity:      98.7186091
  energy:             83.6910253

- temperature:       840.0000000
  free_energy:       -97.3632938
  entropy:           216.7162256
  heat_capacity:      98.7433415
  energy:             84.6783358

- temperature:       850.0000000
  free_energy:       -99.5363109
  entropy:           217.8849413
  heat_capacity:      98.7672158
  energy:             85.6658893

- temperature:       860.0000000
  free_energy:      -101.7209479
  entropy:           219.0402620
  heat_capacity:      98.7902711
  energy:             86.6536774

- temperature:       870.0000000
  free_energy:      -103.9170725
  entropy:           220.1824880
  heat_capacity:      98.8125444
  energy:             87.6416921

- temperature:       880.0000000
  free_energy:      -106.1245550
  entropy:           221.3119100
  heat_capacity:      98.8340705
  energy:             88.6299258

- temperature:       890.0000000
  free_energy:      -108.3432689
  entropy:           222.4288090
  heat_capacity:      98.8548824
  energy:             89.6183711

- temperature:       900.0000000
  free_energy:      -110.5730904
  entropy:           223.5334572
  heat_capacity:      98.8750112
  energy:             90.6070211

- temperature:       910.0000000
  free_energy:      -112.8138981
  entropy:           224.6261179
  heat_capacity:      98.8944866
  energy:             91.5958691

- temperature:       920.0000000
  free_energy:      -115.0655736
  entropy:           225.7070461
  heat_capacity:      98.9133363
  energy:             92.5849088

- temperature:       930.0000000
  free_energy:      -117.3280007
  entropy:           226.7764888
  heat_capacity:      98.9315868
  energy:             93.5741339

- temperature:       940.0000000
  free_energy:      -119.6010659
  entropy:           227.8346856
  heat_capacity:      98.9492632
  energy:             94.5635386

- temperature:       950.0000000
  free_energy:      -121.8846577
  entropy:           228.8818685
  heat_capacity:      98.9663893
  energy:             95.5531173

- temperature:       960.0000000
  free_energy:      -124.1786673
  entropy:           229.9182624
  heat_capacity:      98.9829877
  energy:             96.5428646

- temperature:       970.0000000
  free_energy:      -126.4829878
  entropy:           230.9440857
  heat_capacity:      98.9990797
  energy:             97.5327754

- temperature:       980.0000000
  free_energy:      -128.7975145
  entropy:           231.9595501
  heat_capacity:      99.0146857
  energy:             98.5228446

- temperature:       990.0000000
  free_energy:      -131.1221449
  entropy:           232.9648611
  heat_capacity:      99.0298251
  energy:             99.5130675

- temperature:      1000.0000000
  free_energy:      -133.4567785
  entropy:           233.9602181
  heat_capacity:      99.0445161
  energy:            100.5034396
