# Thermal properties / unit cell (natom)

unit:
  temperature:   K
  free_energy:   kJ/mol
  entropy:       J/K/mol
  heat_capacity: J/K/mol

natom: 3    
cutoff_frequency: 0.00000
num_modes: 318240
num_integrated_modes: 316844

zero_point_energy:      11.5664267

thermal_properties:
- temperature:         0.0000000
  free_energy:        11.5664267
  entropy:             0.0000000
  heat_capacity:       0.0000000
  energy:             11.5664267

- temperature:        10.0000000
  free_energy:        11.5655122
  entropy:             0.3015309
  heat_capacity:       0.7452187
  energy:             11.5685275

- temperature:        20.0000000
  free_energy:        11.5562374
  entropy:             1.8217218
  heat_capacity:       4.6264010
  energy:             11.5926719

- temperature:        30.0000000
  free_energy:        11.5244312
  entropy:             4.7047093
  heat_capacity:       9.9251692
  energy:             11.6655724

- temperature:        40.0000000
  free_energy:        11.4600904
  entropy:             8.2193686
  heat_capacity:      14.6049659
  energy:             11.7888651

- temperature:        50.0000000
  free_energy:        11.3594346
  entropy:            11.9267286
  heat_capacity:      18.7185560
  energy:             11.9557710

- temperature:        60.0000000
  free_energy:        11.2213876
  entropy:            15.6876824
  heat_capacity:      22.6466007
  energy:             12.1626485

- temperature:        70.0000000
  free_energy:        11.0456050
  entropy:            19.4718573
  heat_capacity:      26.5483570
  energy:             12.4086350

- temperature:        80.0000000
  free_energy:        10.8319043
  entropy:            23.2696838
  heat_capacity:      30.4072799
  energy:             12.6934790

- temperature:        90.0000000
  free_energy:        10.5802075
  entropy:            27.0685032
  heat_capacity:      34.1440911
  energy:             13.0163728

- temperature:       100.0000000
  free_energy:        10.2905883
  entropy:            30.8510580
  heat_capacity:      37.6818055
  energy:             13.3756941

- temperature:       110.0000000
  free_energy:         9.9633026
  entropy:            34.5987885
  heat_capacity:      40.9685708
  energy:             13.7691693

- temperature:       120.0000000
  free_energy:         9.5987858
  entropy:            38.2946436
  heat_capacity:      43.9792854
  energy:             14.1941431

- temperature:       130.0000000
  free_energy:         9.1976300
  entropy:            41.9245322
  heat_capacity:      46.7096980
  energy:             14.6478192

- temperature:       140.0000000
  free_energy:         8.7605512
  entropy:            45.4777330
  heat_capacity:      49.1694027
  energy:             15.1274338

- temperature:       150.0000000
  free_energy:         8.2883564
  entropy:            48.9467124
  heat_capacity:      51.3760322
  energy:             15.6303632

- temperature:       160.0000000
  free_energy:         7.7819139
  entropy:            52.3266787
  heat_capacity:      53.3511066
  energy:             16.1541825

- temperature:       170.0000000
  free_energy:         7.2421283
  entropy:            55.6150646
  heat_capacity:      55.1173244
  energy:             16.6966892

- temperature:       180.0000000
  free_energy:         6.6699208
  entropy:            58.8110349
  heat_capacity:      56.6969254
  energy:             17.2559071

- temperature:       190.0000000
  free_energy:         6.0662142
  entropy:            61.9150596
  heat_capacity:      58.1107849
  energy:             17.8300755

- temperature:       200.0000000
  free_energy:         5.4319214
  entropy:            64.9285635
  heat_capacity:      59.3779800
  energy:             18.4176341

- temperature:       210.0000000
  free_energy:         4.7679377
  entropy:            67.8536469
  heat_capacity:      60.5156454
  energy:             19.0172035

- temperature:       220.0000000
  free_energy:         4.0751347
  entropy:            70.6928703
  heat_capacity:      61.5389969
  energy:             19.6275662

- temperature:       230.0000000
  free_energy:         3.3543570
  entropy:            73.4490885
  heat_capacity:      62.4614472
  energy:             20.2476473

- temperature:       240.0000000
  free_energy:         2.6064195
  entropy:            76.1253276
  heat_capacity:      63.2947645
  energy:             20.8764982

- temperature:       250.0000000
  free_energy:         1.8321067
  entropy:            78.7246932
  heat_capacity:      64.0492453
  energy:             21.5132800

- temperature:       260.0000000
  free_energy:         1.0321715
  entropy:            81.2503033
  heat_capacity:      64.7338861
  energy:             22.1572504

- temperature:       270.0000000
  free_energy:         0.2073362
  entropy:            83.7052408
  heat_capacity:      65.3565443
  energy:             22.8077512

- temperature:       280.0000000
  free_energy:        -0.6417078
  entropy:            86.0925194
  heat_capacity:      65.9240848
  energy:             23.4641976

- temperature:       290.0000000
  free_energy:        -1.5142984
  entropy:            88.4150610
  heat_capacity:      66.4425102
  energy:             24.1260693

- temperature:       300.0000000
  free_energy:        -2.4098026
  entropy:            90.6756811
  heat_capacity:      66.9170761
  energy:             24.7929017

- temperature:       310.0000000
  free_energy:        -3.3276147
  entropy:            92.8770796
  heat_capacity:      67.3523906
  energy:             25.4642800

- temperature:       320.0000000
  free_energy:        -4.2671554
  entropy:            95.0218364
  heat_capacity:      67.7525014
  energy:             26.1398322

- temperature:       330.0000000
  free_energy:        -5.2278708
  entropy:            97.1124103
  heat_capacity:      68.1209706
  energy:             26.8192246

- temperature:       340.0000000
  free_energy:        -6.2092308
  entropy:            99.1511397
  heat_capacity:      68.4609390
  energy:             27.5021567

- temperature:       350.0000000
  free_energy:        -7.2107282
  entropy:           101.1402453
  heat_capacity:      68.7751817
  energy:             28.1883577

- temperature:       360.0000000
  free_energy:        -8.2318773
  entropy:           103.0818337
  heat_capacity:      69.0661555
  energy:             28.8775828

- temperature:       370.0000000
  free_energy:        -9.2722131
  entropy:           104.9779018
  heat_capacity:      69.3360403
  energy:             29.5696105

- temperature:       380.0000000
  free_energy:       -10.3312900
  entropy:           106.8303414
  heat_capacity:      69.5867741
  energy:             30.2642398

- temperature:       390.0000000
  free_energy:       -11.4086805
  entropy:           108.6409448
  heat_capacity:      69.8200836
  energy:             30.9612879

- temperature:       400.0000000
  free_energy:       -12.5039751
  entropy:           110.4114090
  heat_capacity:      70.0375100
  energy:             31.6605885

- temperature:       410.0000000
  free_energy:       -13.6167803
  entropy:           112.1433416
  heat_capacity:      70.2404321
  energy:             32.3619898

- temperature:       420.0000000
  free_energy:       -14.7467185
  entropy:           113.8382655
  heat_capacity:      70.4300857
  energy:             33.0653530

- temperature:       430.0000000
  free_energy:       -15.8934270
  entropy:           115.4976233
  heat_capacity:      70.6075806
  energy:             33.7705510

- temperature:       440.0000000
  free_energy:       -17.0565570
  entropy:           117.1227827
  heat_capacity:      70.7739153
  energy:             34.4774674

- temperature:       450.0000000
  free_energy:       -18.2357730
  entropy:           118.7150403
  heat_capacity:      70.9299898
  energy:             35.1859951

- temperature:       460.0000000
  free_energy:       -19.4307523
  entropy:           120.2756260
  heat_capacity:      71.0766169
  energy:             35.8960357

- temperature:       470.0000000
  free_energy:       -20.6411839
  entropy:           121.8057070
  heat_capacity:      71.2145319
  energy:             36.6074984

- temperature:       480.0000000
  free_energy:       -21.8667684
  entropy:           123.3063915
  heat_capacity:      71.3444010
  energy:             37.3202995

- temperature:       490.0000000
  free_energy:       -23.1072172
  entropy:           124.7787324
  heat_capacity:      71.4668292
  energy:             38.0343616

- temperature:       500.0000000
  free_energy:       -24.3622519
  entropy:           126.2237301
  heat_capacity:      71.5823662
  energy:             38.7496131

- temperature:       510.0000000
  free_energy:       -25.6316039
  entropy:           127.6423363
  heat_capacity:      71.6915128
  energy:             39.4659877

- temperature:       520.0000000
  free_energy:       -26.9150137
  entropy:           129.0354564
  heat_capacity:      71.7947257
  energy:             40.1834236

- temperature:       530.0000000
  free_energy:       -28.2122309
  entropy:           130.4039523
  heat_capacity:      71.8924221
  energy:             40.9018638

- temperature:       540.0000000
  free_energy:       -29.5230134
  entropy:           131.7486451
  heat_capacity:      71.9849835
  energy:             41.6212549

- temperature:       550.0000000
  free_energy:       -30.8471271
  entropy:           133.0703175
  heat_capacity:      72.0727596
  energy:             42.3415475

- temperature:       560.0000000
  free_energy:       -32.1843455
  entropy:           134.3697157
  heat_capacity:      72.1560710
  energy:             43.0626953

- temperature:       570.0000000
  free_energy:       -33.5344495
  entropy:           135.6475519
  heat_capacity:      72.2352122
  energy:             43.7846550

- temperature:       580.0000000
  free_energy:       -34.8972270
  entropy:           136.9045060
  heat_capacity:      72.3104541
  energy:             44.5073865

- temperature:       590.0000000
  free_energy:       -36.2724722
  entropy:           138.1412274
  heat_capacity:      72.3820464
  energy:             45.2308520

- temperature:       600.0000000
  free_energy:       -37.6599861
  entropy:           139.3583370
  heat_capacity:      72.4502189
  energy:             45.9550160

- temperature:       610.0000000
  free_energy:       -39.0595756
  entropy:           140.5564282
  heat_capacity:      72.5151841
  energy:             46.6798456

- temperature:       620.0000000
  free_energy:       -40.4710532
  entropy:           141.7360692
  heat_capacity:      72.5771383
  energy:             47.4053097

- temperature:       630.0000000
  free_energy:       -41.8942373
  entropy:           142.8978036
  heat_capacity:      72.6362631
  energy:             48.1313790

- temperature:       640.0000000
  free_energy:       -43.3289513
  entropy:           144.0421522
  heat_capacity:      72.6927269
  energy:             48.8580261

- temperature:       650.0000000
  free_energy:       -44.7750240
  entropy:           145.1696141
  heat_capacity:      72.7466856
  energy:             49.5852252

- temperature:       660.0000000
  free_energy:       -46.2322889
  entropy:           146.2806679
  heat_capacity:      72.7982841
  energy:             50.3129519

- temperature:       670.0000000
  free_energy:       -47.7005842
  entropy:           147.3757726
  heat_capacity:      72.8476571
  energy:             51.0411834

- temperature:       680.0000000
  free_energy:       -49.1797527
  entropy:           148.4553687
  heat_capacity:      72.8949298
  energy:             51.7698981

- temperature:       690.0000000
  free_energy:       -50.6696413
  entropy:           149.5198793
  heat_capacity:      72.9402189
  energy:             52.4990754

- temperature:       700.0000000
  free_energy:       -52.1701013
  entropy:           150.5697107
  heat_capacity:      72.9836329
  energy:             53.2286962

- temperature:       710.0000000
  free_energy:       -53.6809879
  entropy:           151.6052536
  heat_capacity:      73.0252733
  energy:             53.9587422

- temperature:       720.0000000
  free_energy:       -55.2021600
  entropy:           152.6268835
  heat_capacity:      73.0652348
  energy:             54.6891961

- temperature:       730.0000000
  free_energy:       -56.7334804
  entropy:           153.6349616
  heat_capacity:      73.1036059
  energy:             55.4200416

- temperature:       740.0000000
  free_energy:       -58.2748152
  entropy:           154.6298357
  heat_capacity:      73.1404693
  energy:             56.1512632

- temperature:       750.0000000
  free_energy:       -59.8260342
  entropy:           155.6118405
  heat_capacity:      73.1759025
  energy:             56.8828462

- temperature:       760.0000000
  free_energy:       -61.3870102
  entropy:           156.5812986
  heat_capacity:      73.2099782
  energy:             57.6147767

- temperature:       770.0000000
  free_energy:       -62.9576194
  entropy:           157.5385206
  heat_capacity:      73.2427644
  energy:             58.3470414

- temperature:       780.0000000
  free_energy:       -64.5377409
  entropy:           158.4838061
  heat_capacity:      73.2743251
  energy:             59.0796279

- temperature:       790.0000000
  free_energy:       -66.1272567
  entropy:           159.4174440
  heat_capacity:      73.3047201
  energy:             59.8125241

- temperature:       800.0000000
  free_energy:       -67.7260518
  entropy:           160.3397130
  heat_capacity:      73.3340060
  energy:             60.5457186

- temperature:       810.0000000
  free_energy:       -69.3340140
  entropy:           161.2508822
  heat_capacity:      73.3622357
  energy:             61.2792007

- temperature:       820.0000000
  free_energy:       -70.9510334
  entropy:           162.1512114
  heat_capacity:      73.3894592
  energy:             62.0129599

- temperature:       830.0000000
  free_energy:       -72.5770029
  entropy:           163.0409512
  heat_capacity:      73.4157235
  energy:             62.7469866

- temperature:       840.0000000
  free_energy:       -74.2118179
  entropy:           163.9203444
  heat_capacity:      73.4410729
  energy:             63.4812714

- temperature:       850.0000000
  free_energy:       -75.8553761
  entropy:           164.7896250
  heat_capacity:      73.4655493
  energy:             64.2158052

- temperature:       860.0000000
  free_energy:       -77.5075774
  entropy:           165.6490198
  heat_capacity:      73.4891921
  energy:             64.9505796

- temperature:       870.0000000
  free_energy:       -79.1683242
  entropy:           166.4987478
  heat_capacity:      73.5120386
  energy:             65.6855864

- temperature:       880.0000000
  free_energy:       -80.8375209
  entropy:           167.3390212
  heat_capacity:      73.5341239
  energy:             66.4208178

- temperature:       890.0000000
  free_energy:       -82.5150738
  entropy:           168.1700453
  heat_capacity:      73.5554813
  energy:             67.1562664

- temperature:       900.0000000
  free_energy:       -84.2008916
  entropy:           168.9920186
  heat_capacity:      73.5761425
  energy:             67.8919251

- temperature:       910.0000000
  free_energy:       -85.8948847
  entropy:           169.8051338
  heat_capacity:      73.5961371
  energy:             68.6277871

- temperature:       920.0000000
  free_energy:       -87.5969654
  entropy:           170.6095773
  heat_capacity:      73.6154935
  energy:             69.3638457

- temperature:       930.0000000
  free_energy:       -89.3070479
  entropy:           171.4055299
  heat_capacity:      73.6342384
  energy:             70.1000949

- temperature:       940.0000000
  free_energy:       -91.0250483
  entropy:           172.1931668
  heat_capacity:      73.6523971
  energy:             70.8365285

- temperature:       950.0000000
  free_energy:       -92.7508841
  entropy:           172.9726580
  heat_capacity:      73.6699939
  energy:             71.5731410

- temperature:       960.0000000
  free_energy:       -94.4844748
  entropy:           173.7441682
  heat_capacity:      73.6870516
  energy:             72.3099266

- temperature:       970.0000000
  free_energy:       -96.2257414
  entropy:           174.5078574
  heat_capacity:      73.7035918
  energy:             73.0468803

- temperature:       980.0000000
  free_energy:       -97.9746064
  entropy:           175.2638809
  heat_capacity:      73.7196353
  energy:             73.7839968

- temperature:       990.0000000
  free_energy:       -99.7309940
  entropy:           176.0123893
  heat_capacity:      73.7352016
  energy:             74.5212714

- temperature:      1000.0000000
  free_energy:      -101.4948296
  entropy:           176.7535290
  heat_capacity:      73.7503095
  energy:             75.2586993
