# Thermal properties / unit cell (natom)

unit:
  temperature:   K
  free_energy:   kJ/mol
  entropy:       J/K/mol
  heat_capacity: J/K/mol

natom: 13   
cutoff_frequency: 0.00000
num_modes: 156000
num_integrated_modes: 153077

zero_point_energy:      36.9094081

thermal_properties:
- temperature:         0.0000000
  free_energy:        36.9094081
  entropy:             0.0000000
  heat_capacity:       0.0000000
  energy:             36.9094081

- temperature:        10.0000000
  free_energy:        36.8925340
  entropy:             5.4063847
  heat_capacity:      12.6635753
  energy:             36.9465978

- temperature:        20.0000000
  free_energy:        36.7501687
  entropy:            25.1419886
  heat_capacity:      50.1849781
  energy:             37.2530085

- temperature:        30.0000000
  free_energy:        36.3642364
  entropy:            52.6730575
  heat_capacity:      86.8557309
  energy:             37.9444281

- temperature:        40.0000000
  free_energy:        35.6919741
  entropy:            81.7546185
  heat_capacity:     115.3855811
  energy:             38.9621589

- temperature:        50.0000000
  free_energy:        34.7322197
  entropy:           109.9680043
  heat_capacity:     137.4618951
  energy:             40.2306199

- temperature:        60.0000000
  free_energy:        33.4976894
  entropy:           136.6765632
  heat_capacity:     155.5671158
  energy:             41.6982832

- temperature:        70.0000000
  free_energy:        32.0037889
  entropy:           161.8591967
  heat_capacity:     171.2369575
  energy:             43.3339327

- temperature:        80.0000000
  free_energy:        30.2651324
  entropy:           185.6537747
  heat_capacity:     185.2169903
  energy:             45.1174344

- temperature:        90.0000000
  free_energy:        28.2948382
  entropy:           208.2099951
  heat_capacity:     197.8311504
  energy:             47.0337378

- temperature:       100.0000000
  free_energy:        26.1046385
  entropy:           229.6535520
  heat_capacity:     209.2245222
  energy:             49.0699937

- temperature:       110.0000000
  free_energy:        23.7051400
  entropy:           250.0846234
  heat_capacity:     219.4838016
  energy:             51.2144486

- temperature:       120.0000000
  free_energy:        21.1060498
  entropy:           269.5841284
  heat_capacity:     228.6859302
  energy:             53.4561452

- temperature:       130.0000000
  free_energy:        18.3163358
  entropy:           288.2198345
  heat_capacity:     236.9123737
  energy:             55.7849143

- temperature:       140.0000000
  free_energy:        15.3443354
  entropy:           306.0506663
  heat_capacity:     244.2496510
  energy:             58.1914287

- temperature:       150.0000000
  free_energy:        12.1978290
  entropy:           323.1293870
  heat_capacity:     250.7857747
  energy:             60.6672371

- temperature:       160.0000000
  free_energy:         8.8840937
  entropy:           339.5041645
  heat_capacity:     256.6064899
  energy:             63.2047600

- temperature:       170.0000000
  free_energy:         5.4099437
  entropy:           355.2194610
  heat_capacity:     261.7925258
  energy:             65.7972520

- temperature:       180.0000000
  free_energy:         1.7817649
  entropy:           370.3165441
  heat_capacity:     266.4179950
  energy:             68.4387428

- temperature:       190.0000000
  free_energy:        -1.9944547
  entropy:           384.8337982
  heat_capacity:     270.5497103
  energy:             71.1239669

- temperature:       200.0000000
  free_energy:        -5.9130977
  entropy:           398.8069391
  heat_capacity:     274.2471349
  energy:             73.8482902

- temperature:       210.0000000
  free_energy:        -9.9688908
  entropy:           412.2691826
  heat_capacity:     277.5627208
  energy:             76.6076375

- temperature:       220.0000000
  free_energy:       -14.1568814
  entropy:           425.2513963
  heat_capacity:     280.5424574
  energy:             79.3984257

- temperature:       230.0000000
  free_energy:       -18.4724144
  entropy:           437.7822437
  heat_capacity:     283.2265121
  energy:             82.2175017

- temperature:       240.0000000
  free_energy:       -22.9111107
  entropy:           449.8883258
  heat_capacity:     285.6498878
  energy:             85.0620875

- temperature:       250.0000000
  free_energy:       -27.4688475
  entropy:           461.5943199
  heat_capacity:     287.8430539
  energy:             87.9297325

- temperature:       260.0000000
  free_energy:       -32.1417399
  entropy:           472.9231151
  heat_capacity:     289.8325285
  energy:             90.8182700

- temperature:       270.0000000
  free_energy:       -36.9261234
  entropy:           483.8959436
  heat_capacity:     291.6414021
  energy:             93.7257814

- temperature:       280.0000000
  free_energy:       -41.8185380
  entropy:           494.5325053
  heat_capacity:     293.2898002
  energy:             96.6505634

- temperature:       290.0000000
  free_energy:       -46.8157137
  entropy:           504.8510861
  heat_capacity:     294.7952879
  energy:             99.5911013

- temperature:       300.0000000
  free_energy:       -51.9145566
  entropy:           514.8686693
  heat_capacity:     296.1732206
  energy:            102.5460442

- temperature:       310.0000000
  free_energy:       -57.1121365
  entropy:           524.6010387
  heat_capacity:     297.4370461
  energy:            105.5141855

- temperature:       320.0000000
  free_energy:       -62.4056757
  entropy:           534.0628749
  heat_capacity:     298.5985651
  energy:            108.4944443

- temperature:       330.0000000
  free_energy:       -67.7925379
  entropy:           543.2678436
  heat_capacity:     299.6681540
  energy:            111.4858505

- temperature:       340.0000000
  free_energy:       -73.2702189
  entropy:           552.2286776
  heat_capacity:     300.6549563
  energy:            114.4875315

- temperature:       350.0000000
  free_energy:       -78.8363373
  entropy:           560.9572515
  heat_capacity:     301.5670462
  energy:            117.4987007

- temperature:       360.0000000
  free_energy:       -84.4886267
  entropy:           569.4646501
  heat_capacity:     302.4115690
  energy:            120.5186473

- temperature:       370.0000000
  free_energy:       -90.2249277
  entropy:           577.7612317
  heat_capacity:     303.1948621
  energy:            123.5467280

- temperature:       380.0000000
  free_energy:       -96.0431810
  entropy:           585.8566850
  heat_capacity:     303.9225578
  energy:            126.5823593

- temperature:       390.0000000
  free_energy:      -101.9414213
  entropy:           593.7600818
  heat_capacity:     304.5996728
  energy:            129.6250107

- temperature:       400.0000000
  free_energy:      -107.9177709
  entropy:           601.4799250
  heat_capacity:     305.2306845
  energy:            132.6741991

- temperature:       410.0000000
  free_energy:      -113.9704346
  entropy:           609.0241918
  heat_capacity:     305.8195975
  energy:            135.7294841

- temperature:       420.0000000
  free_energy:      -120.0976945
  entropy:           616.4003743
  heat_capacity:     306.3700004
  energy:            138.7904628

- temperature:       430.0000000
  free_energy:      -126.2979053
  entropy:           623.6155158
  heat_capacity:     306.8851154
  energy:            141.8567665

- temperature:       440.0000000
  free_energy:      -132.5694901
  entropy:           630.6762437
  heat_capacity:     307.3678414
  energy:            144.9280571

- temperature:       450.0000000
  free_energy:      -138.9109363
  entropy:           637.5888009
  heat_capacity:     307.8207913
  energy:            148.0040241

- temperature:       460.0000000
  free_energy:      -145.3207919
  entropy:           644.3590728
  heat_capacity:     308.2463244
  energy:            151.0843816

- temperature:       470.0000000
  free_energy:      -151.7976620
  entropy:           650.9926135
  heat_capacity:     308.6465747
  energy:            154.1688663

- temperature:       480.0000000
  free_energy:      -158.3402059
  entropy:           657.4946691
  heat_capacity:     309.0234763
  energy:            157.2572353

- temperature:       490.0000000
  free_energy:      -164.9471337
  entropy:           663.8701991
  heat_capacity:     309.3787843
  energy:            160.3492639

- temperature:       500.0000000
  free_energy:      -171.6172038
  entropy:           670.1238962
  heat_capacity:     309.7140947
  energy:            163.4447443

- temperature:       510.0000000
  free_energy:      -178.3492203
  entropy:           676.2602045
  heat_capacity:     310.0308606
  energy:            166.5434840

- temperature:       520.0000000
  free_energy:      -185.1420307
  entropy:           682.2833362
  heat_capacity:     310.3304074
  energy:            169.6453041

- temperature:       530.0000000
  free_energy:      -191.9945231
  entropy:           688.1972866
  heat_capacity:     310.6139457
  energy:            172.7500388

- temperature:       540.0000000
  free_energy:      -198.9056251
  entropy:           694.0058491
  heat_capacity:     310.8825827
  energy:            175.8575334

- temperature:       550.0000000
  free_energy:      -205.8743009
  entropy:           699.7126273
  heat_capacity:     311.1373330
  energy:            178.9676442

- temperature:       560.0000000
  free_energy:      -212.8995498
  entropy:           705.3210477
  heat_capacity:     311.3791269
  energy:            182.0802369

- temperature:       570.0000000
  free_energy:      -219.9804048
  entropy:           710.8343705
  heat_capacity:     311.6088192
  energy:            185.1951864

- temperature:       580.0000000
  free_energy:      -227.1159306
  entropy:           716.2557003
  heat_capacity:     311.8271961
  energy:            188.3123756

- temperature:       590.0000000
  free_energy:      -234.3052221
  entropy:           721.5879950
  heat_capacity:     312.0349814
  energy:            191.4316950

- temperature:       600.0000000
  free_energy:      -241.5474031
  entropy:           726.8340754
  heat_capacity:     312.2328428
  energy:            194.5530421

- temperature:       610.0000000
  free_energy:      -248.8416252
  entropy:           731.9966328
  heat_capacity:     312.4213966
  energy:            197.6763208

- temperature:       620.0000000
  free_energy:      -256.1870660
  entropy:           737.0782369
  heat_capacity:     312.6012124
  energy:            200.8014409

- temperature:       630.0000000
  free_energy:      -263.5829283
  entropy:           742.0813428
  heat_capacity:     312.7728173
  energy:            203.9283177

- temperature:       640.0000000
  free_energy:      -271.0284390
  entropy:           747.0082977
  heat_capacity:     312.9366995
  energy:            207.0568715

- temperature:       650.0000000
  free_energy:      -278.5228479
  entropy:           751.8613467
  heat_capacity:     313.0933118
  energy:            210.1870275

- temperature:       660.0000000
  free_energy:      -286.0654267
  entropy:           756.6426389
  heat_capacity:     313.2430748
  energy:            213.3187149

- temperature:       670.0000000
  free_energy:      -293.6554684
  entropy:           761.3542325
  heat_capacity:     313.3863789
  energy:            216.4518674

- temperature:       680.0000000
  free_energy:      -301.2922857
  entropy:           765.9980998
  heat_capacity:     313.5235877
  energy:            219.5864222

- temperature:       690.0000000
  free_energy:      -308.9752109
  entropy:           770.5761317
  heat_capacity:     313.6550395
  energy:            222.7223200

- temperature:       700.0000000
  free_energy:      -316.7035949
  entropy:           775.0901425
  heat_capacity:     313.7810498
  energy:            225.8595049

- temperature:       710.0000000
  free_energy:      -324.4768062
  entropy:           779.5418732
  heat_capacity:     313.9019128
  energy:            228.9979238

- temperature:       720.0000000
  free_energy:      -332.2942303
  entropy:           783.9329961
  heat_capacity:     314.0179032
  energy:            232.1375269

- temperature:       730.0000000
  free_energy:      -340.1552694
  entropy:           788.2651177
  heat_capacity:     314.1292778
  energy:            235.2782665

- temperature:       740.0000000
  free_energy:      -348.0593412
  entropy:           792.5397825
  heat_capacity:     314.2362768
  energy:            238.4200978

- temperature:       750.0000000
  free_energy:      -356.0058785
  entropy:           796.7584756
  heat_capacity:     314.3391252
  energy:            241.5629782

- temperature:       760.0000000
  free_energy:      -363.9943289
  entropy:           800.9226264
  heat_capacity:     314.4380335
  energy:            244.7068672

- temperature:       770.0000000
  free_energy:      -372.0241538
  entropy:           805.0336107
  heat_capacity:     314.5331994
  energy:            247.8517264

- temperature:       780.0000000
  free_energy:      -380.0948283
  entropy:           809.0927534
  heat_capacity:     314.6248082
  energy:            250.9975193

- temperature:       790.0000000
  free_energy:      -388.2058403
  entropy:           813.1013312
  heat_capacity:     314.7130341
  energy:            254.1442113

- temperature:       800.0000000
  free_energy:      -396.3566905
  entropy:           817.0605747
  heat_capacity:     314.7980408
  energy:            257.2917693

- temperature:       810.0000000
  free_energy:      -404.5468913
  entropy:           820.9716707
  heat_capacity:     314.8799822
  energy:            260.4401619

- temperature:       820.0000000
  free_energy:      -412.7759672
  entropy:           824.8357639
  heat_capacity:     314.9590032
  energy:            263.5893592

- temperature:       830.0000000
  free_energy:      -421.0434536
  entropy:           828.6539594
  heat_capacity:     315.0352403
  energy:            266.7393327

- temperature:       840.0000000
  free_energy:      -429.3488970
  entropy:           832.4273240
  heat_capacity:     315.1088220
  energy:            269.8900552

- temperature:       850.0000000
  free_energy:      -437.6918541
  entropy:           836.1568880
  heat_capacity:     315.1798698
  energy:            273.0415007

- temperature:       860.0000000
  free_energy:      -446.0718921
  entropy:           839.8436472
  heat_capacity:     315.2484980
  energy:            276.1936445

- temperature:       870.0000000
  free_energy:      -454.4885876
  entropy:           843.4885638
  heat_capacity:     315.3148150
  energy:            279.3464629

- temperature:       880.0000000
  free_energy:      -462.9415270
  entropy:           847.0925686
  heat_capacity:     315.3789227
  energy:            282.4999334

- temperature:       890.0000000
  free_energy:      -471.4303056
  entropy:           850.6565617
  heat_capacity:     315.4409180
  energy:            285.6540344

- temperature:       900.0000000
  free_energy:      -479.9545277
  entropy:           854.1814142
  heat_capacity:     315.5008922
  energy:            288.8087451

- temperature:       910.0000000
  free_energy:      -488.5138062
  entropy:           857.6679692
  heat_capacity:     315.5589318
  energy:            291.9640458

- temperature:       920.0000000
  free_energy:      -497.1077622
  entropy:           861.1170432
  heat_capacity:     315.6151188
  energy:            295.1199175

- temperature:       930.0000000
  free_energy:      -505.7360248
  entropy:           864.5294269
  heat_capacity:     315.6695310
  energy:            298.2763422

- temperature:       940.0000000
  free_energy:      -514.3982310
  entropy:           867.9058866
  heat_capacity:     315.7222421
  energy:            301.4333025

- temperature:       950.0000000
  free_energy:      -523.0940253
  entropy:           871.2471651
  heat_capacity:     315.7733219
  energy:            304.5907816

- temperature:       960.0000000
  free_energy:      -531.8230594
  entropy:           874.5539824
  heat_capacity:     315.8228368
  energy:            307.7487637

- temperature:       970.0000000
  free_energy:      -540.5849924
  entropy:           877.8270368
  heat_capacity:     315.8708499
  energy:            310.9072333

- temperature:       980.0000000
  free_energy:      -549.3794899
  entropy:           881.0670059
  heat_capacity:     315.9174211
  energy:            314.0661759

- temperature:       990.0000000
  free_energy:      -558.2062244
  entropy:           884.2745470
  heat_capacity:     315.9626074
  energy:            317.2255772

- temperature:      1000.0000000
  free_energy:      -567.0648748
  entropy:           887.4502984
  heat_capacity:     316.0064629
  energy:            320.3854236
