phonopy:
  version: "2.37.1"
  frequency_unit_conversion_factor: 15.633302
  symmetry_tolerance: 1.00000e-05

space_group:
  type: "P1"
  number: 1
  Hall_symbol: "P 1"

primitive_matrix:
- [  0.000000000000000,  1.000000000000000,  0.000000000000000 ]
- [  1.000000000000000,  0.000000000000000,  0.000000000000000 ]
- [  0.000000000000000,  0.000000000000000, -1.000000000000000 ]

supercell_matrix:
- [   3,   0,   0 ]
- [   0,   3,   0 ]
- [   0,   0,   1 ]

primitive_cell:
  lattice:
  - [    -0.000009190930208,     4.498852789770430,     0.000000000000000 ] # a
  - [     4.544163667095924,     0.000000000000000,     0.000000000000000 ] # b
  - [    -0.001469504788652,    -0.001205755994787,   -13.125464500364361 ] # c
  points:
  - symbol: Li # 1
    coordinates: [  0.406443434392404,  0.042217030198038,  0.802356190763854 ]
    mass: 6.940000
  - symbol: Li # 2
    coordinates: [  0.907094144955363,  0.542911356762653,  0.126621103282317 ]
    mass: 6.940000
  - symbol: Li # 3
    coordinates: [  0.406742976137744,  0.042652293424125,  0.435835342698003 ]
    mass: 6.940000
  - symbol: Li # 4
    coordinates: [  0.407049378584992,  0.543202838895624,  0.262074907494186 ]
    mass: 6.940000
  - symbol: Sn # 5
    coordinates: [  0.906046998065185,  0.041703381678309,  0.616758462434453 ]
    mass: 118.710000
  - symbol: Sn # 6
    coordinates: [  0.907199371297028,  0.042875946245469,  0.260244579489704 ]
    mass: 118.710000
  - symbol: Sn # 7
    coordinates: [  0.406032616539367,  0.541764992961193,  0.611769092291509 ]
    mass: 118.710000
  - symbol: Sn # 8
    coordinates: [  0.907099813633412,  0.042852099518817,  0.986457915960306 ]
    mass: 118.710000
  - symbol: Sn # 9
    coordinates: [  0.906526163219899,  0.542270935490983,  0.797110850674444 ]
    mass: 118.710000
  - symbol: Sn # 10
    coordinates: [  0.407036588018718,  0.542860200132586,  0.982086441094828 ]
    mass: 118.710000
  - symbol: Sn # 11
    coordinates: [  0.906846508830100,  0.542781475275946,  0.415066666099652 ]
    mass: 118.710000
  reciprocal_lattice: # without 2pi
  - [     0.000000000000000,     0.222278889025624,    -0.000020419399477 ] # a*
  - [     0.220062496261073,     0.000000449576623,    -0.000024637865893 ] # b*
  - [     0.000000000000000,     0.000000000000000,    -0.076187779866552 ] # c*

unit_cell:
  lattice:
  - [     4.544163667095924,     0.000000000000000,     0.000000000000000 ] # a
  - [    -0.000009190930208,     4.498852789770430,     0.000000000000000 ] # b
  - [     0.001469504788652,     0.001205755994788,    13.125464500364364 ] # c
  points:
  - symbol: Li # 1
    coordinates: [  0.042217030198038,  0.406443434392404,  0.197643809236146 ]
    mass: 6.940000
    reduced_to: 1
  - symbol: Li # 2
    coordinates: [  0.542911356762653,  0.907094144955363,  0.873378896717683 ]
    mass: 6.940000
    reduced_to: 2
  - symbol: Li # 3
    coordinates: [  0.042652293424125,  0.406742976137744,  0.564164657301997 ]
    mass: 6.940000
    reduced_to: 3
  - symbol: Li # 4
    coordinates: [  0.543202838895624,  0.407049378584992,  0.737925092505814 ]
    mass: 6.940000
    reduced_to: 4
  - symbol: Sn # 5
    coordinates: [  0.041703381678309,  0.906046998065186,  0.383241537565547 ]
    mass: 118.710000
    reduced_to: 5
  - symbol: Sn # 6
    coordinates: [  0.042875946245469,  0.907199371297028,  0.739755420510296 ]
    mass: 118.710000
    reduced_to: 6
  - symbol: Sn # 7
    coordinates: [  0.541764992961193,  0.406032616539367,  0.388230907708491 ]
    mass: 118.710000
    reduced_to: 7
  - symbol: Sn # 8
    coordinates: [  0.042852099518817,  0.907099813633412,  0.013542084039694 ]
    mass: 118.710000
    reduced_to: 8
  - symbol: Sn # 9
    coordinates: [  0.542270935490983,  0.906526163219899,  0.202889149325556 ]
    mass: 118.710000
    reduced_to: 9
  - symbol: Sn # 10
    coordinates: [  0.542860200132586,  0.407036588018718,  0.017913558905172 ]
    mass: 118.710000
    reduced_to: 10
  - symbol: Sn # 11
    coordinates: [  0.542781475275946,  0.906846508830100,  0.584933333900348 ]
    mass: 118.710000
    reduced_to: 11

supercell:
  lattice:
  - [    13.632491001287773,     0.000000000000000,     0.000000000000000 ] # a
  - [    -0.000027572790624,    13.496558369311289,     0.000000000000000 ] # b
  - [     0.001469504788652,     0.001205755994788,    13.125464500364364 ] # c
  points:
  - symbol: Li # 1
    coordinates: [  0.014072343399346,  0.135481144797468,  0.197643809236146 ]
    mass: 6.940000
    reduced_to: 1
  - symbol: Li # 2
    coordinates: [  0.347405676732679,  0.135481144797468,  0.197643809236146 ]
    mass: 6.940000
    reduced_to: 1
  - symbol: Li # 3
    coordinates: [  0.680739010066013,  0.135481144797468,  0.197643809236146 ]
    mass: 6.940000
    reduced_to: 1
  - symbol: Li # 4
    coordinates: [  0.014072343399346,  0.468814478130801,  0.197643809236146 ]
    mass: 6.940000
    reduced_to: 1
  - symbol: Li # 5
    coordinates: [  0.347405676732679,  0.468814478130801,  0.197643809236146 ]
    mass: 6.940000
    reduced_to: 1
  - symbol: Li # 6
    coordinates: [  0.680739010066013,  0.468814478130801,  0.197643809236146 ]
    mass: 6.940000
    reduced_to: 1
  - symbol: Li # 7
    coordinates: [  0.014072343399346,  0.802147811464135,  0.197643809236146 ]
    mass: 6.940000
    reduced_to: 1
  - symbol: Li # 8
    coordinates: [  0.347405676732679,  0.802147811464135,  0.197643809236146 ]
    mass: 6.940000
    reduced_to: 1
  - symbol: Li # 9
    coordinates: [  0.680739010066013,  0.802147811464135,  0.197643809236146 ]
    mass: 6.940000
    reduced_to: 1
  - symbol: Li # 10
    coordinates: [  0.180970452254218,  0.302364714985121,  0.873378896717683 ]
    mass: 6.940000
    reduced_to: 10
  - symbol: Li # 11
    coordinates: [  0.514303785587551,  0.302364714985121,  0.873378896717683 ]
    mass: 6.940000
    reduced_to: 10
  - symbol: Li # 12
    coordinates: [  0.847637118920884,  0.302364714985121,  0.873378896717683 ]
    mass: 6.940000
    reduced_to: 10
  - symbol: Li # 13
    coordinates: [  0.180970452254218,  0.635698048318454,  0.873378896717683 ]
    mass: 6.940000
    reduced_to: 10
  - symbol: Li # 14
    coordinates: [  0.514303785587551,  0.635698048318454,  0.873378896717683 ]
    mass: 6.940000
    reduced_to: 10
  - symbol: Li # 15
    coordinates: [  0.847637118920884,  0.635698048318454,  0.873378896717683 ]
    mass: 6.940000
    reduced_to: 10
  - symbol: Li # 16
    coordinates: [  0.180970452254218,  0.969031381651787,  0.873378896717683 ]
    mass: 6.940000
    reduced_to: 10
  - symbol: Li # 17
    coordinates: [  0.514303785587551,  0.969031381651787,  0.873378896717683 ]
    mass: 6.940000
    reduced_to: 10
  - symbol: Li # 18
    coordinates: [  0.847637118920884,  0.969031381651787,  0.873378896717683 ]
    mass: 6.940000
    reduced_to: 10
  - symbol: Li # 19
    coordinates: [  0.014217431141375,  0.135580992045915,  0.564164657301997 ]
    mass: 6.940000
    reduced_to: 19
  - symbol: Li # 20
    coordinates: [  0.347550764474708,  0.135580992045915,  0.564164657301997 ]
    mass: 6.940000
    reduced_to: 19
  - symbol: Li # 21
    coordinates: [  0.680884097808042,  0.135580992045915,  0.564164657301997 ]
    mass: 6.940000
    reduced_to: 19
  - symbol: Li # 22
    coordinates: [  0.014217431141375,  0.468914325379248,  0.564164657301997 ]
    mass: 6.940000
    reduced_to: 19
  - symbol: Li # 23
    coordinates: [  0.347550764474708,  0.468914325379248,  0.564164657301997 ]
    mass: 6.940000
    reduced_to: 19
  - symbol: Li # 24
    coordinates: [  0.680884097808042,  0.468914325379248,  0.564164657301997 ]
    mass: 6.940000
    reduced_to: 19
  - symbol: Li # 25
    coordinates: [  0.014217431141375,  0.802247658712581,  0.564164657301997 ]
    mass: 6.940000
    reduced_to: 19
  - symbol: Li # 26
    coordinates: [  0.347550764474708,  0.802247658712581,  0.564164657301997 ]
    mass: 6.940000
    reduced_to: 19
  - symbol: Li # 27
    coordinates: [  0.680884097808042,  0.802247658712581,  0.564164657301997 ]
    mass: 6.940000
    reduced_to: 19
  - symbol: Li # 28
    coordinates: [  0.181067612965208,  0.135683126194997,  0.737925092505814 ]
    mass: 6.940000
    reduced_to: 28
  - symbol: Li # 29
    coordinates: [  0.514400946298541,  0.135683126194997,  0.737925092505814 ]
    mass: 6.940000
    reduced_to: 28
  - symbol: Li # 30
    coordinates: [  0.847734279631875,  0.135683126194997,  0.737925092505814 ]
    mass: 6.940000
    reduced_to: 28
  - symbol: Li # 31
    coordinates: [  0.181067612965208,  0.469016459528331,  0.737925092505814 ]
    mass: 6.940000
    reduced_to: 28
  - symbol: Li # 32
    coordinates: [  0.514400946298541,  0.469016459528331,  0.737925092505814 ]
    mass: 6.940000
    reduced_to: 28
  - symbol: Li # 33
    coordinates: [  0.847734279631875,  0.469016459528331,  0.737925092505814 ]
    mass: 6.940000
    reduced_to: 28
  - symbol: Li # 34
    coordinates: [  0.181067612965208,  0.802349792861664,  0.737925092505814 ]
    mass: 6.940000
    reduced_to: 28
  - symbol: Li # 35
    coordinates: [  0.514400946298541,  0.802349792861664,  0.737925092505814 ]
    mass: 6.940000
    reduced_to: 28
  - symbol: Li # 36
    coordinates: [  0.847734279631875,  0.802349792861664,  0.737925092505814 ]
    mass: 6.940000
    reduced_to: 28
  - symbol: Sn # 37
    coordinates: [  0.013901127226103,  0.302015666021728,  0.383241537565547 ]
    mass: 118.710000
    reduced_to: 37
  - symbol: Sn # 38
    coordinates: [  0.347234460559436,  0.302015666021728,  0.383241537565547 ]
    mass: 118.710000
    reduced_to: 37
  - symbol: Sn # 39
    coordinates: [  0.680567793892769,  0.302015666021728,  0.383241537565547 ]
    mass: 118.710000
    reduced_to: 37
  - symbol: Sn # 40
    coordinates: [  0.013901127226103,  0.635348999355062,  0.383241537565547 ]
    mass: 118.710000
    reduced_to: 37
  - symbol: Sn # 41
    coordinates: [  0.347234460559436,  0.635348999355062,  0.383241537565547 ]
    mass: 118.710000
    reduced_to: 37
  - symbol: Sn # 42
    coordinates: [  0.680567793892769,  0.635348999355062,  0.383241537565547 ]
    mass: 118.710000
    reduced_to: 37
  - symbol: Sn # 43
    coordinates: [  0.013901127226103,  0.968682332688395,  0.383241537565547 ]
    mass: 118.710000
    reduced_to: 37
  - symbol: Sn # 44
    coordinates: [  0.347234460559436,  0.968682332688395,  0.383241537565547 ]
    mass: 118.710000
    reduced_to: 37
  - symbol: Sn # 45
    coordinates: [  0.680567793892769,  0.968682332688395,  0.383241537565547 ]
    mass: 118.710000
    reduced_to: 37
  - symbol: Sn # 46
    coordinates: [  0.014291982081823,  0.302399790432343,  0.739755420510296 ]
    mass: 118.710000
    reduced_to: 46
  - symbol: Sn # 47
    coordinates: [  0.347625315415157,  0.302399790432343,  0.739755420510296 ]
    mass: 118.710000
    reduced_to: 46
  - symbol: Sn # 48
    coordinates: [  0.680958648748490,  0.302399790432343,  0.739755420510296 ]
    mass: 118.710000
    reduced_to: 46
  - symbol: Sn # 49
    coordinates: [  0.014291982081823,  0.635733123765676,  0.739755420510296 ]
    mass: 118.710000
    reduced_to: 46
  - symbol: Sn # 50
    coordinates: [  0.347625315415157,  0.635733123765676,  0.739755420510296 ]
    mass: 118.710000
    reduced_to: 46
  - symbol: Sn # 51
    coordinates: [  0.680958648748490,  0.635733123765676,  0.739755420510296 ]
    mass: 118.710000
    reduced_to: 46
  - symbol: Sn # 52
    coordinates: [  0.014291982081823,  0.969066457099009,  0.739755420510296 ]
    mass: 118.710000
    reduced_to: 46
  - symbol: Sn # 53
    coordinates: [  0.347625315415157,  0.969066457099009,  0.739755420510296 ]
    mass: 118.710000
    reduced_to: 46
  - symbol: Sn # 54
    coordinates: [  0.680958648748490,  0.969066457099009,  0.739755420510296 ]
    mass: 118.710000
    reduced_to: 46
  - symbol: Sn # 55
    coordinates: [  0.180588330987064,  0.135344205513122,  0.388230907708491 ]
    mass: 118.710000
    reduced_to: 55
  - symbol: Sn # 56
    coordinates: [  0.513921664320398,  0.135344205513122,  0.388230907708491 ]
    mass: 118.710000
    reduced_to: 55
  - symbol: Sn # 57
    coordinates: [  0.847254997653731,  0.135344205513122,  0.388230907708491 ]
    mass: 118.710000
    reduced_to: 55
  - symbol: Sn # 58
    coordinates: [  0.180588330987064,  0.468677538846456,  0.388230907708491 ]
    mass: 118.710000
    reduced_to: 55
  - symbol: Sn # 59
    coordinates: [  0.513921664320398,  0.468677538846456,  0.388230907708491 ]
    mass: 118.710000
    reduced_to: 55
  - symbol: Sn # 60
    coordinates: [  0.847254997653731,  0.468677538846456,  0.388230907708491 ]
    mass: 118.710000
    reduced_to: 55
  - symbol: Sn # 61
    coordinates: [  0.180588330987064,  0.802010872179789,  0.388230907708491 ]
    mass: 118.710000
    reduced_to: 55
  - symbol: Sn # 62
    coordinates: [  0.513921664320398,  0.802010872179789,  0.388230907708491 ]
    mass: 118.710000
    reduced_to: 55
  - symbol: Sn # 63
    coordinates: [  0.847254997653731,  0.802010872179789,  0.388230907708491 ]
    mass: 118.710000
    reduced_to: 55
  - symbol: Sn # 64
    coordinates: [  0.014284033172939,  0.302366604544471,  0.013542084039694 ]
    mass: 118.710000
    reduced_to: 64
  - symbol: Sn # 65
    coordinates: [  0.347617366506272,  0.302366604544471,  0.013542084039694 ]
    mass: 118.710000
    reduced_to: 64
  - symbol: Sn # 66
    coordinates: [  0.680950699839606,  0.302366604544471,  0.013542084039694 ]
    mass: 118.710000
    reduced_to: 64
  - symbol: Sn # 67
    coordinates: [  0.014284033172939,  0.635699937877804,  0.013542084039694 ]
    mass: 118.710000
    reduced_to: 64
  - symbol: Sn # 68
    coordinates: [  0.347617366506272,  0.635699937877804,  0.013542084039694 ]
    mass: 118.710000
    reduced_to: 64
  - symbol: Sn # 69
    coordinates: [  0.680950699839606,  0.635699937877804,  0.013542084039694 ]
    mass: 118.710000
    reduced_to: 64
  - symbol: Sn # 70
    coordinates: [  0.014284033172939,  0.969033271211137,  0.013542084039694 ]
    mass: 118.710000
    reduced_to: 64
  - symbol: Sn # 71
    coordinates: [  0.347617366506272,  0.969033271211137,  0.013542084039694 ]
    mass: 118.710000
    reduced_to: 64
  - symbol: Sn # 72
    coordinates: [  0.680950699839606,  0.969033271211137,  0.013542084039694 ]
    mass: 118.710000
    reduced_to: 64
  - symbol: Sn # 73
    coordinates: [  0.180756978496994,  0.302175387739966,  0.202889149325556 ]
    mass: 118.710000
    reduced_to: 73
  - symbol: Sn # 74
    coordinates: [  0.514090311830327,  0.302175387739966,  0.202889149325556 ]
    mass: 118.710000
    reduced_to: 73
  - symbol: Sn # 75
    coordinates: [  0.847423645163661,  0.302175387739966,  0.202889149325556 ]
    mass: 118.710000
    reduced_to: 73
  - symbol: Sn # 76
    coordinates: [  0.180756978496994,  0.635508721073300,  0.202889149325556 ]
    mass: 118.710000
    reduced_to: 73
  - symbol: Sn # 77
    coordinates: [  0.514090311830327,  0.635508721073300,  0.202889149325556 ]
    mass: 118.710000
    reduced_to: 73
  - symbol: Sn # 78
    coordinates: [  0.847423645163661,  0.635508721073300,  0.202889149325556 ]
    mass: 118.710000
    reduced_to: 73
  - symbol: Sn # 79
    coordinates: [  0.180756978496994,  0.968842054406633,  0.202889149325556 ]
    mass: 118.710000
    reduced_to: 73
  - symbol: Sn # 80
    coordinates: [  0.514090311830327,  0.968842054406633,  0.202889149325556 ]
    mass: 118.710000
    reduced_to: 73
  - symbol: Sn # 81
    coordinates: [  0.847423645163661,  0.968842054406633,  0.202889149325556 ]
    mass: 118.710000
    reduced_to: 73
  - symbol: Sn # 82
    coordinates: [  0.180953400044195,  0.135678862672906,  0.017913558905172 ]
    mass: 118.710000
    reduced_to: 82
  - symbol: Sn # 83
    coordinates: [  0.514286733377529,  0.135678862672906,  0.017913558905172 ]
    mass: 118.710000
    reduced_to: 82
  - symbol: Sn # 84
    coordinates: [  0.847620066710862,  0.135678862672906,  0.017913558905172 ]
    mass: 118.710000
    reduced_to: 82
  - symbol: Sn # 85
    coordinates: [  0.180953400044195,  0.469012196006239,  0.017913558905172 ]
    mass: 118.710000
    reduced_to: 82
  - symbol: Sn # 86
    coordinates: [  0.514286733377529,  0.469012196006239,  0.017913558905172 ]
    mass: 118.710000
    reduced_to: 82
  - symbol: Sn # 87
    coordinates: [  0.847620066710862,  0.469012196006239,  0.017913558905172 ]
    mass: 118.710000
    reduced_to: 82
  - symbol: Sn # 88
    coordinates: [  0.180953400044195,  0.802345529339573,  0.017913558905172 ]
    mass: 118.710000
    reduced_to: 82
  - symbol: Sn # 89
    coordinates: [  0.514286733377529,  0.802345529339573,  0.017913558905172 ]
    mass: 118.710000
    reduced_to: 82
  - symbol: Sn # 90
    coordinates: [  0.847620066710862,  0.802345529339573,  0.017913558905172 ]
    mass: 118.710000
    reduced_to: 82
  - symbol: Sn # 91
    coordinates: [  0.180927158425315,  0.302282169610033,  0.584933333900348 ]
    mass: 118.710000
    reduced_to: 91
  - symbol: Sn # 92
    coordinates: [  0.514260491758649,  0.302282169610033,  0.584933333900348 ]
    mass: 118.710000
    reduced_to: 91
  - symbol: Sn # 93
    coordinates: [  0.847593825091982,  0.302282169610033,  0.584933333900348 ]
    mass: 118.710000
    reduced_to: 91
  - symbol: Sn # 94
    coordinates: [  0.180927158425315,  0.635615502943367,  0.584933333900348 ]
    mass: 118.710000
    reduced_to: 91
  - symbol: Sn # 95
    coordinates: [  0.514260491758649,  0.635615502943367,  0.584933333900348 ]
    mass: 118.710000
    reduced_to: 91
  - symbol: Sn # 96
    coordinates: [  0.847593825091982,  0.635615502943367,  0.584933333900348 ]
    mass: 118.710000
    reduced_to: 91
  - symbol: Sn # 97
    coordinates: [  0.180927158425315,  0.968948836276700,  0.584933333900348 ]
    mass: 118.710000
    reduced_to: 91
  - symbol: Sn # 98
    coordinates: [  0.514260491758649,  0.968948836276700,  0.584933333900348 ]
    mass: 118.710000
    reduced_to: 91
  - symbol: Sn # 99
    coordinates: [  0.847593825091982,  0.968948836276700,  0.584933333900348 ]
    mass: 118.710000
    reduced_to: 91

displacements:
- atom:    1
  displacement:
    [   0.0100000000000000,  0.0000000000000000,  0.0000000000000000 ]
  forces:
  - [  -0.0117593677714467,  0.0001645380107220, -0.0154348406940699 ]
  - [   0.0003432482481003,  0.0001662801369093, -0.0155064724385738 ]
  - [   0.0003320388495922,  0.0001629519101698, -0.0153096020221710 ]
  - [  -0.0001204743457492,  0.0001621626724955, -0.0154071357101202 ]
  - [  -0.0002435129135847, -0.0002895742654800, -0.0154504626989365 ]
  - [  -0.0002364488318563,  0.0006114131538197, -0.0153628960251808 ]
  - [  -0.0001200766710099,  0.0001658278924879, -0.0154069401323795 ]
  - [  -0.0002438109368086,  0.0006203487282619, -0.0154509507119656 ]
  - [  -0.0002357866615057, -0.0002819276414812, -0.0153638571500778 ]
  - [  -0.0007126006530598, -0.0008246983634308,  0.0003778189420700 ]
  - [  -0.0008101037237793, -0.0008577543194406,  0.0003074035048485 ]
  - [  -0.0007118593202904, -0.0008943835855462,  0.0002413541078568 ]
  - [  -0.0007802492473274, -0.0008580918074585,  0.0002528838813305 ]
  - [  -0.0007834926946089, -0.0008578984416090,  0.0003081001341343 ]
  - [  -0.0007794457487762, -0.0008581236470491,  0.0003642253577709 ]
  - [  -0.0007096980698407, -0.0008971434435807,  0.0003745369613171 ]
  - [  -0.0008104325970635, -0.0008587111951783,  0.0003084577620029 ]
  - [  -0.0007123337127268, -0.0008161175646819,  0.0002454444766045 ]
  - [  -0.0005627917125821,  0.0004195538349450,  0.0103345038369298 ]
  - [  -0.0004773549735546,  0.0004205205768812,  0.0101725114509463 ]
  - [  -0.0004730341024697,  0.0004196524387226,  0.0104854917153716 ]
  - [  -0.0003321233962197,  0.0004197079688311,  0.0103308903053403 ]
  - [  -0.0003272015601397,  0.0004285573959351,  0.0103430822491646 ]
  - [  -0.0003281803801656,  0.0004123770631850,  0.0103194359689951 ]
  - [  -0.0003320497344248,  0.0004203836433589,  0.0103305773809552 ]
  - [  -0.0003273980692029,  0.0004115691408515,  0.0103421770036221 ]
  - [  -0.0003278907388449,  0.0004284153692424,  0.0103196520358324 ]
  - [  -0.0011680754832923, -0.0002319291234016, -0.0045218095183372 ]
  - [  -0.0011725912336260, -0.0002325922250748, -0.0045893900096416 ]
  - [  -0.0011677789734676, -0.0002328380942345, -0.0046556480228901 ]
  - [  -0.0011631314409897, -0.0002220198512077, -0.0045787878334522 ]
  - [  -0.0011670407839119, -0.0002330169081688, -0.0045894309878349 ]
  - [  -0.0011625562328845, -0.0002438277006149, -0.0046002157032490 ]
  - [  -0.0011631782399490, -0.0002434998750687, -0.0045788176357746 ]
  - [  -0.0011669818777591, -0.0002312585711479, -0.0045899190008640 ]
  - [  -0.0011629619402811, -0.0002199783921242, -0.0046008639037609 ]
  - [   0.0021318979561329,  0.0009670631843619, -0.0019681826233864 ]
  - [   0.0023674194235355,  0.0009595516603440, -0.0019281879067421 ]
  - [   0.0023633686359972,  0.0009903891477734, -0.0019974596798420 ]
  - [   0.0023905329871923,  0.0009729758603498, -0.0019615963101387 ]
  - [   0.0023709367960691,  0.0009733638726175, -0.0019643008708954 ]
  - [   0.0023685826454312,  0.0009726112475619, -0.0019588172435760 ]
  - [   0.0021312008611858,  0.0009807640453801, -0.0019671134650707 ]
  - [   0.0023672326933593,  0.0009874464012682, -0.0019270330667496 ]
  - [   0.0023625181056559,  0.0009585169609636, -0.0019977092742920 ]
  - [  -0.0002063758438453, -0.0008230350795202,  0.0088533237576485 ]
  - [  -0.0001081991940737, -0.0008001683745533,  0.0087720677256584 ]
  - [  -0.0001100637018681, -0.0008456239593215,  0.0089340358972549 ]
  - [  -0.0001232385402545, -0.0008225593483075,  0.0088532194495201 ]
  - [  -0.0001524277031422, -0.0008229012019001,  0.0088552609086037 ]
  - [  -0.0001526717096567, -0.0008224278572015,  0.0088507533073425 ]
  - [  -0.0002059363177978, -0.0008218575385399,  0.0088533237576485 ]
  - [  -0.0001074466854334, -0.0008446218562312,  0.0087727308273315 ]
  - [  -0.0001075118780136, -0.0007999603985809,  0.0089333504438400 ]
  - [   0.0025997739285231,  0.0016655586659908,  0.0026664100587368 ]
  - [   0.0011050719767809,  0.0016673866193742,  0.0012243688106537 ]
  - [   0.0025719366967678,  0.0016701505519450, -0.0001744944602251 ]
  - [   0.0010492270812392,  0.0016362923197448,  0.0012893229722977 ]
  - [   0.0011497271480039,  0.0016687661409378,  0.0012239962816238 ]
  - [   0.0010499503696337,  0.0016996758058667,  0.0011574160307646 ]
  - [   0.0010498499032110,  0.0016992827877402,  0.0012885052710772 ]
  - [   0.0011493482161313,  0.0016669575124979,  0.0012239404022694 ]
  - [   0.0010505861137062,  0.0016355230472982,  0.0011568702757359 ]
  - [  -0.0010085306130350, -0.0005214279517531,  0.0045532807707787 ]
  - [  -0.0008704233914614, -0.0005008705193177,  0.0045636501163244 ]
  - [  -0.0008723884820938, -0.0005406531272456,  0.0045377798378468 ]
  - [  -0.0008118455880322, -0.0005179336294532,  0.0045522889122367 ]
  - [  -0.0007779765874147, -0.0005199739243835,  0.0045548165217042 ]
  - [  -0.0007799398154020, -0.0005195980775170,  0.0045475484803319 ]
  - [  -0.0010147948050871, -0.0005141193978488,  0.0045533943921328 ]
  - [  -0.0008728988468647, -0.0005367381963879,  0.0045632263645530 ]
  - [  -0.0008727349340916, -0.0004974614712410,  0.0045380638912320 ]
  - [   0.0022838064469397,  0.0027992422692478,  0.0027571506798267 ]
  - [  -0.0003228274290450, -0.0002572010271251,  0.0023793466389179 ]
  - [   0.0022385553456843, -0.0032431297004223,  0.0020075067877769 ]
  - [  -0.0003696567146108, -0.0002569127827883,  0.0024053193628788 ]
  - [  -0.0003785051812883, -0.0002565458416939,  0.0023796856403351 ]
  - [  -0.0003669189463835, -0.0002562301233411,  0.0023556239902973 ]
  - [   0.0022885820362717, -0.0033173449337482,  0.0027520470321178 ]
  - [  -0.0003232469316572, -0.0002564713358879,  0.0023798830807209 ]
  - [   0.0022419574670494,  0.0027336338534951,  0.0020127370953560 ]
  - [   0.0012867904733866, -0.0002430149761494,  0.0034550940617919 ]
  - [   0.0000079564078987, -0.0002467667800374,  0.0056312354281545 ]
  - [   0.0012716840719804, -0.0002509993501008,  0.0077729029580951 ]
  - [  -0.0000634063035250, -0.0003595147281885,  0.0056684538722038 ]
  - [  -0.0000725008430891, -0.0002483464777470,  0.0056307362392545 ]
  - [  -0.0000615746757830, -0.0001371018588543,  0.0055964151397347 ]
  - [  -0.0000637120101601, -0.0001318603754044,  0.0056697363033891 ]
  - [  -0.0000734146451578, -0.0002469960600138,  0.0056303804740310 ]
  - [  -0.0000613058218732, -0.0003617871552706,  0.0055944928899407 ]
  - [  -0.0001217805693159, -0.0002203958574682, -0.0113279223442078 ]
  - [  -0.0000647697597742, -0.0002903318963945, -0.0113189443945885 ]
  - [  -0.0001193770149257, -0.0003584318328649, -0.0113075822591782 ]
  - [  -0.0000833482190501, -0.0002899155952036, -0.0112846121191978 ]
  - [  -0.0000813520164229, -0.0002903614658862, -0.0113198235630989 ]
  - [  -0.0000826898613013, -0.0002902348060161, -0.0113550722599030 ]
  - [  -0.0001214654184878, -0.0003587671089917, -0.0113293901085854 ]
  - [  -0.0000647050328553, -0.0002903970889747, -0.0113190039992332 ]
  - [  -0.0001198216341436, -0.0002230673562735, -0.0113049075007439 ]
- atom:    1
  displacement:
    [  -0.0100000000000000,  0.0000000000000000,  0.0000000000000000 ]
  forces:
  - [   0.0121793374419212,  0.0001641866692808, -0.0153526999056339 ]
  - [   0.0000873971730471,  0.0001640819245949, -0.0153107419610023 ]
  - [   0.0000768937170506,  0.0001647757308092, -0.0155062265694141 ]
  - [   0.0005386605625972,  0.0001636266242713, -0.0154081135988235 ]
  - [   0.0006566159427166,  0.0006134744035080, -0.0153635330498219 ]
  - [   0.0006636176258326, -0.0002915035584010, -0.0154509283602238 ]
  - [   0.0005390780279413,  0.0001649104815442, -0.0154079124331474 ]
  - [   0.0006565283983946, -0.0002829650766216, -0.0153640508651733 ]
  - [   0.0006637852638960,  0.0006206583930179, -0.0154517516493797 ]
  - [  -0.0008507712045684, -0.0008953195065260,  0.0002432055771351 ]
  - [  -0.0007515851175413, -0.0008575475658290,  0.0003081113100052 ]
  - [  -0.0008508148603141, -0.0008255598950200,  0.0003813728690147 ]
  - [  -0.0007829825044610, -0.0008584326133132,  0.0003630816936493 ]
  - [  -0.0007779027801007, -0.0008580546709709,  0.0003087930381298 ]
  - [  -0.0007823895430192, -0.0008576851687394,  0.0002526305615902 ]
  - [  -0.0008510707993992, -0.0008157853735611,  0.0002476796507835 ]
  - [  -0.0007512199226767, -0.0008589526987635,  0.0003091916441917 ]
  - [  -0.0008547144243494, -0.0008957209065557,  0.0003767944872379 ]
  - [  -0.0001050727441907,  0.0004192511551082,  0.0103304740041494 ]
  - [  -0.0001931991428137,  0.0004200706607662,  0.0104843508452177 ]
  - [  -0.0001887473044917,  0.0004200146649964,  0.0101717021316290 ]
  - [  -0.0003344539145473,  0.0004208558239043,  0.0103317182511091 ]
  - [  -0.0003391699865460,  0.0004119207151234,  0.0103197330608964 ]
  - [  -0.0003400975838304,  0.0004285559989512,  0.0103430431336164 ]
  - [  -0.0003348709142301,  0.0004193144850433,  0.0103315468877554 ]
  - [  -0.0003391467034817,  0.0004283990710974,  0.0103193819522858 ]
  - [  -0.0003396207466722,  0.0004119724035263,  0.0103428540751338 ]
  - [  -0.0011613406240940, -0.0002323240041733, -0.0046567693352699 ]
  - [  -0.0011566379107535, -0.0002325177192688, -0.0045892000198364 ]
  - [  -0.0011610768269747, -0.0002325847744942, -0.0045215971767902 ]
  - [  -0.0011662404285744, -0.0002444684505463, -0.0046005658805370 ]
  - [  -0.0011605595936999, -0.0002332329750061, -0.0045889839529991 ]
  - [  -0.0011657674331218, -0.0002210512757301, -0.0045784376561642 ]
  - [  -0.0011664121411741, -0.0002204626798630, -0.0046007223427296 ]
  - [  -0.0011607104679570, -0.0002311617136002, -0.0045897848904133 ]
  - [  -0.0011661873431876, -0.0002433359622955, -0.0045784190297127 ]
  - [   0.0026273205876350,  0.0009696136694402, -0.0019668340682983 ]
  - [   0.0023941856343299,  0.0009882979793474, -0.0019962862133980 ]
  - [   0.0023922484833747,  0.0009582573547959, -0.0019274428486824 ]
  - [   0.0023622424341738,  0.0009731266763993, -0.0019616261124611 ]
  - [   0.0023852286394686,  0.0009730745805427, -0.0019588097929955 ]
  - [   0.0023825562093407,  0.0009728592121974, -0.0019644200801849 ]
  - [   0.0026235997211188,  0.0009786458685994, -0.0019664727151394 ]
  - [   0.0023912179749459,  0.0009601821657270, -0.0019967369735241 ]
  - [   0.0023891804739833,  0.0009889940265566, -0.0019262619316578 ]
  - [  -0.0000772218991187, -0.0008226530626416,  0.0088535845279694 ]
  - [  -0.0001763012260199, -0.0008451006724499,  0.0089320763945580 ]
  - [  -0.0001791529357433, -0.0008004282135516,  0.0087722241878510 ]
  - [  -0.0001606553560123, -0.0008225177298300,  0.0088532045483589 ]
  - [  -0.0001338291913271, -0.0008227374055423,  0.0088511779904366 ]
  - [  -0.0001340042799711, -0.0008225456112996,  0.0088554918766022 ]
  - [  -0.0000760764160077, -0.0008221005555242,  0.0088536590337753 ]
  - [  -0.0001763813197613, -0.0007999685476534,  0.0089333504438400 ]
  - [  -0.0001763049513102, -0.0008449917077087,  0.0087722837924957 ]
  - [  -0.0003741730761249,  0.0016691527562216, -0.0001859683543444 ]
  - [   0.0010996947530657,  0.0016677957028151,  0.0012242142111063 ]
  - [  -0.0003843793820124,  0.0016662720590830,  0.0026543792337179 ]
  - [   0.0011570208007470,  0.0016995253972709,  0.0011573396623135 ]
  - [   0.0010596137726679,  0.0016687707975507,  0.0012241117656231 ]
  - [   0.0011591442162171,  0.0016368883661926,  0.0012898817658424 ]
  - [   0.0011584723833948,  0.0016353991813958,  0.0011570509523153 ]
  - [   0.0010585908312351,  0.0016670487821102,  0.0012237131595612 ]
  - [   0.0011603966122493,  0.0016984664835036,  0.0012888628989458 ]
  - [  -0.0005722109344788, -0.0005229050293565,  0.0045545827597380 ]