# Tetrahedron method
       -1.1301472073        0.0000000000
       -1.0623383851        0.0000000000
       -0.9945295629        0.0000000000
       -0.9267207408        0.0000000000
       -0.8589119186        0.0000000000
       -0.7911030964        0.0000000000
       -0.7232942742        0.0000000000
       -0.6554854520        0.0000000000
       -0.5876766298        0.0000000000
       -0.5198678077        0.0000000000
       -0.4520589855        0.0000000000
       -0.3842501633        0.0000000000
       -0.3164413411        0.0000000000
       -0.2486325189        0.0000000000
       -0.1808236967        0.0000000000
       -0.1130148745        0.0000000000
       -0.0452060524        0.0000000000
        0.0226027698        0.0003345394
        0.0904115920        0.0053526420
        0.1582204142        0.0189833653
        0.2260292364        0.0377331959
        0.2938380586        0.0746051907
        0.3616468807        0.1245849305
        0.4294557029        0.1830582023
        0.4972645251        0.2640082378
        0.5650733473        0.3469730888
        0.6328821695        0.4492002461
        0.7006909917        0.5446639258
        0.7684998139        0.6642495316
        0.8363086360        0.8034622996
        0.9041174582        0.9564592468
        0.9719262804        1.1269690893
        1.0397351026        1.3412789488
        1.1075439248        1.5524164564
        1.1753527470        1.8493283383
        1.2431615691        2.2697619970
        1.3109703913        2.6419797183
        1.3787792135        2.9937454149
        1.4465880357        3.4687208469
        1.5143968579        5.1190845264
        1.5822056801        7.6826790481
        1.6500145023        6.6356983670
        1.7178233244        7.2152260429
        1.7856321466        7.2845175839
        1.8534409688        7.6278740280
        1.9212497910        8.0254725212
        1.9890586132       11.1816017592
        2.0568674354        7.3229117708
        2.1246762575        4.6113321878
        2.1924850797        8.4705223872
        2.2602939019        8.6392150563
        2.3281027241        7.9531842953
        2.3959115463        2.5151442189
        2.4637203685        1.7728977490
        2.5315291906        2.2776728010
        2.5993380128        2.7196591298
        2.6671468350        4.1456180035
        2.7349556572        2.2175405669
        2.8027644794        1.2304756720
        2.8705733016        0.0000000000
        2.9383821238        0.1746880844
        3.0061909459        0.3052927090
        3.0739997681        0.3134774375
        3.1418085903        0.3285453070
        3.2096174125        0.3507675857
        3.2774262347        0.3682517679
        3.3452350569        0.4301181542
        3.4130438790        0.4599751670
        3.4808527012        0.6107408313
        3.5486615234        0.8897106206
        3.6164703456        1.5139540735
        3.6842791678        1.2808009072
        3.7520879900        1.0781244594
        3.8198968122        1.8860602629
        3.8877056343        2.9442224928
        3.9555144565        4.4254076004
        4.0233232787        3.6260186479
        4.0911321009        1.5662918743
        4.1589409231        0.8722008887
        4.2267497453        2.1743664666
        4.2945585674        2.8938635911
        4.3623673896        4.0954475815
        4.4301762118        5.0511491523
        4.4979850340        5.7834692540
        4.5657938562        5.6349422982
        4.6336026784        6.8359348027
        4.7014115006        6.0951143125
        4.7692203227        8.3027523672
        4.8370291449        4.7950491709
        4.9048379671        5.0883935404
        4.9726467893        5.2528072242
        5.0404556115        4.7477597429
        5.1082644337        5.3272660817
        5.1760732558        5.8044344330
        5.2438820780        5.1869821881
        5.3116909002        4.7876114163
        5.3794997224        4.6663659222
        5.4473085446        3.6060557054
        5.5151173668        3.6443904514
        5.5829261890        4.0147833756
        5.6507350111        4.1585472655
        5.7185438333        5.7387707122
        5.7863526555        5.8084916238
        5.8541614777        5.6719255550
        5.9219702999        4.9413598070
        5.9897791221        4.5137848785
        6.0575879442        6.0326558901
        6.1253967664        5.0262768263
        6.1932055886        3.7833802582
        6.2610144108        4.8548706430
        6.3288232330        4.7356047783
        6.3966320552        5.9419556785
        6.4644408774        5.6439961066
        6.5322496995        4.6622556290
        6.6000585217        4.8992731022
        6.6678673439        4.0286421325
        6.7356761661        4.1456186834
        6.8034849883        3.4447330639
        6.8712938105        3.4784250070
        6.9391026326        3.2154949701
        7.0069114548        2.9974120768
        7.0747202770        3.1046334226
        7.1425290992        2.9302014970
        7.2103379214        3.7336479219
        7.2781467436        3.5094100765
        7.3459555658        2.8227522559
        7.4137643879        2.2608195257
        7.4815732101        4.8556537233
        7.5493820323        5.0044517316
        7.6171908545        5.8502225963
        7.6849996767        5.2595775202
        7.7528084989        5.3268123688
        7.8206173210        5.4747579936
        7.8884261432        6.9473250504
        7.9562349654        7.2775242525
        8.0240437876        7.7447222797
        8.0918526098        5.1009312116
        8.1596614320        4.8538070801
        8.2274702542        6.6686720336
        8.2952790763        6.6284845047
        8.3630878985        6.5729068368
        8.4308967207        6.0060917417
        8.4987055429        7.4253922906
        8.5665143651        7.4863393800
        8.6343231873        7.2994116307
        8.7021320094        6.5593056512
        8.7699408316        5.2963917466
        8.8377496538        5.5436610394
        8.9055584760        7.1307160915
        8.9733672982        5.4405721098
        9.0411761204        5.6100305158
        9.1089849426        7.8467083616
        9.1767937647        7.7527970660
        9.2446025869        7.8054646368
        9.3124114091        7.3530257693
        9.3802202313        7.5013521752
        9.4480290535        7.3645161950
        9.5158378757        8.0143629858
        9.5836466978        9.5867299269
        9.6514555200        9.0326635419
        9.7192643422        8.8511147275
        9.7870731644        9.8363861083
        9.8548819866        9.8514077821
        9.9226908088        8.8955290589
        9.9904996310        7.8683347589
       10.0583084531        7.0856105419
       10.1261172753        6.7344539608
       10.1939260975        6.3594109705
       10.2617349197        5.7016593571
       10.3295437419        5.4995936472
       10.3973525641        6.4592318112
       10.4651613862        5.6978537203
       10.5329702084        4.7978238922
       10.6007790306        3.8279418356
       10.6685878528        2.9336010484
       10.7363966750        2.3704378263
       10.8042054972        2.1518785105
       10.8720143194        1.9323045841
       10.9398231415        1.7533452393
       11.0076319637        1.5103060707
       11.0754407859        1.3182474572
       11.1432496081        0.8652413424
       11.2110584303        0.4721962303
       11.2788672525        0.1434452277
       11.3466760746        0.0000000000
       11.4144848968        0.0000000000
       11.4822937190        0.0000000000
       11.5501025412        0.0000000000
       11.6179113634        0.0000000000
       11.6857201856        0.0000000000
       11.7535290078        0.0000000000
       11.8213378299        0.0000000000
       11.8891466521        0.0000000000
       11.9569554743        0.0000000000
       12.0247642965        0.0000000000
       12.0925731187        0.0000000000
       12.1603819409        0.0000000000
       12.2281907630        0.0000000000
       12.2959995852        0.0000000000
       12.3638084074        0.0000000000
       12.4316172296        0.0000000000
