3
Lattice="3.8394671131507394 0.000981494472459732 2.2143412011750128 1.2811906581336172 3.619447050747249 2.216320715295799 0.0019398039086955421 0.0011571284581205139 4.433594774046435" Properties=species:S:1:pos:R:3:forces:R:3 structure_index=0 total_energy=-8.931564331054688 stress="-0.06637373566627502 -0.0019092559814453125 -0.011972724460065365 -0.00190931826364249 -0.07636069506406784 -0.004751456901431084 -0.011972547508776188 -0.004751273430883884 -0.07381103932857513" pbc="T T T"
Li       2.63502467       2.75091980       6.41342557      -0.00177083      -0.00243498      -0.00083387
Ga       1.35484889       1.84463887       4.19823338      -0.00102864       0.00151473      -0.00216033
Sn       2.63116995       0.03484843       1.97874761       0.00279946       0.00092028       0.00299419
5
Lattice="4.74283476968475 -0.0007475093024988792 -1.4487611092279005 -0.29037600198649116 3.129363798220982 -0.9516715686558025 -0.3188099289034476 0.5114999113799296 7.4334827298308825" Properties=species:S:1:pos:R:3:forces:R:3 structure_index=1 total_energy=-15.758442878723145 stress="0.06690505892038345 0.0007216719095595181 0.0002281567722093314 0.0007216936210170388 0.058908939361572266 0.002787824720144272 0.00022809318033978343 0.0027878819964826107 0.06677740812301636" pbc="T T T"
Li       1.37551300       1.94653321      -0.53843178      -0.00557899      -0.00709591      -0.02139059
Ga       2.21242040       1.13416548       2.19733414       0.00834822       0.01048497       0.03100418
Ga       0.29559833       1.63112911       4.41616253      -0.00181164      -0.00175266      -0.00533240
Sn       3.10199120       0.38205029       5.11742740       0.00356218       0.00317265       0.00881512
Sn       4.18613945       2.42465135       0.17112705      -0.00451976      -0.00480905      -0.01309630
10
Lattice="3.067286371326053 -0.0008259701789600212 0.0003087411148895745 0.0022981400384854238 8.48645560770498 -0.022779277761289605 -0.0008389237051065999 0.013367726383021628 8.652493418650701" Properties=species:S:1:pos:R:3:forces:R:3 structure_index=2 total_energy=-32.50774002075195 stress="0.0037465316709131002 1.8447967704560142e-06 3.0981093459558906e-06 1.8232034335596836e-06 0.0014988003531470895 -0.00011791330325650051 3.114811534032924e-06 -0.00011808289855252951 0.0004986779531463981" pbc="T T T"
Li       2.76867438       4.34511040       6.61301523       0.00002112      -0.00041367       0.04896821
Li       2.76741941       0.10261966       8.32861019      -0.00002640      -0.00006475      -0.00029772
Li       2.76919607       4.33311814       1.36705154       0.00000939       0.00077943      -0.04884816
Ga       1.23528704       5.92688287       8.31505222       0.00004401       0.03152062      -0.00058412
Ga       1.23446283       2.76542197       8.31721928      -0.00001824      -0.03174131       0.00035203
Sn       1.23621345       7.01308571       2.35913749      -0.00001398       0.00533218       0.01322395
Sn       1.23476772       1.65852453       2.36496455      -0.00002119      -0.00448073       0.01433111
Sn       1.23442353       1.66671653       5.62010221       0.00001285      -0.00530304      -0.01177523
Sn       1.23587397       7.02120446       5.61539407       0.00000937       0.00471701      -0.01545314
Sn       1.23531986       4.34016292       3.98986304      -0.00001694      -0.00034574       0.00008302
14
Lattice="6.4239161511306415 0.20311977459920807 -3.0693075804800523 -2.457837817223131 5.932826877712166 -3.080696977115442 -0.09954057297122489 -0.16791006828588956 7.182747734772211" Properties=species:S:1:pos:R:3:forces:R:3 structure_index=3 total_energy=-38.844932556152344 stress="-0.02644089050590992 0.001716648112051189 -0.00119643600191921 0.0017164808232337236 -0.026361048221588135 -0.003428025869652629 -0.0011963853612542152 -0.003428129246458411 -0.026091095060110092" pbc="T T T"
Li      -1.30737710       5.09345848       2.48657004       0.01073270      -0.00108848      -0.00651771
Li       1.83902468       3.82599248       2.40322615      -0.00099236       0.00037693       0.00044354
Li       4.52677879       1.86365553       3.02306368      -0.00340255       0.01024538      -0.00334322
Li       1.18708122       2.14390843      -0.54936960      -0.01290573       0.01183319      -0.00548877
Li       5.50482996       0.45467433       0.54563331       0.01597349      -0.00433249      -0.00190260
Ga      -0.59817042       2.59482924       1.49647978       0.00388898      -0.00963015       0.01083671
Ga       1.80971500       1.41647000       3.88755671       0.00146033      -0.00291049      -0.00635893
Ga      -0.22276548       3.00737736       4.16021907       0.00084846       0.00544897       0.00239252
Ga       3.59643597       0.85015163      -1.44242557       0.00909138      -0.00059812      -0.00414881
Ga       6.06397770       0.28469383      -2.33697850       0.01405248      -0.00302386      -0.00721001
Ga       2.26585842       4.86006243      -0.21987057      -0.00546411       0.01447400      -0.00381183
Ga       3.71290934       2.70633128       0.47753762      -0.00496522       0.00756894      -0.00240066
Ga       3.35751953       3.66173535      -2.30087262      -0.01388941      -0.00513832       0.00431533
Sn      -0.56822866       4.98524597      -0.83113445      -0.01442852      -0.02322548       0.02319445
12
Lattice="4.03666626642903 -0.0078003531859243205 0.9716154838724342 1.7009910583330197 5.955330400556405 1.8432172195027603 0.025283765758374734 0.14490047264433215 8.759584142460193" Properties=species:S:1:pos:R:3:forces:R:3 structure_index=4 total_energy=-33.44798278808594 stress="0.018854837864637375 -0.0060864705592393875 -0.00665014423429966 -0.006086344830691814 0.01179809495806694 0.00044891980360262096 -0.006650066934525967 0.00044892262667417526 0.021570703014731407" pbc="T T T"
Li       2.88750935       2.63691001       9.51027549      -0.00565550      -0.00161888       0.02731705
Li       3.43064945       1.17214703       7.24682833       0.00179577      -0.00941516      -0.00539103
Li       3.21769708       5.11790664       8.15808497       0.00207207      -0.00838985      -0.00737932
Li       2.24752771       4.06752405       3.31772296       0.00377855       0.00228952      -0.01729631
Li       3.77461124       3.50653417       5.83988489       0.00737314       0.01709834      -0.03452834
Li       4.37853043       2.05988675       3.32249769      -0.00713078      -0.00727695       0.02855881
Li       2.45983217       0.13921874       2.41160971       0.00291221       0.01348978      -0.01746656
Ga       0.93659398       0.76641899       8.73314397       0.00100386      -0.01608738      -0.00130243
Ga       1.31818861       2.98137545       7.16491704       0.00039714       0.01586587       0.00019642
Ga       1.88939720       1.69216049       4.78894493      -0.00407856      -0.02216173       0.01440860
Sn       1.67791355       5.60306557       5.69209368      -0.00151336       0.01316226       0.00693319
Sn       4.75327590       4.65967400      10.64450243      -0.00095454       0.00304416       0.00594995
11
Lattice="4.316458176147374 -0.0002211095902448405 -0.6549825358037569 -0.10010252870202309 4.314392339054238 -0.6611464875842935 0.03249612273073561 0.05990769301360158 14.726187427360365" Properties=species:S:1:pos:R:3:forces:R:3 structure_index=5 total_energy=-36.90179443359375 stress="-0.01576344296336174 8.570821228204295e-05 0.00046443482278846204 8.564733434468508e-05 -0.0157953929156065 0.00043453442049212754 0.0004643434949684888 0.00043454745900817215 -0.013121932744979858" pbc="T T T"
Li       1.70616146       4.09265290      -0.01939146      -0.00072537      -0.00047392      -0.00415615
Li       2.82822521       0.84052818       7.34959536      -0.00228670      -0.00230206      -0.01524521
Ga       2.09591104       2.29008788       2.54949622      -0.00231554      -0.00296955      -0.01549847
Ga       4.30458349       0.13048563       2.55282225      -0.00291568      -0.00254462      -0.01539750
Sn       2.42578961       0.42246560       4.72358920      -0.00243713      -0.00321999      -0.01737972
Sn       3.95227101       1.97489044       0.23262819      -0.00207916      -0.00195030      -0.01133883
Sn       1.43269837       1.62766799      12.70292840       0.00102834       0.00118481       0.00618012
Sn       3.07289145       3.30154291       8.96350172       0.00172692       0.00203387       0.00996219
Sn       3.54080423       3.78476572      12.04465352       0.00116779       0.00125536       0.00666603
Sn       0.96478065       1.14442262       9.62179738       0.00165270       0.00196233       0.00928123
Sn       0.53464152       2.91003481       6.78506079       0.00718381       0.00702407       0.04692635
6
Lattice="4.5140521687759865 0.0008048401339732406 0.0009466124079189392 -2.2579283487732043 3.909638802079094 -0.0009661837574887945 -0.001622151201396579 9.05644208016613e-05 7.410349183075426" Properties=species:S:1:pos:R:3:forces:R:3 structure_index=6 total_energy=-18.475675582885742 stress="0.011242244392633438 0.0005626913625746965 -0.00033638282911852 0.0005626634228974581 0.01143268309533596 0.0004141531535424292 -0.0003364093427080661 0.0004141816752962768 0.01081136241555214" pbc="T T T"
Li       0.81519933       3.12571826       5.02658536      -0.00084494       0.00049600      -0.04964585
Li       0.81570191       3.12805878       0.62882579       0.00032284      -0.00163286       0.04830964
Ga       0.81535370       0.51940293       6.27777026       0.00196777      -0.00025891       0.01235147
Ga       3.07267592       1.82323452       6.78553407      -0.00292792       0.00123223      -0.01128501
Sn       3.07184817       1.82356419       2.22536167      -0.00003924       0.00141096       0.01011886
Sn       0.81464179       0.51983555       3.42767216       0.00152147      -0.00124741      -0.00984914
8
Lattice="5.3494142583302935 -0.08932350696820983 -1.9956046944787165 -2.606778436321761 4.672384635786818 -1.9961229878979185 0.05429972401222519 0.09013719937882875 5.7094258818982295" Properties=species:S:1:pos:R:3:forces:R:3 structure_index=7 total_energy=-23.46446990966797 stress="-0.018672244623303413 0.02237325720489025 -0.017488673329353333 0.02237313985824585 0.002554326318204403 -0.03255680203437805 -0.017488760873675346 -0.03255700692534447 -0.004937752149999142" pbc="T T T"
Li       0.81296828       0.08796970       1.52794173       0.00842488       0.02942720       0.02022576
Li       2.31401598       2.59916797      -0.13580944      -0.01232331      -0.01257123      -0.02614876
Li       3.76099976       0.09061283       3.54945133      -0.02534615       0.02239984      -0.00015897
Li      -0.57603203       2.69143662       3.54756844       0.02744903      -0.02167978       0.00364802
Ga       1.03201971       0.45552086       4.36505803      -0.01897409      -0.02814693       0.02579178
Ga       2.15263123       2.32649535       2.73481741       0.01612535       0.02582614      -0.02782725
Sn      -0.42522158       2.53741313       0.69467148       0.00501907      -0.01190522      -0.00308337
Sn       3.55206130       0.15786613       0.69383053      -0.00037481      -0.00335005       0.00755276
12
Lattice="4.102287869710575 -0.003742263457635296 0.9890081039807456 1.7011325597051778 6.122120121409066 1.9752903822912193 -0.015475530429973561 0.057500559079216536 9.075964485450841" Properties=species:S:1:pos:R:3:forces:R:3 structure_index=8 total_energy=-35.063819885253906 stress="-0.026727722957730293 0.005811804905533791 0.002903181128203869 0.005811842158436775 0.023067966103553772 -0.0066208867356181145 0.0029031920712441206 -0.006620973348617554 -0.023322829976677895" pbc="T T T"
Li       1.33434306       0.61866312       0.68436746      -0.00102209      -0.00313892       0.00307566
Li       5.23946364       4.65988082       2.51009826       0.00046958      -0.00511459      -0.00378463
Li       0.77846345       1.99202405       2.99486268      -0.00052575      -0.00478560       0.00328030
Li       1.72281244       3.21508132       8.09323321      -0.00152540       0.00543520       0.00616050
Li       2.67771108       4.21269347       4.12954657       0.00138575      -0.00167185      -0.00381872
Li       2.08502371       5.69827724       6.59759037      -0.00005702       0.00290000       0.00194697
Ga       2.39254298       1.58399572       5.30120814      -0.00460011      -0.00038880       0.02135029
Ga       3.84469304       1.19429987       8.28652661       0.00295881       0.00098916      -0.01532100
Ga       4.62044163       6.12702348       5.08393504       0.00157182      -0.00569360      -0.00646467
Sn       3.63928584       5.50928348       9.15890319       0.00061524      -0.00111197      -0.00324633
Sn       3.27532024       2.60196431       1.64419282       0.00010926      -0.00879197      -0.00166368
Sn       4.28277413       3.47020314       6.47228872       0.00061992       0.02137292      -0.00151470
20
Lattice="5.034408894915288 -0.011803281628588572 0.004837769726061255 -2.503007741419145 6.887510400167276 0.5761134490882049 0.001709506513952095 -0.16019334803372623 12.525114209636566" Properties=species:S:1:pos:R:3:forces:R:3 structure_index=9 total_energy=-62.05216598510742 stress="-0.005378778092563152 -0.000150795400259085 5.099695408716798e-05 -0.00015070266090333462 -0.005700856447219849 -0.0005408934666775167 5.101876377011649e-05 -0.0005409099394455552 -0.004018133040517569" pbc="T T T"
Li       2.50859982       0.29565255      10.43109662      -0.00264254      -0.00511466       0.01524787
Li      -0.00898268       0.91116858       2.62028959       0.00009166      -0.01223994       0.04931317
Li       2.51297643       5.25352205       1.41664732       0.00232400      -0.02086708      -0.03998975
Li       2.50706319       0.43992588       7.27233055      -0.00158774      -0.01999762      -0.00317177
Ga       2.51611808       5.16742668       4.45880547       0.00137054       0.00546943       0.00388130
Ga       2.51295743       2.64355285      12.01567681      -0.00353130       0.01165070      -0.02181152
Ga       2.51280934       2.56970100       2.29578093       0.00240536       0.01698505       0.01206466
Ga      -0.00131426       4.65803855       9.18290020      -0.00113328       0.01707305      -0.00304050
Ga       2.50945728       3.16719598       6.36231684       0.00047596      -0.02051048      -0.02626758
Ga       2.50484431       0.01572886       1.08406457      -0.00320116       0.01221772      -0.02028327
Ga      -0.00338996       4.64204504       6.39008162      -0.00158842      -0.00503546       0.03359593
Ga       2.51616085       5.71701759       7.60064610       0.00161411       0.00709169      -0.02472999
Ga       2.51264748       2.93528838       9.07234103      -0.00028158       0.00643878       0.00517608
Sn       2.50533189       0.14692315       4.10662623      -0.00074317      -0.02198982       0.01416335
Sn      -0.00143659       3.96672177       3.10155545      -0.00333000       0.02579492       0.01345403
Sn      -0.00944215       1.04974050      12.25990686       0.00405759      -0.02709976      -0.01036387
Sn      -0.00780660       1.57373834       8.82895574       0.00146802      -0.00205293       0.04454090
Sn       2.51559882       5.41908825      10.69020387       0.00603528       0.01404416      -0.01072918
Sn      -0.00217848       4.23236530      12.45935376      -0.00279530       0.03113911      -0.03750395
Sn      -0.01004539       1.67164883       5.59843017       0.00099197      -0.01299685       0.00645411
4
Lattice="4.441797952286052 0.0021950721010771087 -7.397249691466481e-05 -0.001496340660268362 4.0528716896150145 -0.0015300261065677176 7.853576097355779e-05 0.005761042165826795 4.0522884710762135" Properties=species:S:1:pos:R:3:forces:R:3 structure_index=10 total_energy=-11.800262451171875 stress="-0.0191876869648695 0.0017379842465743423 3.630029095802456e-05 0.0017380848294124007 -0.06758826971054077 0.03998285159468651 3.6328157875686884e-05 0.039982929825782776 -0.07073933631181717" pbc="T T T"
Li       1.88797732       4.00454664       0.14478296       0.00099803       0.00038581       0.00002264
Li       1.88856861       1.98129997       2.17183954       0.00136530      -0.00038951      -0.00055664
Ga       4.10925583       4.00878329       2.17079587      -0.00050767      -0.00062887      -0.00042254
Sn       4.11015090       1.97927122       0.14525530      -0.00185566       0.00063257       0.00095653
4
Lattice="4.353620244524066 -0.00022190370702203938 -0.0011075472444605713 0.0001603117005962517 4.277233942256031 -0.0010104260733568373 0.0014958873096983607 0.0011001934792774861 4.277575566412742" Properties=species:S:1:pos:R:3:forces:R:3 structure_index=11 total_energy=-12.158659934997559 stress="-0.054177600890398026 -0.00028942717472091317 0.0020456314086914062 -0.0002896119258366525 -0.03624697029590607 0.00026854529278352857 0.002045654458925128 0.00026859765057452023 -0.033761557191610336" pbc="T T T"
Li       4.20607157       2.54159938       1.40319151      -0.00048590       0.00003408       0.00110702
Ga       2.02946752       2.54214767       3.54246113      -0.00007677       0.00027134       0.00019330
Ga       2.02849592       0.40314865       1.40453952       0.00028331      -0.00015533       0.00086568
Sn       4.20595221       0.40351757       3.54342781       0.00027938      -0.00015007      -0.00216600
4
Lattice="4.270903914160555 0.0006501642602421292 -0.002304925642945958 -0.0015466026372721452 4.2712060315868925 -0.0012284712848675977 0.0016301608433336044 0.0008672190708584622 4.361599670052305" Properties=species:S:1:pos:R:3:forces:R:3 structure_index=12 total_energy=-12.158613204956055 stress="-0.083695188164711 -0.0027275285683572292 -0.0035367461387068033 -0.0027275143656879663 -0.08153001219034195 -0.001887170597910881 -0.0035366916563361883 -0.0018871761858463287 -0.03268320485949516" pbc="T T T"
Li       2.02136542       2.25858876       2.64330262       0.00016642       0.00029443       0.00002437
Ga       4.15610246       2.25849652       0.46116126       0.00017444       0.00033086      -0.00004319
Ga       2.02172907       0.12277768       0.46315411      -0.00065633      -0.00030760      -0.00064106
Sn       4.15771590       0.12342409       2.64245196       0.00031547      -0.00031768       0.00065988
6
Lattice="3.1623535822747355 0.0007872204578567846 -0.0022036356206570004 -0.0006334748211004377 3.1630242818761 -0.001863229128408922 0.013913979461532177 0.017301366288971005 12.443726861182101" Properties=species:S:1:pos:R:3:forces:R:3 structure_index=13 total_energy=-18.204917907714844 stress="-0.05140228196978569 0.000924229621887207 0.0019675367511808872 0.0009243531967513263 -0.04220496863126755 0.0021795439533889294 0.0019682699348777533 0.0021795271895825863 0.020268086344003677" pbc="T T T"
Li       3.05608672       1.86073627       3.01281569       0.00031588       0.00051624      -0.00047167
Li       3.05865620       1.86333139       6.09214451      -0.00007971      -0.00020269      -0.03332775
Ga       1.47632904       0.27990048       4.47967402       0.00031543       0.00038320      -0.01318685
Ga       1.48024409       0.28411708       8.03447658       0.00006926      -0.00005831       0.03313227
Sn       1.47401331       0.27779940       0.92603810       0.00013846       0.00061732       0.01888372
Sn       3.06410156       1.86903650      10.25322782      -0.00075927      -0.00125577      -0.00502972
16
Lattice="4.513549889431367 -0.0084786240585041 -0.0007957806920510777 -2.2491325676521776 4.907154056072116 0.020317715191542653 0.005993301355227429 0.040563826113792924 13.157159986254394" Properties=species:S:1:pos:R:3:forces:R:3 structure_index=14 total_energy=-42.60345458984375 stress="-0.0030018289107829332 -0.008611982688307762 0.000832926481962204 -0.008612093515694141 0.007758012507110834 0.009031690657138824 0.0008330625714734197 0.009031204506754875 -0.009170439094305038" pbc="T T T"
Li      -1.20400625       4.56987412       8.76961563       0.00166378      -0.01735310      -0.00196199
Li      -1.20661570       4.48691967       0.03809981       0.00046343      -0.00181266       0.01245511
Li       3.30474305       1.19970551       4.35949307       0.00040978       0.00866894       0.00529968
Li       1.05492199       4.48819629      10.66897721      -0.00072505      -0.00634307      -0.02412034
Li       1.05489732       4.11832665       2.35123745      -0.00218031       0.02643237      -0.00121586
Li      -1.20397956       4.34939584       4.51028311       0.00075955       0.00270806      -0.00345373
Li       3.30766345       2.61094144       6.81358637      -0.00000051      -0.01423150       0.00278018
Li       1.05315598       4.41341483       6.82681679       0.00036937      -0.00859576       0.01048699
Li      -1.20436519       2.67474521      10.83002207       0.00008510       0.00153374       0.01525369
Li       3.30165805       1.09722820       0.14973555       0.00028882       0.00106484      -0.00199520
Ga       1.04967689       1.03121629      10.94332540      -0.00010456      -0.01410292      -0.00959063
Ga       1.05036157       2.84239161       4.69786513       0.00052199       0.01472678       0.01609558
Ga       1.05176214       2.51604966       8.78435807      -0.00099878      -0.01701337      -0.00663799
Ga       1.04826573       1.08995085       6.56010127      -0.00046547      -0.01766329      -0.00304804
Sn       1.05325643       2.90722807      12.96774786       0.00036303       0.03364345      -0.03069609
Sn       1.04907264       1.18208400       2.34509446      -0.00045016       0.00833740       0.02034868
4
Lattice="3.711675160987182 0.0015992643142713134 -1.6234385912554363 -0.7109081120996477 3.643270679169887 -1.6226706124096733 0.10413806641079648 0.12617957579846031 5.290900422703203" Properties=species:S:1:pos:R:3:forces:R:3 structure_index=15 total_energy=-11.796342849731445 stress="-0.07115355134010315 0.028478337451815605 0.042595505714416504 0.028478240594267845 -0.058279309421777725 0.05366523563861847 0.04259546846151352 0.05366542190313339 0.0034078883472830057" pbc="T T T"
Li       1.68283715       1.60343600       1.46719272       0.00084505      -0.00071019      -0.00033544
Li      -0.52807213       3.42399548       1.46749305      -0.00043157       0.00028951      -0.00019393
Ga       2.73727744       0.62979145      -1.17831888      -0.00150524       0.00009893      -0.00001660
Sn       0.52540139       2.45038074      -1.17842934       0.00109176       0.00032175       0.00054597
12
Lattice="4.330365188976757 -0.016641733660235306 0.015148929523911555 0.024191531798161654 6.140581406508016 -0.21574030396559946 -0.03387379488600088 -0.12710411975763514 9.452358746322458" Properties=species:S:1:pos:R:3:forces:R:3 structure_index=16 total_energy=-37.26762390136719 stress="-0.02872035838663578 3.055527122342028e-05 -9.682065865490586e-05 3.069153899559751e-05 -0.027503881603479385 0.003767787478864193 -9.677848720457405e-05 0.0037678207736462355 -0.027634549885988235" pbc="T T T"
Li       2.18052380       4.81172469       3.93870951      -0.00011230       0.00202839      -0.00319247
Li       2.16734910       4.64512647       7.40101227       0.00063749      -0.03232174       0.03258428
Li       2.17904482       1.65229222       1.10676793      -0.00078095       0.00533852      -0.01607473
Ga      -0.00774814       3.08469740       8.90516761      -0.00157367      -0.01512983      -0.00424615
Ga       2.16749040       1.58498390       4.16331412      -0.00010042       0.02924586      -0.01152598
Ga       0.00112960       0.12774346       2.74211058       0.00077267      -0.00569534       0.00360663
Ga      -0.00854143       0.12868827       5.67914301       0.00014042       0.01134796      -0.01686418
Ga       2.19013185       4.73841713       1.01991549       0.00125704      -0.00985431      -0.00659733
Sn       2.15638596       1.54332311       7.32111199       0.00037945      -0.01798958       0.02014166
Sn       0.01412622       3.16677771       2.49510512       0.00018487       0.02893169       0.00988685
Sn       0.00376427       3.27795439       5.68082544      -0.00112277       0.00486228      -0.00504072
Sn      -0.02191007      -0.04683469       9.17892397       0.00031819      -0.00076390      -0.00267787
13
Lattice="5.822745578005642 0.0437465128000643 -0.7631474760215895 -2.936296918128453 4.98744588896995 -0.05999371168408932 -0.01153807679994096 0.017965215000606733 10.15319436976548" Properties=species:S:1:pos:R:3:forces:R:3 structure_index=17 total_energy=-42.243629455566406 stress="-0.01923253946006298 -0.0013845479115843773 -0.0019702930003404617 -0.0013843323104083538 -0.017526911571621895 0.00027370284078642726 -0.0019701477140188217 0.00027383584529161453 -0.0209428071975708" pbc="T T T"
Li       2.85203462       1.12600460       5.08211549       0.01040219       0.00714756      -0.01675686
Li       4.07344101       2.37234933      -0.12036752       0.01844122      -0.00187277       0.00873952
Li       1.40253107       3.62416440       5.15376934       0.00334293       0.00102885       0.00009093
Li       1.17524868       3.97867459       0.06310080       0.00925985       0.00212824      -0.00426537
Ga       0.01733021       1.12774362       5.89992216       0.01831173       0.00608156       0.01241293
Ga      -1.54679232       3.59257705       5.25766289       0.00162173       0.00814200      -0.00738890
Sn       1.11833470       0.68468593       0.33066126      -0.02829728      -0.01379772      -0.00138306
Sn       4.54703329       0.46919608       7.63103457      -0.01034320      -0.00537742      -0.00498202
Sn      -0.36820258       4.16307124       2.68271837      -0.01335819       0.01216859      -0.01145728
Sn       1.90326794       2.23865810       7.82045032       0.01800451      -0.01116919       0.01180292
Sn      -1.08856018       3.71383954       8.06069470       0.01903929      -0.02180075      -0.00975912
Sn      -0.51736764       0.86225668       3.09379730      -0.03019271       0.01588089       0.03358232
Sn       2.44445503       2.60049396       2.47073779      -0.01623205       0.00144016      -0.01063603
18
Lattice="6.148546418725459 0.025029135742432665 -1.2206850511578702 -2.03664605760562 7.749656744136649 -2.1281891205881944 -0.048371468832188166 -0.008371703090651 8.55625538694889" Properties=species:S:1:pos:R:3:forces:R:3 structure_index=18 total_energy=-58.426605224609375 stress="0.005732769146561623 0.0007081635412760079 -0.00011775497841881588 0.0007082279771566391 0.003648462239652872 -0.0021848012693226337 -0.00011769054253818467 -0.0021847733296453953 0.006260355468839407" pbc="T T T"
Li      -0.09472612       7.03788077       5.35855677      -0.00487158      -0.01858243      -0.01247626
Li       3.33422588       4.50095056       6.30443492       0.00502025      -0.01035160       0.00223970
Li       0.94599710       7.12971102       2.17709851       0.02185982       0.02004529       0.03243032
Li       2.30696350       4.44123649       0.86870951      -0.02093476       0.00007142      -0.03867599
Li      -0.34764918       1.87663027       3.29585660       0.00452901       0.00688666       0.01888088
Ga       3.67994427       1.91567160      -0.42722756       0.02254380       0.01104533      -0.01208018
Ga       4.38600906       4.51734464       3.39005908      -0.01593166       0.00271999      -0.01196787
Ga       4.72420876       1.93844076       5.02255716      -0.00685985      -0.00379531      -0.00455995
Ga       0.69538783       1.87597928       0.20367121      -0.01580037       0.01542559       0.00218612
Sn       1.74014953       1.83190133       5.76532330       0.01436364       0.01279414       0.02969605
Sn       4.05483282       7.04829420       1.70219898      -0.00845161      -0.00714324       0.00105819
Sn       2.77120657       2.00755415       2.60253168      -0.00099962       0.00444323       0.01288509
Sn       2.93705208       7.21527487       4.67092464       0.00850659      -0.00170812      -0.01105478
Sn      -0.81275774       4.29004140       1.45917512       0.00400185       0.00381500      -0.01519623
Sn       1.27297375       4.55726936       3.86876728       0.01426881      -0.00821560      -0.00658891
Sn      -1.05273347       7.09786918      -0.22418504      -0.02799306      -0.01934692       0.01731522
Sn       2.01917303       7.06675580      -0.78752920       0.01761500      -0.00371538       0.00407719
Sn       0.23193827       4.37678305       6.95664342      -0.01086626      -0.00438805      -0.00816861
6
Lattice="4.464905203008787 -0.026683177002682548 0.6304050068441783 2.008103439401267 3.9949378426475883 0.6157789341048776 -0.7551723292731053 -0.4343962278346893 7.271343470168944" Properties=species:S:1:pos:R:3:forces:R:3 structure_index=19 total_energy=-18.394515991210938 stress="0.009489008225500584 -0.000201801594812423 -0.0018955464474856853 -0.00020171160576865077 0.010036701336503029 -0.0010938475606963038 -0.0018955892883241177 -0.0010938475606963038 0.003808101173490286" pbc="T T T"
Li       4.94836868       3.54317309       1.34851971      -0.01461340      -0.00977078      -0.01655681
Li       4.17526230       3.07578963       4.70220003       0.03287768       0.02123470       0.00867080
Ga       0.19455404       0.63224230       2.42235292      -0.01270180      -0.00692232      -0.00529407
Ga       4.24821733       0.36498474       5.65246357       0.01113544       0.00579286       0.02004591
Sn       1.87975534       1.68167576       6.25919649       0.00145015      -0.00010575       0.01351945
Sn       2.52774257       2.06086997       2.01899772      -0.01814807      -0.01022871      -0.02038527
4