phonopy:
  version: "2.37.1"
  frequency_unit_conversion_factor: 15.633302
  symmetry_tolerance: 1.00000e-05

space_group:
  type: "P2/m"
  number: 10
  Hall_symbol: "-P 2y"

primitive_matrix:
- [ -0.000000000000000, -1.000000000000000,  0.000000000000000 ]
- [  1.000000000000000,  0.000000000000000, -1.000000000000000 ]
- [  0.000000000000000,  0.000000000000000,  1.000000000000000 ]

supercell_matrix:
- [   3,   0,   0 ]
- [   0,   3,   0 ]
- [   0,   0,   1 ]

primitive_cell:
  lattice:
  - [    -0.000000063589612,     4.900645620916865,     0.000000000000000 ] # a
  - [    -3.437488613367027,     0.000000000000000,     0.000000000000000 ] # b
  - [    -0.000000186132459,    -2.436412747117068,    12.242339173857925 ] # c
  points:
  - symbol: Li # 1
    coordinates: [  0.500000011460854,  0.500000005858136,  0.999999991839112 ]
    mass: 6.940000
  - symbol: Li # 2
    coordinates: [  0.129745828401687,  0.500000007560353,  0.199190307324749 ]
    mass: 6.940000
  - symbol: Li # 3
    coordinates: [  0.732143839945104,  0.500000005685183,  0.399654985760127 ]
    mass: 6.940000
  - symbol: Li # 4
    coordinates: [  0.870254183180433,  0.500000002087617,  0.800809687638330 ]
    mass: 6.940000
  - symbol: Li # 5
    coordinates: [  0.267856143159829,  0.499999993694519,  0.600345009186974 ]
    mass: 6.940000
  - symbol: Sn # 6
    coordinates: [  0.000000036539940,  0.000000007259353,  0.000000012168909 ]
    mass: 118.710000
  - symbol: Sn # 7
    coordinates: [  0.373412980173043,  0.000000017010045,  0.800008206742082 ]
    mass: 118.710000
  - symbol: Sn # 8
    coordinates: [  0.771970543152382,  0.999999981662066,  0.600204480598724 ]
    mass: 118.710000
  - symbol: Sn # 9
    coordinates: [  0.626587003881875,  0.999999985701333,  0.199991816450447 ]
    mass: 118.710000
  - symbol: Sn # 10
    coordinates: [  0.228029426779739,  0.999999993390172,  0.399795500752729 ]
    mass: 118.710000
  reciprocal_lattice: # without 2pi
  - [    -0.000000000000000,     0.204054746528052,     0.040610015658798 ] # a*
  - [    -0.290910054541387,    -0.000000003774780,    -0.000000005174234 ] # b*
  - [    -0.000000000000000,     0.000000000000000,     0.081683735910159 ] # c*

unit_cell:
  lattice:
  - [     3.437488613367027,     0.000000000000000,     0.000000000000000 ] # a
  - [    -0.000000063589612,     4.900645620916865,     0.000000000000000 ] # b
  - [    -0.000000249722071,     2.464232873799797,    12.242339173857925 ] # c
  points:
  - symbol: Li # 1
    coordinates: [  0.499999994141864,  0.500000019621741,  0.999999991839112 ]
    mass: 6.940000
    reduced_to: 1
  - symbol: Li # 2
    coordinates: [  0.499999992439647,  0.930555521076938,  0.199190307324749 ]
    mass: 6.940000
    reduced_to: 2
  - symbol: Li # 3
    coordinates: [  0.499999994314817,  0.332488854184976,  0.399654985760127 ]
    mass: 6.940000
    reduced_to: 3
  - symbol: Li # 4
    coordinates: [  0.499999997912383,  0.069444495542103,  0.800809687638330 ]
    mass: 6.940000
    reduced_to: 4
  - symbol: Li # 5
    coordinates: [  0.500000006305481,  0.667511133972855,  0.600345009186974 ]
    mass: 6.940000
    reduced_to: 5
  - symbol: Sn # 6
    coordinates: [  0.999999992740647,  0.000000024371031,  0.000000012168909 ]
    mass: 118.710000
    reduced_to: 6
  - symbol: Sn # 7
    coordinates: [  0.999999982989955,  0.573404773430961,  0.800008206742082 ]
    mass: 118.710000
    reduced_to: 7
  - symbol: Sn # 8
    coordinates: [  0.000000018337934,  0.171766062553658,  0.600204480598724 ]
    mass: 118.710000
    reduced_to: 8
  - symbol: Sn # 9
    coordinates: [  0.000000014298667,  0.426595187431428,  0.199991816450447 ]
    mass: 118.710000
    reduced_to: 9
  - symbol: Sn # 10
    coordinates: [  0.000000006609828,  0.828233926027010,  0.399795500752729 ]
    mass: 118.710000
    reduced_to: 10

supercell:
  lattice:
  - [    10.312465840101083,     0.000000000000000,     0.000000000000000 ] # a
  - [    -0.000000190768836,    14.701936862750596,     0.000000000000000 ] # b
  - [    -0.000000249722071,     2.464232873799797,    12.242339173857925 ] # c
  points:
  - symbol: Li # 1
    coordinates: [  0.166666664713955,  0.166666673207247,  0.999999991839112 ]
    mass: 6.940000
    reduced_to: 1
  - symbol: Li # 2
    coordinates: [  0.499999998047288,  0.166666673207247,  0.999999991839112 ]
    mass: 6.940000
    reduced_to: 1
  - symbol: Li # 3
    coordinates: [  0.833333331380621,  0.166666673207247,  0.999999991839112 ]
    mass: 6.940000
    reduced_to: 1
  - symbol: Li # 4
    coordinates: [  0.166666664713955,  0.500000006540581,  0.999999991839112 ]
    mass: 6.940000
    reduced_to: 1
  - symbol: Li # 5
    coordinates: [  0.499999998047288,  0.500000006540581,  0.999999991839112 ]
    mass: 6.940000
    reduced_to: 1
  - symbol: Li # 6
    coordinates: [  0.833333331380621,  0.500000006540581,  0.999999991839112 ]
    mass: 6.940000
    reduced_to: 1
  - symbol: Li # 7
    coordinates: [  0.166666664713955,  0.833333339873914,  0.999999991839112 ]
    mass: 6.940000
    reduced_to: 1
  - symbol: Li # 8
    coordinates: [  0.499999998047288,  0.833333339873914,  0.999999991839112 ]
    mass: 6.940000
    reduced_to: 1
  - symbol: Li # 9
    coordinates: [  0.833333331380621,  0.833333339873914,  0.999999991839112 ]
    mass: 6.940000
    reduced_to: 1
  - symbol: Li # 10
    coordinates: [  0.166666664146549,  0.310185173692313,  0.199190307324749 ]
    mass: 6.940000
    reduced_to: 10
  - symbol: Li # 11
    coordinates: [  0.499999997479882,  0.310185173692313,  0.199190307324749 ]
    mass: 6.940000
    reduced_to: 10
  - symbol: Li # 12
    coordinates: [  0.833333330813216,  0.310185173692313,  0.199190307324749 ]
    mass: 6.940000
    reduced_to: 10
  - symbol: Li # 13
    coordinates: [  0.166666664146549,  0.643518507025646,  0.199190307324749 ]
    mass: 6.940000
    reduced_to: 10
  - symbol: Li # 14
    coordinates: [  0.499999997479882,  0.643518507025646,  0.199190307324749 ]
    mass: 6.940000
    reduced_to: 10
  - symbol: Li # 15
    coordinates: [  0.833333330813216,  0.643518507025646,  0.199190307324749 ]
    mass: 6.940000
    reduced_to: 10
  - symbol: Li # 16
    coordinates: [  0.166666664146549,  0.976851840358979,  0.199190307324749 ]
    mass: 6.940000
    reduced_to: 10
  - symbol: Li # 17
    coordinates: [  0.499999997479882,  0.976851840358979,  0.199190307324749 ]
    mass: 6.940000
    reduced_to: 10
  - symbol: Li # 18
    coordinates: [  0.833333330813216,  0.976851840358979,  0.199190307324749 ]
    mass: 6.940000
    reduced_to: 10
  - symbol: Li # 19
    coordinates: [  0.166666664771606,  0.110829618061659,  0.399654985760127 ]
    mass: 6.940000
    reduced_to: 19
  - symbol: Li # 20
    coordinates: [  0.499999998104939,  0.110829618061659,  0.399654985760127 ]
    mass: 6.940000
    reduced_to: 19
  - symbol: Li # 21
    coordinates: [  0.833333331438272,  0.110829618061659,  0.399654985760127 ]
    mass: 6.940000
    reduced_to: 19
  - symbol: Li # 22
    coordinates: [  0.166666664771606,  0.444162951394992,  0.399654985760127 ]
    mass: 6.940000
    reduced_to: 19
  - symbol: Li # 23
    coordinates: [  0.499999998104939,  0.444162951394992,  0.399654985760127 ]
    mass: 6.940000
    reduced_to: 19
  - symbol: Li # 24
    coordinates: [  0.833333331438272,  0.444162951394992,  0.399654985760127 ]
    mass: 6.940000
    reduced_to: 19
  - symbol: Li # 25
    coordinates: [  0.166666664771606,  0.777496284728326,  0.399654985760127 ]
    mass: 6.940000
    reduced_to: 19
  - symbol: Li # 26
    coordinates: [  0.499999998104939,  0.777496284728326,  0.399654985760127 ]
    mass: 6.940000
    reduced_to: 19
  - symbol: Li # 27
    coordinates: [  0.833333331438272,  0.777496284728326,  0.399654985760127 ]
    mass: 6.940000
    reduced_to: 19
  - symbol: Li # 28
    coordinates: [  0.166666665970794,  0.023148165180701,  0.800809687638330 ]
    mass: 6.940000
    reduced_to: 28
  - symbol: Li # 29
    coordinates: [  0.499999999304128,  0.023148165180701,  0.800809687638330 ]
    mass: 6.940000
    reduced_to: 28
  - symbol: Li # 30
    coordinates: [  0.833333332637461,  0.023148165180701,  0.800809687638330 ]
    mass: 6.940000
    reduced_to: 28
  - symbol: Li # 31
    coordinates: [  0.166666665970794,  0.356481498514034,  0.800809687638330 ]
    mass: 6.940000
    reduced_to: 28
  - symbol: Li # 32
    coordinates: [  0.499999999304128,  0.356481498514034,  0.800809687638330 ]
    mass: 6.940000
    reduced_to: 28
  - symbol: Li # 33
    coordinates: [  0.833333332637461,  0.356481498514034,  0.800809687638330 ]
    mass: 6.940000
    reduced_to: 28
  - symbol: Li # 34
    coordinates: [  0.166666665970794,  0.689814831847368,  0.800809687638330 ]
    mass: 6.940000
    reduced_to: 28
  - symbol: Li # 35
    coordinates: [  0.499999999304128,  0.689814831847368,  0.800809687638330 ]
    mass: 6.940000
    reduced_to: 28
  - symbol: Li # 36
    coordinates: [  0.833333332637461,  0.689814831847368,  0.800809687638330 ]
    mass: 6.940000
    reduced_to: 28
  - symbol: Li # 37
    coordinates: [  0.166666668768494,  0.222503711324285,  0.600345009186974 ]
    mass: 6.940000
    reduced_to: 37
  - symbol: Li # 38
    coordinates: [  0.500000002101827,  0.222503711324285,  0.600345009186974 ]
    mass: 6.940000
    reduced_to: 37
  - symbol: Li # 39
    coordinates: [  0.833333335435160,  0.222503711324285,  0.600345009186974 ]
    mass: 6.940000
    reduced_to: 37
  - symbol: Li # 40
    coordinates: [  0.166666668768494,  0.555837044657618,  0.600345009186974 ]
    mass: 6.940000
    reduced_to: 37
  - symbol: Li # 41
    coordinates: [  0.500000002101827,  0.555837044657618,  0.600345009186974 ]
    mass: 6.940000
    reduced_to: 37
  - symbol: Li # 42
    coordinates: [  0.833333335435160,  0.555837044657618,  0.600345009186974 ]
    mass: 6.940000
    reduced_to: 37
  - symbol: Li # 43
    coordinates: [  0.166666668768494,  0.889170377990952,  0.600345009186974 ]
    mass: 6.940000
    reduced_to: 37
  - symbol: Li # 44
    coordinates: [  0.500000002101827,  0.889170377990952,  0.600345009186974 ]
    mass: 6.940000
    reduced_to: 37
  - symbol: Li # 45
    coordinates: [  0.833333335435160,  0.889170377990952,  0.600345009186974 ]
    mass: 6.940000
    reduced_to: 37
  - symbol: Sn # 46
    coordinates: [  0.333333330913549,  0.000000008123677,  0.000000012168909 ]
    mass: 118.710000
    reduced_to: 46
  - symbol: Sn # 47
    coordinates: [  0.666666664246882,  0.000000008123677,  0.000000012168909 ]
    mass: 118.710000
    reduced_to: 46
  - symbol: Sn # 48
    coordinates: [  0.999999997580216,  0.000000008123677,  0.000000012168909 ]
    mass: 118.710000
    reduced_to: 46
  - symbol: Sn # 49
    coordinates: [  0.333333330913549,  0.333333341457010,  0.000000012168909 ]
    mass: 118.710000
    reduced_to: 46
  - symbol: Sn # 50
    coordinates: [  0.666666664246882,  0.333333341457010,  0.000000012168909 ]
    mass: 118.710000
    reduced_to: 46
  - symbol: Sn # 51
    coordinates: [  0.999999997580216,  0.333333341457010,  0.000000012168909 ]
    mass: 118.710000
    reduced_to: 46
  - symbol: Sn # 52
    coordinates: [  0.333333330913549,  0.666666674790344,  0.000000012168909 ]
    mass: 118.710000
    reduced_to: 46
  - symbol: Sn # 53
    coordinates: [  0.666666664246882,  0.666666674790344,  0.000000012168909 ]
    mass: 118.710000
    reduced_to: 46
  - symbol: Sn # 54
    coordinates: [  0.999999997580216,  0.666666674790344,  0.000000012168909 ]
    mass: 118.710000
    reduced_to: 46
  - symbol: Sn # 55
    coordinates: [  0.333333327663318,  0.191134924476987,  0.800008206742082 ]
    mass: 118.710000
    reduced_to: 55
  - symbol: Sn # 56
    coordinates: [  0.666666660996652,  0.191134924476987,  0.800008206742082 ]
    mass: 118.710000
    reduced_to: 55
  - symbol: Sn # 57
    coordinates: [  0.999999994329985,  0.191134924476987,  0.800008206742082 ]
    mass: 118.710000
    reduced_to: 55
  - symbol: Sn # 58
    coordinates: [  0.333333327663318,  0.524468257810320,  0.800008206742082 ]
    mass: 118.710000
    reduced_to: 55
  - symbol: Sn # 59
    coordinates: [  0.666666660996652,  0.524468257810320,  0.800008206742082 ]
    mass: 118.710000
    reduced_to: 55
  - symbol: Sn # 60
    coordinates: [  0.999999994329985,  0.524468257810320,  0.800008206742082 ]
    mass: 118.710000
    reduced_to: 55
  - symbol: Sn # 61
    coordinates: [  0.333333327663318,  0.857801591143654,  0.800008206742082 ]
    mass: 118.710000
    reduced_to: 55
  - symbol: Sn # 62
    coordinates: [  0.666666660996652,  0.857801591143654,  0.800008206742082 ]
    mass: 118.710000
    reduced_to: 55
  - symbol: Sn # 63
    coordinates: [  0.999999994329985,  0.857801591143654,  0.800008206742082 ]
    mass: 118.710000
    reduced_to: 55
  - symbol: Sn # 64
    coordinates: [  0.000000006112645,  0.057255354184553,  0.600204480598724 ]
    mass: 118.710000
    reduced_to: 64
  - symbol: Sn # 65
    coordinates: [  0.333333339445978,  0.057255354184553,  0.600204480598724 ]
    mass: 118.710000
    reduced_to: 64
  - symbol: Sn # 66
    coordinates: [  0.666666672779311,  0.057255354184553,  0.600204480598724 ]
    mass: 118.710000
    reduced_to: 64
  - symbol: Sn # 67
    coordinates: [  0.000000006112645,  0.390588687517886,  0.600204480598724 ]
    mass: 118.710000
    reduced_to: 64
  - symbol: Sn # 68
    coordinates: [  0.333333339445978,  0.390588687517886,  0.600204480598724 ]
    mass: 118.710000
    reduced_to: 64
  - symbol: Sn # 69
    coordinates: [  0.666666672779311,  0.390588687517886,  0.600204480598724 ]
    mass: 118.710000
    reduced_to: 64
  - symbol: Sn # 70
    coordinates: [  0.000000006112645,  0.723922020851219,  0.600204480598724 ]
    mass: 118.710000
    reduced_to: 64
  - symbol: Sn # 71
    coordinates: [  0.333333339445978,  0.723922020851219,  0.600204480598724 ]
    mass: 118.710000
    reduced_to: 64
  - symbol: Sn # 72
    coordinates: [  0.666666672779311,  0.723922020851219,  0.600204480598724 ]
    mass: 118.710000
    reduced_to: 64
  - symbol: Sn # 73
    coordinates: [  0.000000004766222,  0.142198395810476,  0.199991816450447 ]
    mass: 118.710000
    reduced_to: 73
  - symbol: Sn # 74
    coordinates: [  0.333333338099556,  0.142198395810476,  0.199991816450447 ]
    mass: 118.710000
    reduced_to: 73
  - symbol: Sn # 75
    coordinates: [  0.666666671432889,  0.142198395810476,  0.199991816450447 ]
    mass: 118.710000
    reduced_to: 73
  - symbol: Sn # 76
    coordinates: [  0.000000004766222,  0.475531729143809,  0.199991816450447 ]
    mass: 118.710000
    reduced_to: 73
  - symbol: Sn # 77
    coordinates: [  0.333333338099556,  0.475531729143809,  0.199991816450447 ]
    mass: 118.710000
    reduced_to: 73
  - symbol: Sn # 78
    coordinates: [  0.666666671432889,  0.475531729143809,  0.199991816450447 ]
    mass: 118.710000
    reduced_to: 73
  - symbol: Sn # 79
    coordinates: [  0.000000004766222,  0.808865062477143,  0.199991816450447 ]
    mass: 118.710000
    reduced_to: 73
  - symbol: Sn # 80
    coordinates: [  0.333333338099556,  0.808865062477143,  0.199991816450447 ]
    mass: 118.710000
    reduced_to: 73
  - symbol: Sn # 81
    coordinates: [  0.666666671432889,  0.808865062477143,  0.199991816450447 ]
    mass: 118.710000
    reduced_to: 73
  - symbol: Sn # 82
    coordinates: [  0.000000002203276,  0.276077975342337,  0.399795500752729 ]
    mass: 118.710000
    reduced_to: 82
  - symbol: Sn # 83
    coordinates: [  0.333333335536609,  0.276077975342337,  0.399795500752729 ]
    mass: 118.710000
    reduced_to: 82
  - symbol: Sn # 84
    coordinates: [  0.666666668869943,  0.276077975342337,  0.399795500752729 ]
    mass: 118.710000
    reduced_to: 82
  - symbol: Sn # 85
    coordinates: [  0.000000002203276,  0.609411308675670,  0.399795500752729 ]
    mass: 118.710000
    reduced_to: 82
  - symbol: Sn # 86
    coordinates: [  0.333333335536609,  0.609411308675670,  0.399795500752729 ]
    mass: 118.710000
    reduced_to: 82
  - symbol: Sn # 87
    coordinates: [  0.666666668869943,  0.609411308675670,  0.399795500752729 ]
    mass: 118.710000
    reduced_to: 82
  - symbol: Sn # 88
    coordinates: [  0.000000002203276,  0.942744642009003,  0.399795500752729 ]
    mass: 118.710000
    reduced_to: 82
  - symbol: Sn # 89
    coordinates: [  0.333333335536609,  0.942744642009003,  0.399795500752729 ]
    mass: 118.710000
    reduced_to: 82
  - symbol: Sn # 90
    coordinates: [  0.666666668869943,  0.942744642009003,  0.399795500752729 ]
    mass: 118.710000
    reduced_to: 82

displacements:
- atom:    1
  displacement:
    [   0.0057425100766061,  0.0081867929019902,  0.0000000000000000 ]
  forces:
  - [  -0.0120345838367939, -0.0174762327224016, -0.0004730295622721 ]
  - [   0.0005132759106345, -0.0003794141812250,  0.0000194983149413 ]
  - [   0.0005153391393833, -0.0003799113910645,  0.0000200137146749 ]
  - [   0.0002359000791330,  0.0003350200131536, -0.0000236579617194 ]
  - [  -0.0009903569007292, -0.0014207414351404, -0.0000076647847891 ]
  - [   0.0003144752699882, -0.0005015141796321, -0.0000140588963404 ]
  - [   0.0002318663464393,  0.0003390329657122, -0.0000220073125092 ]
  - [   0.0003192511503585, -0.0005035086069256, -0.0000132489949465 ]
  - [  -0.0009870480280370, -0.0014144458109513, -0.0000073339324445 ]
  - [  -0.0002636443823576, -0.0298706442117691,  0.0153727224096656 ]
  - [   0.0002194391563535, -0.0295892581343651,  0.0148934600874782 ]
  - [  -0.0000279815867543, -0.0297812595963478,  0.0147343901917338 ]
  - [   0.0000094299612101, -0.0299691408872604,  0.0149474991485476 ]
  - [  -0.0000033928081393, -0.0299495272338390,  0.0149463340640068 ]
  - [  -0.0000062804319896, -0.0299505814909935,  0.0149506861343980 ]
  - [  -0.0002709285181481, -0.0296731367707253,  0.0142849907279015 ]
  - [  -0.0000467296631541, -0.0297870952636003,  0.0150983212515712 ]
  - [   0.0002577054547146, -0.0296012908220291,  0.0148801011964679 ]
  - [   0.0002389831352048, -0.0482383817434311,  0.0059276013635099 ]
  - [  -0.0003795159864239, -0.0482241399586201,  0.0054341838695109 ]
  - [  -0.0002983571612276, -0.0482422560453415,  0.0063472064211965 ]
  - [   0.0000084809726104, -0.0482437983155251,  0.0059390398673713 ]
  - [  -0.0000105196158984, -0.0482291616499424,  0.0059437928721309 ]
  - [   0.0000023321481422, -0.0482188984751701,  0.0059510832652450 ]
  - [   0.0000059432350099, -0.0482633598148823,  0.0060114059597254 ]
  - [   0.0000012279583643, -0.0482201501727104,  0.0059704305604100 ]
  - [  -0.0000066600041464, -0.0482250228524208,  0.0059771356172860 ]
  - [  -0.0002629675436765,  0.0299919787794352, -0.0145194362848997 ]
  - [  -0.0000294203782687,  0.0300841946154833, -0.0151539780199528 ]
  - [   0.0002194328699261,  0.0302726421505213, -0.0149918999522924 ]
  - [  -0.0002695258008316,  0.0301918685436249, -0.0156027907505631 ]
  - [   0.0002537684340496,  0.0302624087780714, -0.0150060411542654 ]
  - [  -0.0000453044049209,  0.0300770998001099, -0.0147905405610800 ]
  - [   0.0000103244819911,  0.0298925079405308, -0.0149431684985757 ]
  - [  -0.0000056209328250,  0.0299110449850559, -0.0149395186454058 ]
  - [  -0.0000039209699025,  0.0299121756106615, -0.0149438818916678 ]
  - [   0.0002386464329902,  0.0481951683759689, -0.0059879431501031 ]
  - [  -0.0002950046327896,  0.0481907948851585, -0.0055743288248777 ]
  - [  -0.0003822966828011,  0.0482103489339352, -0.0064865956082940 ]
  - [   0.0000060869497247,  0.0481720007956028, -0.0059045180678368 ]
  - [  -0.0000074553058766,  0.0482118427753448, -0.0059402231127024 ]
  - [   0.0000014235265553,  0.0482162237167358, -0.0059463391080499 ]
  - [   0.0000083042250481,  0.0481928437948227, -0.0059783477336168 ]
  - [   0.0000018858609110,  0.0482170209288597, -0.0059674624353647 ]
  - [  -0.0000105429207906,  0.0482065714895725, -0.0059735272079706 ]
  - [  -0.0023393589071929,  0.0025757052935660, -0.0000681990641169 ]
  - [  -0.0001066294935299, -0.0001100108565879, -0.0000060905149439 ]
  - [   0.0056390170939267,  0.0079984646290541, -0.0001303287572227 ]
  - [   0.0058251195587218,  0.0082654496654868, -0.0001295496476814 ]
  - [  -0.0001100584486267, -0.0001056789042195, -0.0000054389965953 ]
  - [  -0.0023552486672997,  0.0025695757940412, -0.0000671493471600 ]
  - [  -0.0000227677537623,  0.0000509325254825,  0.0000256987987086 ]
  - [   0.0000452083259006,  0.0001400859764544,  0.0000021826708689 ]
  - [  -0.0000233016562561,  0.0000504574527440,  0.0000254841870628 ]
  - [   0.0013435184955597,  0.0033204546198249,  0.0036040591076016 ]
  - [  -0.0001037003894453,  0.0037925736978650,  0.0058960770256817 ]
  - [   0.0020292492117733,  0.0034520113840699,  0.0091338166967034 ]
  - [  -0.0000555112637812,  0.0036622593179345,  0.0059203421697021 ]
  - [   0.0000322683845297,  0.0037614824250340,  0.0058259526267648 ]
  - [   0.0000116465362225,  0.0037214793264866,  0.0059341313317418 ]
  - [   0.0000722174445400,  0.0037311939522624,  0.0059058968909085 ]
  - [   0.0000049843897614,  0.0037688724696636,  0.0059775677509606 ]
  - [  -0.0000809510893305,  0.0037735970690846,  0.0059981355443597 ]
  - [  -0.0000394325397792,  0.0195408128201962,  0.0015092815738171 ]
  - [  -0.0000073640840128,  0.0194590650498867,  0.0015470525249839 ]
  - [   0.0000324501597788,  0.0195394363254309,  0.0015999302268028 ]
  - [   0.0000021888840820,  0.0194772053509951,  0.0016403570771217 ]
  - [  -0.0000240792978730,  0.0195306967943907,  0.0016403733752668 ]
  - [   0.0000147024520629,  0.0195289198309183,  0.0016258843243122 ]
  - [   0.0000040003933464,  0.0195305012166500,  0.0015997998416424 ]
  - [  -0.0000032096795621,  0.0195468273013830,  0.0015912055969238 ]
  - [  -0.0000016371523088,  0.0195309761911631,  0.0016092974692583 ]
  - [   0.0013548405840993, -0.0042071053758264, -0.0082062641158700 ]
  - [   0.0020279667805880, -0.0041031101718545, -0.0026627471670508 ]
  - [  -0.0001033142616507, -0.0037520108744502, -0.0059090601280332 ]
  - [   0.0000718652081559, -0.0038162842392921, -0.0059018298052251 ]
  - [  -0.0000807902542874, -0.0037732440978289, -0.0058093611150980 ]
  - [   0.0000038032667362, -0.0037783421576023, -0.0058300867676735 ]
  - [  -0.0000560924963793, -0.0038807354867458, -0.0058910138905048 ]
  - [   0.0000123805948533, -0.0038240570574999, -0.0058739092200994 ]
  - [   0.0000297755104839, -0.0037857713177800, -0.0059806834906340 ]
  - [  -0.0000065166659624, -0.0196073856204748, -0.0016693437937647 ]
  - [  -0.0000401249126298, -0.0195272769778967, -0.0017075040377676 ]
  - [   0.0000325088622048, -0.0195287130773067, -0.0016160488594323 ]
  - [  -0.0000018848618311, -0.0195162333548069, -0.0016258491668850 ]
  - [   0.0000046868808568, -0.0195318758487701, -0.0016165294218808 ]
  - [  -0.0000012618256733, -0.0195320751518011, -0.0016077517066151 ]
  - [  -0.0000238101929426, -0.0195367801934481, -0.0015742883551866 ]
  - [   0.0000028075883165, -0.0195929575711489, -0.0015731421299279 ]
  - [   0.0000144062796608, -0.0195393003523350, -0.0015886714681983 ]
- atom:    1
  displacement:
    [  -0.0000000001999714,  0.0019732985650906,  0.0098033715003060 ]
  forces:
  - [  -0.0000003290260793, -0.0047785229980946, -0.0209168829023838 ]
  - [  -0.0000038814218897, -0.0000678834476275, -0.0004426463565324 ]
  - [   0.0000037811696529, -0.0000678040087223, -0.0004420038894750 ]
  - [   0.0000003761997505,  0.0000531192381459, -0.0000179908674909 ]
  - [  -0.0001498314522905, -0.0002415522467345, -0.0000207666307688 ]
  - [   0.0001501195365563, -0.0002423236146569, -0.0000209620920941 ]
  - [   0.0000003046661732,  0.0000535805884283, -0.0000168525657500 ]
  - [   0.0001545075647300, -0.0002452428452671, -0.0000204686075449 ]
  - [  -0.0001540647353977, -0.0002458475064486, -0.0000207977718674 ]
  - [   0.0000004079192877, -0.0294220764189959,  0.0150759676471353 ]
  - [   0.0001868894323707, -0.0300071388483047,  0.0152220278978348 ]
  - [  -0.0001871883869171, -0.0300069078803062,  0.0152215966954827 ]
  - [  -0.0000001182779670, -0.0299397818744183,  0.0149438176304102 ]
  - [  -0.0000045363012759, -0.0299318730831146,  0.0149455554783344 ]
  - [   0.0000045229098760, -0.0299319140613079,  0.0149449054151773 ]
  - [   0.0000002434826456, -0.0306524299085140,  0.0151647888123989 ]
  - [   0.0001359379821224, -0.0298034958541393,  0.0152264889329672 ]
  - [  -0.0001360971364193, -0.0298035535961390,  0.0152258146554232 ]
  - [  -0.0000001152220648, -0.0482178553938866,  0.0063448753207922 ]
  - [  -0.0007892006542534, -0.0482118912041187,  0.0047935843467712 ]
  - [   0.0007894851732999, -0.0482114180922508,  0.0047940993681550 ]
  - [  -0.0000002583255991, -0.0482448078691959,  0.0059122252278030 ]
  - [  -0.0000107304549601, -0.0482342317700386,  0.0059415167197585 ]
  - [   0.0000109501415864, -0.0482349321246147,  0.0059415781870484 ]
  - [   0.0000002053566277, -0.0481634698808193,  0.0059113781899214 ]
  - [  -0.0000018890327738, -0.0482007712125778,  0.0059562870301306 ]
  - [   0.0000020622974262, -0.0482004731893539,  0.0059555899351835 ]
  - [   0.0000003542518243,  0.0304361954331398, -0.0148188993334770 ]
  - [  -0.0001881210482679,  0.0298612155020237, -0.0146687244996428 ]
  - [   0.0001868378603831,  0.0298604983836412, -0.0146682653576136 ]
  - [   0.0000007477865438,  0.0292086955159903, -0.0147246597334743 ]
  - [  -0.0001409007672919,  0.0300551485270262, -0.0146629046648741 ]
  - [   0.0001395557919750,  0.0300571694970131, -0.0146622750908136 ]
  - [   0.0000008201277524,  0.0299220215529203, -0.0149470437318087 ]
  - [   0.0000050920980357,  0.0299301538616419, -0.0149458386003971 ]
  - [  -0.0000053032126743,  0.0299300942569971, -0.0149447582662106 ]
  - [  -0.0000000834115781,  0.0482171103358269, -0.0055737001821399 ]
  - [   0.0007901004864834,  0.0482221096754074, -0.0071219410747290 ]
  - [  -0.0007898343610577,  0.0482223704457283, -0.0071229487657547 ]
  - [   0.0000003818131518,  0.0482713617384434, -0.0060045616701245 ]
  - [   0.0000012505267932,  0.0482357963919640, -0.0059614665806293 ]
  - [  -0.0000016730336938,  0.0482351332902908, -0.0059603368863463 ]
  - [  -0.0000001261068974,  0.0481924936175346, -0.0060050366446376 ]
  - [   0.0000102530939330,  0.0482015796005726, -0.0059774275869131 ]
  - [  -0.0000106680090539,  0.0482019558548927, -0.0059763863682747 ]
  - [  -0.0011688183294609,  0.0015234979800880, -0.0005339850904420 ]
  - [  -0.0000003754830686, -0.0000212622835534,  0.0000234503677348 ]
  - [   0.0011689460370690,  0.0015236368635669, -0.0005339178023860 ]
  - [   0.0011497354134917,  0.0015004770830274, -0.0005389365251176 ]
  - [   0.0000006228328857, -0.0000179544113053,  0.0000238828215515 ]
  - [  -0.0011501125991344,  0.0015002207364887, -0.0005385636468418 ]
  - [   0.0000002701393669,  0.0000215937361645,  0.0000012861419236 ]
  - [  -0.0000003677596396,  0.0000367248248949, -0.0000043195614126 ]
  - [  -0.0000008473808180,  0.0000220183610509,  0.0000009851646610 ]
  - [  -0.0048184329643846,  0.0038360608741641,  0.0123336315155029 ]
  - [  -0.0000007031093219,  0.0037791039794683,  0.0057791476137936 ]
  - [   0.0048199007287621,  0.0038350047543645,  0.0123343132436275 ]
  - [  -0.0000014241668396,  0.0037915455177426,  0.0058923503383994 ]
  - [   0.0000014295894744,  0.0037920847535133,  0.0058829626068473 ]
  - [   0.0000006189928854,  0.0037915436550975,  0.0058930618688464 ]
  - [   0.0000450184197689,  0.0036666085943580,  0.0058751879259944 ]
  - [   0.0000014426648249,  0.0037529328837991,  0.0059282109141350 ]
  - [  -0.0000450300940429,  0.0036662472411990,  0.0058754701167345 ]
  - [  -0.0000364717670891,  0.0195415131747723,  0.0015314912889153 ]
  - [   0.0000363221624866,  0.0195416361093521,  0.0015326729044318 ]
  - [  -0.0000003866152838,  0.0196132902055979,  0.0016736993566155 ]
  - [  -0.0000574005862291,  0.0195109006017447,  0.0015640859492123 ]
  - [   0.0000569866751903,  0.0195114910602570,  0.0015651741996408 ]
  - [  -0.0000000943155101,  0.0194388832896948,  0.0015903059393167 ]
  - [   0.0000031458541798,  0.0195403471589088,  0.0016087428666651 ]
  - [  -0.0000031057934393,  0.0195402242243290,  0.0016095475293696 ]
  - [  -0.0000010455432857,  0.0195282492786646,  0.0016127633862197 ]
  - [  -0.0049521643668413, -0.0037052650004625,  0.0006729536689818 ]
  - [   0.0049522537738085, -0.0037050666287541,  0.0006727301515639 ]
  - [  -0.0000001030712156, -0.0037657367065549, -0.0060296426527202 ]
  - [   0.0000449826402473, -0.0038811955600977, -0.0059323273599148 ]
  - [  -0.0000454882392660, -0.0038814684376121, -0.0059326132759452 ]
  - [   0.0000000867585186, -0.0037947241216898, -0.0058798817917705 ]
  - [  -0.0000011041820471, -0.0037550218403339, -0.0059137749485672 ]
  - [  -0.0000000075087883, -0.0037549920380116, -0.0059139183722436 ]
  - [   0.0000000443251338, -0.0037548281252384, -0.0059238094836473 ]
  - [   0.0000364311563317, -0.0195267330855131, -0.0016860505566001 ]
  - [  -0.0000370070774807, -0.0195272434502840, -0.0016865716315806 ]
  - [  -0.0000000005820766, -0.0194534659385681, -0.0015415488742292 ]
  - [  -0.0000020073307496, -0.0195225104689598, -0.0016081901267171 ]
  - [   0.0000040953746065, -0.0195217039436102, -0.0016073680017143 ]
  - [  -0.0000006466871127, -0.0195348467677832, -0.0016039500478655 ]
  - [   0.0000562862260267, -0.0195553936064243, -0.0016507534310222 ]
  - [  -0.0000552991405129, -0.0195558629930019, -0.0016506141982973 ]
  - [  -0.0000003901077434, -0.0196301899850368, -0.0016229439061135 ]
- atom:   10
  displacement:
    [   0.0057425100766061,  0.0081867929019902,  0.0000000000000000 ]
  forces:
  - [  -0.0002633474650793,  0.0000611621653661,  0.0004110496956855 ]
  - [  -0.0000410699140048,  0.0001606090663699, -0.0002025662979577 ]
  - [   0.0002317755715922,  0.0003326347796246, -0.0000162324286066 ]