phonopy:
  version: "2.37.1"
  frequency_unit_conversion_factor: 15.633302
  symmetry_tolerance: 1.00000e-05

space_group:
  type: "P1"
  number: 1
  Hall_symbol: "P 1"

primitive_matrix:
- [  1.000000000000000,  0.000000000000000, -0.000000000000000 ]
- [  0.000000000000000,  1.000000000000000, -0.000000000000000 ]
- [  0.000000000000000,  0.000000000000000,  1.000000000000000 ]

supercell_matrix:
- [   2,   0,   0 ]
- [   0,   2,   0 ]
- [   0,   0,   2 ]

primitive_cell:
  lattice:
  - [     5.915659043179987,     0.000000000000000,     0.000000000000000 ] # a
  - [    -1.971210590781546,     7.374166718575777,     0.000000000000000 ] # b
  - [    -1.972303130032504,    -3.686579566275017,     6.386262418412117 ] # c
  points:
  - symbol: Li # 1
    coordinates: [  0.690517139281102,  0.239288128742926,  0.651377848185193 ]
    mass: 6.940000
  - symbol: Li # 2
    coordinates: [  0.399516934841499,  0.510305881794396,  0.504316993179359 ]
    mass: 6.940000
  - symbol: Li # 3
    coordinates: [  0.253915675391924,  0.657304596328243,  0.921880499959089 ]
    mass: 6.940000
  - symbol: Li # 4
    coordinates: [  0.551221094930164,  0.365098302147432,  0.066828279710862 ]
    mass: 6.940000
  - symbol: Li # 5
    coordinates: [  0.621004600911455,  0.802419472770635,  0.358853910558250 ]
    mass: 6.940000
  - symbol: Li # 6
    coordinates: [  0.842649666392806,  0.094655043850530,  0.213436459464352 ]
    mass: 6.940000
  - symbol: Li # 7
    coordinates: [  0.987519964341830,  0.947111761329101,  0.795990832208159 ]
    mass: 6.940000
  - symbol: Li # 8
    coordinates: [  0.120822289042832,  0.802188479695223,  0.358673776067559 ]
    mass: 6.940000
  - symbol: Sn # 9
    coordinates: [  0.483957207886519,  0.940658206436913,  0.777141696574003 ]
    mass: 118.710000
  - symbol: Sn # 10
    coordinates: [  0.175446019895541,  0.221165242121619,  0.638767043830888 ]
    mass: 118.710000
  - symbol: Sn # 11
    coordinates: [  0.757393139045693,  0.663655276818726,  0.940514070694622 ]
    mass: 118.710000
  - symbol: Sn # 12
    coordinates: [  0.345758673713186,  0.082168269818129,  0.219920291584793 ]
    mass: 118.710000
  - symbol: Sn # 13
    coordinates: [  0.896060106948041,  0.522277925635128,  0.498036758634143 ]
    mass: 118.710000
  - symbol: Sn # 14
    coordinates: [  0.066363651063244,  0.383437636156323,  0.079156954118143 ]
    mass: 118.710000
  reciprocal_lattice: # without 2pi
  - [     0.169042872941245,     0.045187356640382,     0.078291579690588 ] # a*
  - [     0.000000000000000,     0.135608542383639,     0.078282358069490 ] # b*
  - [     0.000000000000000,     0.000000000000000,     0.156586111638150 ] # c*

unit_cell:
  lattice:
  - [     5.915659043179988,     0.000000000000000,     0.000000000000000 ] # a
  - [    -1.971210590781546,     7.374166718575777,     0.000000000000000 ] # b
  - [    -1.972303130032504,    -3.686579566275017,     6.386262418412117 ] # c
  points:
  - symbol: Li # 1
    coordinates: [  0.690517139281102,  0.239288128742926,  0.651377848185193 ]
    mass: 6.940000
    reduced_to: 1
  - symbol: Li # 2
    coordinates: [  0.399516934841499,  0.510305881794396,  0.504316993179359 ]
    mass: 6.940000
    reduced_to: 2
  - symbol: Li # 3
    coordinates: [  0.253915675391924,  0.657304596328243,  0.921880499959089 ]
    mass: 6.940000
    reduced_to: 3
  - symbol: Li # 4
    coordinates: [  0.551221094930164,  0.365098302147432,  0.066828279710862 ]
    mass: 6.940000
    reduced_to: 4
  - symbol: Li # 5
    coordinates: [  0.621004600911455,  0.802419472770635,  0.358853910558250 ]
    mass: 6.940000
    reduced_to: 5
  - symbol: Li # 6
    coordinates: [  0.842649666392806,  0.094655043850530,  0.213436459464352 ]
    mass: 6.940000
    reduced_to: 6
  - symbol: Li # 7
    coordinates: [  0.987519964341830,  0.947111761329101,  0.795990832208159 ]
    mass: 6.940000
    reduced_to: 7
  - symbol: Li # 8
    coordinates: [  0.120822289042832,  0.802188479695223,  0.358673776067559 ]
    mass: 6.940000
    reduced_to: 8
  - symbol: Sn # 9
    coordinates: [  0.483957207886519,  0.940658206436913,  0.777141696574003 ]
    mass: 118.710000
    reduced_to: 9
  - symbol: Sn # 10
    coordinates: [  0.175446019895541,  0.221165242121619,  0.638767043830888 ]
    mass: 118.710000
    reduced_to: 10
  - symbol: Sn # 11
    coordinates: [  0.757393139045693,  0.663655276818726,  0.940514070694622 ]
    mass: 118.710000
    reduced_to: 11
  - symbol: Sn # 12
    coordinates: [  0.345758673713186,  0.082168269818129,  0.219920291584793 ]
    mass: 118.710000
    reduced_to: 12
  - symbol: Sn # 13
    coordinates: [  0.896060106948041,  0.522277925635128,  0.498036758634143 ]
    mass: 118.710000
    reduced_to: 13
  - symbol: Sn # 14
    coordinates: [  0.066363651063244,  0.383437636156323,  0.079156954118143 ]
    mass: 118.710000
    reduced_to: 14

supercell:
  lattice:
  - [    11.831318086359977,     0.000000000000000,     0.000000000000000 ] # a
  - [    -3.942421181563093,    14.748333437151555,     0.000000000000000 ] # b
  - [    -3.944606260065007,    -7.373159132550033,    12.772524836824234 ] # c
  points:
  - symbol: Li # 1
    coordinates: [  0.345258569640551,  0.119644064371463,  0.325688924092596 ]
    mass: 6.940000
    reduced_to: 1
  - symbol: Li # 2
    coordinates: [  0.845258569640551,  0.119644064371463,  0.325688924092596 ]
    mass: 6.940000
    reduced_to: 1
  - symbol: Li # 3
    coordinates: [  0.345258569640551,  0.619644064371463,  0.325688924092596 ]
    mass: 6.940000
    reduced_to: 1
  - symbol: Li # 4
    coordinates: [  0.845258569640551,  0.619644064371463,  0.325688924092596 ]
    mass: 6.940000
    reduced_to: 1
  - symbol: Li # 5
    coordinates: [  0.345258569640551,  0.119644064371463,  0.825688924092596 ]
    mass: 6.940000
    reduced_to: 1
  - symbol: Li # 6
    coordinates: [  0.845258569640551,  0.119644064371463,  0.825688924092596 ]
    mass: 6.940000
    reduced_to: 1
  - symbol: Li # 7
    coordinates: [  0.345258569640551,  0.619644064371463,  0.825688924092596 ]
    mass: 6.940000
    reduced_to: 1
  - symbol: Li # 8
    coordinates: [  0.845258569640551,  0.619644064371463,  0.825688924092596 ]
    mass: 6.940000
    reduced_to: 1
  - symbol: Li # 9
    coordinates: [  0.199758467420749,  0.255152940897198,  0.252158496589679 ]
    mass: 6.940000
    reduced_to: 9
  - symbol: Li # 10
    coordinates: [  0.699758467420749,  0.255152940897198,  0.252158496589679 ]
    mass: 6.940000
    reduced_to: 9
  - symbol: Li # 11
    coordinates: [  0.199758467420749,  0.755152940897198,  0.252158496589679 ]
    mass: 6.940000
    reduced_to: 9
  - symbol: Li # 12
    coordinates: [  0.699758467420749,  0.755152940897198,  0.252158496589679 ]
    mass: 6.940000
    reduced_to: 9
  - symbol: Li # 13
    coordinates: [  0.199758467420749,  0.255152940897198,  0.752158496589679 ]
    mass: 6.940000
    reduced_to: 9
  - symbol: Li # 14
    coordinates: [  0.699758467420749,  0.255152940897198,  0.752158496589679 ]
    mass: 6.940000
    reduced_to: 9
  - symbol: Li # 15
    coordinates: [  0.199758467420749,  0.755152940897198,  0.752158496589679 ]
    mass: 6.940000
    reduced_to: 9
  - symbol: Li # 16
    coordinates: [  0.699758467420749,  0.755152940897198,  0.752158496589679 ]
    mass: 6.940000
    reduced_to: 9
  - symbol: Li # 17
    coordinates: [  0.126957837695962,  0.328652298164121,  0.460940249979545 ]
    mass: 6.940000
    reduced_to: 17
  - symbol: Li # 18
    coordinates: [  0.626957837695962,  0.328652298164121,  0.460940249979545 ]
    mass: 6.940000
    reduced_to: 17
  - symbol: Li # 19
    coordinates: [  0.126957837695962,  0.828652298164121,  0.460940249979545 ]
    mass: 6.940000
    reduced_to: 17
  - symbol: Li # 20
    coordinates: [  0.626957837695962,  0.828652298164121,  0.460940249979545 ]
    mass: 6.940000
    reduced_to: 17
  - symbol: Li # 21
    coordinates: [  0.126957837695962,  0.328652298164121,  0.960940249979545 ]
    mass: 6.940000
    reduced_to: 17
  - symbol: Li # 22
    coordinates: [  0.626957837695962,  0.328652298164121,  0.960940249979545 ]
    mass: 6.940000
    reduced_to: 17
  - symbol: Li # 23
    coordinates: [  0.126957837695962,  0.828652298164121,  0.960940249979545 ]
    mass: 6.940000
    reduced_to: 17
  - symbol: Li # 24
    coordinates: [  0.626957837695962,  0.828652298164121,  0.960940249979545 ]
    mass: 6.940000
    reduced_to: 17
  - symbol: Li # 25
    coordinates: [  0.275610547465082,  0.182549151073716,  0.033414139855431 ]
    mass: 6.940000
    reduced_to: 25
  - symbol: Li # 26
    coordinates: [  0.775610547465082,  0.182549151073716,  0.033414139855431 ]
    mass: 6.940000
    reduced_to: 25
  - symbol: Li # 27
    coordinates: [  0.275610547465082,  0.682549151073716,  0.033414139855431 ]
    mass: 6.940000
    reduced_to: 25
  - symbol: Li # 28
    coordinates: [  0.775610547465082,  0.682549151073716,  0.033414139855431 ]
    mass: 6.940000
    reduced_to: 25
  - symbol: Li # 29
    coordinates: [  0.275610547465082,  0.182549151073716,  0.533414139855431 ]
    mass: 6.940000
    reduced_to: 25
  - symbol: Li # 30
    coordinates: [  0.775610547465082,  0.182549151073716,  0.533414139855431 ]
    mass: 6.940000
    reduced_to: 25
  - symbol: Li # 31
    coordinates: [  0.275610547465082,  0.682549151073716,  0.533414139855431 ]
    mass: 6.940000
    reduced_to: 25
  - symbol: Li # 32
    coordinates: [  0.775610547465082,  0.682549151073716,  0.533414139855431 ]
    mass: 6.940000
    reduced_to: 25
  - symbol: Li # 33
    coordinates: [  0.310502300455728,  0.401209736385318,  0.179426955279125 ]
    mass: 6.940000
    reduced_to: 33
  - symbol: Li # 34
    coordinates: [  0.810502300455727,  0.401209736385318,  0.179426955279125 ]
    mass: 6.940000
    reduced_to: 33
  - symbol: Li # 35
    coordinates: [  0.310502300455728,  0.901209736385318,  0.179426955279125 ]
    mass: 6.940000
    reduced_to: 33
  - symbol: Li # 36
    coordinates: [  0.810502300455727,  0.901209736385318,  0.179426955279125 ]
    mass: 6.940000
    reduced_to: 33
  - symbol: Li # 37
    coordinates: [  0.310502300455728,  0.401209736385318,  0.679426955279125 ]
    mass: 6.940000
    reduced_to: 33
  - symbol: Li # 38
    coordinates: [  0.810502300455727,  0.401209736385318,  0.679426955279125 ]
    mass: 6.940000
    reduced_to: 33
  - symbol: Li # 39
    coordinates: [  0.310502300455728,  0.901209736385318,  0.679426955279125 ]
    mass: 6.940000
    reduced_to: 33
  - symbol: Li # 40
    coordinates: [  0.810502300455727,  0.901209736385318,  0.679426955279125 ]
    mass: 6.940000
    reduced_to: 33
  - symbol: Li # 41
    coordinates: [  0.421324833196403,  0.047327521925265,  0.106718229732176 ]
    mass: 6.940000
    reduced_to: 41
  - symbol: Li # 42
    coordinates: [  0.921324833196403,  0.047327521925265,  0.106718229732176 ]
    mass: 6.940000
    reduced_to: 41
  - symbol: Li # 43
    coordinates: [  0.421324833196403,  0.547327521925265,  0.106718229732176 ]
    mass: 6.940000
    reduced_to: 41
  - symbol: Li # 44
    coordinates: [  0.921324833196403,  0.547327521925265,  0.106718229732176 ]
    mass: 6.940000
    reduced_to: 41
  - symbol: Li # 45
    coordinates: [  0.421324833196403,  0.047327521925265,  0.606718229732176 ]
    mass: 6.940000
    reduced_to: 41
  - symbol: Li # 46
    coordinates: [  0.921324833196403,  0.047327521925265,  0.606718229732176 ]
    mass: 6.940000
    reduced_to: 41
  - symbol: Li # 47
    coordinates: [  0.421324833196403,  0.547327521925265,  0.606718229732176 ]
    mass: 6.940000
    reduced_to: 41
  - symbol: Li # 48
    coordinates: [  0.921324833196403,  0.547327521925265,  0.606718229732176 ]
    mass: 6.940000
    reduced_to: 41
  - symbol: Li # 49
    coordinates: [  0.493759982170915,  0.473555880664551,  0.397995416104079 ]
    mass: 6.940000
    reduced_to: 49
  - symbol: Li # 50
    coordinates: [  0.993759982170915,  0.473555880664551,  0.397995416104079 ]
    mass: 6.940000
    reduced_to: 49
  - symbol: Li # 51
    coordinates: [  0.493759982170915,  0.973555880664551,  0.397995416104079 ]
    mass: 6.940000
    reduced_to: 49
  - symbol: Li # 52
    coordinates: [  0.993759982170915,  0.973555880664551,  0.397995416104079 ]
    mass: 6.940000
    reduced_to: 49
  - symbol: Li # 53
    coordinates: [  0.493759982170915,  0.473555880664551,  0.897995416104079 ]
    mass: 6.940000
    reduced_to: 49
  - symbol: Li # 54
    coordinates: [  0.993759982170915,  0.473555880664551,  0.897995416104079 ]
    mass: 6.940000
    reduced_to: 49
  - symbol: Li # 55
    coordinates: [  0.493759982170915,  0.973555880664551,  0.897995416104079 ]
    mass: 6.940000
    reduced_to: 49
  - symbol: Li # 56
    coordinates: [  0.993759982170915,  0.973555880664551,  0.897995416104079 ]
    mass: 6.940000
    reduced_to: 49
  - symbol: Li # 57
    coordinates: [  0.060411144521416,  0.401094239847612,  0.179336888033780 ]
    mass: 6.940000
    reduced_to: 57
  - symbol: Li # 58
    coordinates: [  0.560411144521416,  0.401094239847612,  0.179336888033780 ]
    mass: 6.940000
    reduced_to: 57
  - symbol: Li # 59
    coordinates: [  0.060411144521416,  0.901094239847612,  0.179336888033780 ]
    mass: 6.940000
    reduced_to: 57
  - symbol: Li # 60
    coordinates: [  0.560411144521416,  0.901094239847612,  0.179336888033780 ]
    mass: 6.940000
    reduced_to: 57
  - symbol: Li # 61
    coordinates: [  0.060411144521416,  0.401094239847612,  0.679336888033780 ]
    mass: 6.940000
    reduced_to: 57
  - symbol: Li # 62
    coordinates: [  0.560411144521416,  0.401094239847612,  0.679336888033780 ]
    mass: 6.940000
    reduced_to: 57
  - symbol: Li # 63
    coordinates: [  0.060411144521416,  0.901094239847612,  0.679336888033780 ]
    mass: 6.940000
    reduced_to: 57
  - symbol: Li # 64
    coordinates: [  0.560411144521416,  0.901094239847612,  0.679336888033780 ]
    mass: 6.940000
    reduced_to: 57
  - symbol: Sn # 65
    coordinates: [  0.241978603943260,  0.470329103218456,  0.388570848287001 ]
    mass: 118.710000
    reduced_to: 65
  - symbol: Sn # 66
    coordinates: [  0.741978603943260,  0.470329103218456,  0.388570848287001 ]
    mass: 118.710000
    reduced_to: 65
  - symbol: Sn # 67
    coordinates: [  0.241978603943260,  0.970329103218456,  0.388570848287001 ]
    mass: 118.710000
    reduced_to: 65
  - symbol: Sn # 68
    coordinates: [  0.741978603943260,  0.970329103218456,  0.388570848287001 ]
    mass: 118.710000
    reduced_to: 65
  - symbol: Sn # 69
    coordinates: [  0.241978603943260,  0.470329103218456,  0.888570848287001 ]
    mass: 118.710000
    reduced_to: 65
  - symbol: Sn # 70
    coordinates: [  0.741978603943260,  0.470329103218456,  0.888570848287001 ]
    mass: 118.710000
    reduced_to: 65
  - symbol: Sn # 71
    coordinates: [  0.241978603943260,  0.970329103218456,  0.888570848287001 ]
    mass: 118.710000
    reduced_to: 65
  - symbol: Sn # 72
    coordinates: [  0.741978603943260,  0.970329103218456,  0.888570848287001 ]
    mass: 118.710000
    reduced_to: 65
  - symbol: Sn # 73
    coordinates: [  0.087723009947770,  0.110582621060809,  0.319383521915444 ]
    mass: 118.710000
    reduced_to: 73
  - symbol: Sn # 74
    coordinates: [  0.587723009947770,  0.110582621060809,  0.319383521915444 ]
    mass: 118.710000
    reduced_to: 73
  - symbol: Sn # 75
    coordinates: [  0.087723009947770,  0.610582621060810,  0.319383521915444 ]
    mass: 118.710000
    reduced_to: 73
  - symbol: Sn # 76
    coordinates: [  0.587723009947770,  0.610582621060810,  0.319383521915444 ]
    mass: 118.710000
    reduced_to: 73
  - symbol: Sn # 77
    coordinates: [  0.087723009947770,  0.110582621060809,  0.819383521915444 ]
    mass: 118.710000
    reduced_to: 73
  - symbol: Sn # 78
    coordinates: [  0.587723009947770,  0.110582621060809,  0.819383521915444 ]
    mass: 118.710000
    reduced_to: 73
  - symbol: Sn # 79
    coordinates: [  0.087723009947770,  0.610582621060810,  0.819383521915444 ]
    mass: 118.710000
    reduced_to: 73
  - symbol: Sn # 80
    coordinates: [  0.587723009947770,  0.610582621060810,  0.819383521915444 ]
    mass: 118.710000
    reduced_to: 73
  - symbol: Sn # 81
    coordinates: [  0.378696569522847,  0.331827638409363,  0.470257035347311 ]
    mass: 118.710000
    reduced_to: 81
  - symbol: Sn # 82
    coordinates: [  0.878696569522847,  0.331827638409363,  0.470257035347311 ]
    mass: 118.710000
    reduced_to: 81
  - symbol: Sn # 83
    coordinates: [  0.378696569522847,  0.831827638409363,  0.470257035347311 ]
    mass: 118.710000
    reduced_to: 81
  - symbol: Sn # 84
    coordinates: [  0.878696569522847,  0.831827638409363,  0.470257035347311 ]
    mass: 118.710000
    reduced_to: 81
  - symbol: Sn # 85
    coordinates: [  0.378696569522847,  0.331827638409363,  0.970257035347311 ]
    mass: 118.710000
    reduced_to: 81
  - symbol: Sn # 86
    coordinates: [  0.878696569522847,  0.331827638409363,  0.970257035347311 ]
    mass: 118.710000
    reduced_to: 81
  - symbol: Sn # 87
    coordinates: [  0.378696569522847,  0.831827638409363,  0.970257035347311 ]
    mass: 118.710000
    reduced_to: 81
  - symbol: Sn # 88
    coordinates: [  0.878696569522847,  0.831827638409363,  0.970257035347311 ]
    mass: 118.710000
    reduced_to: 81
  - symbol: Sn # 89
    coordinates: [  0.172879336856593,  0.041084134909065,  0.109960145792397 ]
    mass: 118.710000
    reduced_to: 89
  - symbol: Sn # 90
    coordinates: [  0.672879336856593,  0.041084134909065,  0.109960145792397 ]
    mass: 118.710000
    reduced_to: 89
  - symbol: Sn # 91
    coordinates: [  0.172879336856593,  0.541084134909065,  0.109960145792397 ]
    mass: 118.710000
    reduced_to: 89
  - symbol: Sn # 92
    coordinates: [  0.672879336856593,  0.541084134909065,  0.109960145792397 ]
    mass: 118.710000
    reduced_to: 89
  - symbol: Sn # 93
    coordinates: [  0.172879336856593,  0.041084134909065,  0.609960145792397 ]
    mass: 118.710000
    reduced_to: 89
  - symbol: Sn # 94
    coordinates: [  0.672879336856593,  0.041084134909065,  0.609960145792397 ]
    mass: 118.710000
    reduced_to: 89
  - symbol: Sn # 95
    coordinates: [  0.172879336856593,  0.541084134909065,  0.609960145792397 ]
    mass: 118.710000
    reduced_to: 89
  - symbol: Sn # 96
    coordinates: [  0.672879336856593,  0.541084134909065,  0.609960145792397 ]
    mass: 118.710000
    reduced_to: 89
  - symbol: Sn # 97
    coordinates: [  0.448030053474020,  0.261138962817564,  0.249018379317072 ]
    mass: 118.710000
    reduced_to: 97
  - symbol: Sn # 98
    coordinates: [  0.948030053474020,  0.261138962817564,  0.249018379317072 ]
    mass: 118.710000
    reduced_to: 97
  - symbol: Sn # 99
    coordinates: [  0.448030053474020,  0.761138962817564,  0.249018379317072 ]
    mass: 118.710000
    reduced_to: 97
  - symbol: Sn # 100
    coordinates: [  0.948030053474020,  0.761138962817564,  0.249018379317072 ]
    mass: 118.710000
    reduced_to: 97
  - symbol: Sn # 101
    coordinates: [  0.448030053474020,  0.261138962817564,  0.749018379317072 ]
    mass: 118.710000
    reduced_to: 97
  - symbol: Sn # 102
    coordinates: [  0.948030053474020,  0.261138962817564,  0.749018379317072 ]
    mass: 118.710000
    reduced_to: 97
  - symbol: Sn # 103
    coordinates: [  0.448030053474020,  0.761138962817564,  0.749018379317072 ]
    mass: 118.710000
    reduced_to: 97
  - symbol: Sn # 104
    coordinates: [  0.948030053474020,  0.761138962817564,  0.749018379317072 ]
    mass: 118.710000
    reduced_to: 97
  - symbol: Sn # 105
    coordinates: [  0.033181825531622,  0.191718818078161,  0.039578477059071 ]
    mass: 118.710000
    reduced_to: 105
  - symbol: Sn # 106
    coordinates: [  0.533181825531622,  0.191718818078161,  0.039578477059071 ]
    mass: 118.710000
    reduced_to: 105
  - symbol: Sn # 107
    coordinates: [  0.033181825531622,  0.691718818078161,  0.039578477059071 ]
    mass: 118.710000
    reduced_to: 105
  - symbol: Sn # 108
    coordinates: [  0.533181825531622,  0.691718818078161,  0.039578477059071 ]
    mass: 118.710000
    reduced_to: 105
  - symbol: Sn # 109
    coordinates: [  0.033181825531622,  0.191718818078161,  0.539578477059071 ]
    mass: 118.710000
    reduced_to: 105
  - symbol: Sn # 110
    coordinates: [  0.533181825531622,  0.191718818078161,  0.539578477059071 ]
    mass: 118.710000
    reduced_to: 105
  - symbol: Sn # 111
    coordinates: [  0.033181825531622,  0.691718818078161,  0.539578477059071 ]
    mass: 118.710000
    reduced_to: 105
  - symbol: Sn # 112
    coordinates: [  0.533181825531622,  0.691718818078161,  0.539578477059071 ]
    mass: 118.710000
    reduced_to: 105

displacements:
- atom:    1
  displacement:
    [   0.0100000000000000,  0.0000000000000000,  0.0000000000000000 ]
  forces:
  - [  -0.0177135095000267,  0.0196326822042465,  0.0066700540482998 ]
  - [   0.0018387017771602,  0.0207772366702557,  0.0078821573406458 ]
  - [   0.0052297902293503,  0.0207729972898960,  0.0078624449670315 ]
  - [   0.0052134604193270,  0.0207491703331470,  0.0078747319057584 ]
  - [   0.0052337516099215,  0.0207551345229149,  0.0078896107152104 ]
  - [   0.0052134064026177,  0.0207529142498970,  0.0078605981543660 ]
  - [   0.0052211503498256,  0.0207618847489357,  0.0078669553622603 ]
  - [   0.0052232402376831,  0.0207499451935291,  0.0078604873269796 ]
  - [  -0.0005685252835974, -0.0198544263839722,  0.0067057209089398 ]
  - [  -0.0003611694555730, -0.0191115569323301,  0.0064065782353282 ]
  - [  -0.0007378309965134, -0.0192131921648979,  0.0063151754438877 ]
  - [  -0.0008184942416847, -0.0191916134208441,  0.0064234109595418 ]
  - [  -0.0008198369760066, -0.0191945098340511,  0.0064636194147170 ]
  - [  -0.0009763347916305, -0.0190311521291733,  0.0058161485940218 ]
  - [  -0.0007898528128862, -0.0191871635615826,  0.0064285313710570 ]
  - [  -0.0008019600063562, -0.0191868469119072,  0.0064293313771486 ]
  - [   0.0048184860497713, -0.0007553733885288, -0.0193734765052795 ]
  - [   0.0046107345260680, -0.0001471163704991, -0.0188588872551918 ]
  - [   0.0042054401710629, -0.0009921801974997, -0.0191060081124306 ]
  - [   0.0043610585853457, -0.0005507412133738, -0.0192574728280306 ]
  - [   0.0043915389105678, -0.0005873418413103, -0.0192448087036610 ]
  - [   0.0043814405798912, -0.0006028518546373, -0.0192499738186598 ]
  - [   0.0044429884292185, -0.0007305993931368, -0.0192644335329533 ]
  - [   0.0043652504682541, -0.0006028850330040, -0.0192460231482983 ]
  - [  -0.0042018820531666, -0.0176065247505903, -0.0115260593593121 ]
  - [  -0.0042967274785042, -0.0177552029490471, -0.0116392038762569 ]
  - [  -0.0043210014700890, -0.0176604054868221, -0.0115573955699801 ]
  - [  -0.0042745210230350, -0.0177690405398607, -0.0116514749825001 ]
  - [  -0.0041057677008212, -0.0175422020256519, -0.0123543124645948 ]
  - [  -0.0038226156029850, -0.0177795924246311, -0.0115558896213770 ]
  - [  -0.0042733913287520, -0.0177422724664211, -0.0116327470168471 ]
  - [  -0.0042644469067454, -0.0177580714225769, -0.0116489771753550 ]
  - [  -0.0003337413654663, -0.0005804522661492, -0.0003360833507031 ]
  - [  -0.0005142725422047, -0.0004368532972876, -0.0003823159786407 ]
  - [  -0.0003204099484719, -0.0014587668702006, -0.0012930195080116 ]
  - [  -0.0006090920069255, -0.0006711308378726, -0.0006062333704904 ]
  - [  -0.0005299897165969, -0.0004755100817420, -0.0004161861434113 ]
  - [  -0.0005510735791177, -0.0004781431052834, -0.0003700146335177 ]
  - [  -0.0005091264029033, -0.0004246623138897, -0.0003853565140162 ]
  - [  -0.0005165876355022, -0.0004189852625132, -0.0003895107656717 ]
  - [  -0.0017125532031059,  0.0124757606536150, -0.0074444641359150 ]
  - [  -0.0012288982979953,  0.0125677110627294, -0.0070250872522593 ]
  - [  -0.0016643885755911,  0.0125555992126465, -0.0071198120713234 ]
  - [  -0.0016629360616207,  0.0125537738204002, -0.0071325562894344 ]
  - [  -0.0016207001172006,  0.0126062780618668, -0.0070337117649615 ]
  - [  -0.0016972819576040,  0.0125579899176955, -0.0071296426467597 ]
  - [  -0.0018382854759693,  0.0129896569997072, -0.0067860949784517 ]
  - [  -0.0016884040087461,  0.0125301945954561, -0.0071500036865473 ]
  - [  -0.0030168415978551,  0.0019861673936248,  0.0189703218638897 ]
  - [  -0.0030931674409658,  0.0019861087203026,  0.0191239882260561 ]
  - [  -0.0030987542122602,  0.0016621523536742,  0.0190826039761305 ]
  - [  -0.0026239985600114,  0.0020840610377491,  0.0190897937864065 ]
  - [  -0.0030569117516279,  0.0019902689382434,  0.0191197860985994 ]
  - [  -0.0030599839519709,  0.0019958096090704,  0.0191218946129084 ]
  - [  -0.0030856202356517,  0.0019874009303749,  0.0191536359488964 ]
  - [  -0.0032356334850192,  0.0020868419669569,  0.0187240391969681 ]
  - [  -0.0005402388051152, -0.0004898551851511,  0.0030203238129616 ]
  - [  -0.0007283743470907, -0.0009958595037460,  0.0031960904598236 ]
  - [  -0.0002876507351175, -0.0002452838816680,  0.0032829428091645 ]
  - [  -0.0002832058817148, -0.0005011536413804,  0.0030905152671039 ]
  - [  -0.0005238401354291, -0.0005358454072848,  0.0030351951718330 ]
  - [  -0.0004534833133221, -0.0006558342720382,  0.0031046411022544 ]
  - [  -0.0005132532678545, -0.0005454755155370,  0.0030391197651625 ]
  - [  -0.0005148494965397, -0.0005205739289522,  0.0030292738229036 ]
  - [   0.0108491815626621,  0.0023890528827906, -0.0056429058313370 ]
  - [   0.0108773577958345,  0.0021945722401142, -0.0056985653936863 ]
  - [   0.0116648655384779,  0.0057277018204331, -0.0067966356873512 ]
  - [   0.0109067838639021,  0.0021986626088619, -0.0056422986090183 ]
  - [   0.0109083019196987,  0.0022871242836118, -0.0056867189705372 ]
  - [   0.0109032336622477,  0.0023208465427160, -0.0056653134524822 ]
  - [   0.0107820294797421,  0.0022354284301400, -0.0055273976176977 ]
  - [   0.0109242424368858,  0.0022862702608109, -0.0056896302849054 ]
  - [   0.0001886636018753, -0.0154558923095465, -0.0069480929523706 ]
  - [   0.0019481554627419, -0.0163792297244072, -0.0077517032623291 ]
  - [  -0.0094173271209002, -0.0159732699394226, -0.0073373336344957 ]
  - [  -0.0094110295176506, -0.0159514062106609, -0.0073313619941473 ]
  - [  -0.0094182863831520, -0.0160001516342163, -0.0073453485965729 ]
  - [  -0.0094131343066692, -0.0160223506391048, -0.0073282308876514 ]
  - [  -0.0094095356762409, -0.0159929431974888, -0.0073405653238297 ]
  - [  -0.0094111599028111, -0.0159808248281479, -0.0073654428124428 ]
  - [  -0.0117735695093870, -0.0042033642530441,  0.0068210791796446 ]
  - [  -0.0127952434122562, -0.0015304693952203,  0.0093166138976812 ]
  - [  -0.0129103437066078, -0.0014803064987063,  0.0092059150338173 ]
  - [  -0.0127813648432493, -0.0015932889655232,  0.0092566870152950 ]
  - [  -0.0128064993768930, -0.0015690634027123,  0.0092255640774965 ]
  - [  -0.0127971805632114, -0.0015850532799959,  0.0092866476625204 ]
  - [  -0.0127776246517897, -0.0015315189957619,  0.0092484094202518 ]
  - [  -0.0128690134733915, -0.0015978431329131,  0.0091600399464369 ]
  - [   0.0082511436194181, -0.0120713096112013,  0.0125498687848449 ]
  - [   0.0075807590037584, -0.0114224478602409,  0.0089403167366982 ]
  - [   0.0075656678527594, -0.0114228688180447,  0.0090938881039619 ]
  - [   0.0075855739414692, -0.0114218965172768,  0.0090880552306771 ]
  - [   0.0075378865003586, -0.0114903897047043,  0.0090944012627006 ]
  - [   0.0075250975787640, -0.0113792959600687,  0.0089766010642052 ]
  - [   0.0075906794518232, -0.0114298444241285,  0.0090893683955073 ]
  - [   0.0075203366577625, -0.0114798434078693,  0.0090680485591292 ]
  - [  -0.0051652286201715,  0.0172844771295786, -0.0099110957235098 ]
  - [  -0.0056078396737576,  0.0141252167522907, -0.0088492333889008 ]
  - [  -0.0054841116070747,  0.0141229256987572, -0.0087880184873939 ]
  - [  -0.0055639408528805,  0.0140344668179750, -0.0088386414572597 ]
  - [  -0.0055257976055145,  0.0141363441944122, -0.0087919095531106 ]
  - [  -0.0054552257061005,  0.0141415111720562, -0.0088675636798143 ]
  - [  -0.0054908506572247,  0.0141027420759201, -0.0088473334908485 ]
  - [  -0.0055170077830553,  0.0141310300678015, -0.0088291596621275 ]
  - [   0.0104107894003391,  0.0157948248088360,  0.0053948834538460 ]
  - [   0.0104015804827213,  0.0157165341079235,  0.0055508464574814 ]
  - [   0.0104859471321106,  0.0157593041658401,  0.0054441671818495 ]
  - [   0.0104452036321163,  0.0158061478286982,  0.0054860040545464 ]
  - [   0.0102324485778809,  0.0157768949866295,  0.0055679138749838 ]
  - [   0.0113586150109768,  0.0152316689491272,  0.0092332400381565 ]
  - [   0.0104430690407753,  0.0158130042254925,  0.0054670963436365 ]
  - [   0.0104247014969587,  0.0157676637172699,  0.0054823532700539 ]
- atom:    1
  displacement:
    [  -0.0100000000000000,  0.0000000000000000,  0.0000000000000000 ]
  forces:
  - [   0.0280650816857815,  0.0219061933457851,  0.0090656336396933 ]
  - [   0.0086095780134201,  0.0207378491759300,  0.0078572463244200 ]
  - [   0.0052141048945487,  0.0207419320940971,  0.0078771952539682 ]
  - [   0.0052303224802017,  0.0207636542618275,  0.0078637078404427 ]
  - [   0.0052128992974758,  0.0207607652992010,  0.0078486083075404 ]
  - [   0.0052318582311273,  0.0207635276019573,  0.0078780800104141 ]
  - [   0.0052252123132348,  0.0207543224096298,  0.0078709973022342 ]
  - [   0.0052236462943256,  0.0207654796540737,  0.0078791566193104 ]
  - [  -0.0010266399476677, -0.0185257270932198,  0.0061416039243340 ]
  - [  -0.0012337676016614, -0.0192754138261080,  0.0064423549920321 ]
  - [  -0.0008570868521929, -0.0191680490970612,  0.0065335929393768 ]
  - [  -0.0007774927653372, -0.0191907770931721,  0.0064256112091243 ]
  - [  -0.0007733842357993, -0.0191897470504045,  0.0063856081105769 ]
  - [  -0.0006190123967826, -0.0193549338728189,  0.0070372149348259 ]
  - [  -0.0008020955137908, -0.0191951021552086,  0.0064222118817270 ]