# Thermal properties / unit cell (natom)

unit:
  temperature:   K
  free_energy:   kJ/mol
  entropy:       J/K/mol
  heat_capacity: J/K/mol

natom: 14   
cutoff_frequency: 0.00000
num_modes: 204288
num_integrated_modes: 204285

zero_point_energy:      48.4628258

thermal_properties:
- temperature:         0.0000000
  free_energy:        48.4628258
  entropy:             0.0000000
  heat_capacity:       0.0000000
  energy:             48.4628258

- temperature:        10.0000000
  free_energy:        48.4585844
  entropy:             1.8497547
  heat_capacity:       6.1082923
  energy:             48.4770819

- temperature:        20.0000000
  free_energy:        48.3865239
  entropy:            14.7772926
  heat_capacity:      38.1547273
  energy:             48.6820698

- temperature:        30.0000000
  free_energy:        48.1310348
  entropy:            37.2072590
  heat_capacity:      73.4630887
  energy:             49.2472526

- temperature:        40.0000000
  free_energy:        47.6348377
  entropy:            62.0721145
  heat_capacity:      99.1545490
  energy:             50.1177223

- temperature:        50.0000000
  free_energy:        46.8918260
  entropy:            86.3420007
  heat_capacity:     118.3955497
  energy:             51.2089260

- temperature:        60.0000000
  free_energy:        45.9120301
  entropy:           109.4223043
  heat_capacity:     135.0812214
  energy:             52.4773684

- temperature:        70.0000000
  free_energy:        44.7068911
  entropy:           131.4506791
  heat_capacity:     151.0858903
  energy:             53.9084386

- temperature:        80.0000000
  free_energy:        43.2857447
  entropy:           152.6576912
  heat_capacity:     166.8536660
  energy:             55.4983600

- temperature:        90.0000000
  free_energy:        41.6559359
  entropy:           173.2023952
  heat_capacity:     182.2098870
  energy:             57.2441515

- temperature:       100.0000000
  free_energy:        39.8236313
  entropy:           193.1650835
  heat_capacity:     196.8433349
  energy:             59.1401397

- temperature:       110.0000000
  free_energy:        37.7944729
  entropy:           212.5754004
  heat_capacity:     210.5052751
  energy:             61.1777669

- temperature:       120.0000000
  free_energy:        35.5739475
  entropy:           231.4382128
  heat_capacity:     223.0568406
  energy:             63.3465331

- temperature:       130.0000000
  free_energy:        33.1675452
  entropy:           249.7500672
  heat_capacity:     234.4557221
  energy:             65.6350540

- temperature:       140.0000000
  free_energy:        30.5807937
  entropy:           267.5077966
  heat_capacity:     244.7272582
  energy:             68.0318852

- temperature:       150.0000000
  free_energy:        27.8192344
  entropy:           284.7121674
  heat_capacity:     253.9375670
  energy:             70.5260595

- temperature:       160.0000000
  free_energy:        24.8883766
  entropy:           301.3688212
  heat_capacity:     262.1735298
  energy:             73.1073880

- temperature:       170.0000000
  free_energy:        21.7936502
  entropy:           317.4879216
  heat_capacity:     269.5294930
  energy:             75.7665969

- temperature:       180.0000000
  free_energy:        18.5403642
  entropy:           333.0832957
  heat_capacity:     276.0991515
  energy:             78.4953575

- temperature:       190.0000000
  free_energy:        15.1336752
  entropy:           348.1714716
  heat_capacity:     281.9710131
  energy:             81.2862548

- temperature:       200.0000000
  free_energy:        11.5785644
  entropy:           362.7707927
  heat_capacity:     287.2261750
  energy:             84.1327230

- temperature:       210.0000000
  free_energy:         7.8798241
  entropy:           376.9006776
  heat_capacity:     291.9375177
  energy:             87.0289664

- temperature:       220.0000000
  free_energy:         4.0420493
  entropy:           390.5810352
  heat_capacity:     296.1697218
  energy:             89.9698771

- temperature:       230.0000000
  free_energy:         0.0696353
  entropy:           403.8318219
  heat_capacity:     299.9797286
  energy:             92.9509543

- temperature:       240.0000000
  free_energy:        -4.0332209
  entropy:           416.6727173
  heat_capacity:     303.4174128
  energy:             95.9682313

- temperature:       250.0000000
  free_energy:        -8.2625167
  entropy:           429.1228962
  heat_capacity:     306.5263308
  energy:             99.0182073

- temperature:       260.0000000
  free_energy:       -12.6144382
  entropy:           441.2008745
  heat_capacity:     309.3444645
  energy:            102.0977891

- temperature:       270.0000000
  free_energy:       -17.0853528
  entropy:           452.9244111
  heat_capacity:     311.9049213
  energy:            105.2042382

- temperature:       280.0000000
  free_energy:       -21.6718016
  entropy:           464.3104530
  heat_capacity:     314.2365698
  energy:            108.3351253

- temperature:       290.0000000
  free_energy:       -26.3704907
  entropy:           475.3751100
  heat_capacity:     316.3646059
  energy:            111.4882912

- temperature:       300.0000000
  free_energy:       -31.1782835
  entropy:           486.1336528
  heat_capacity:     318.3110488
  energy:            114.6618124

- temperature:       310.0000000
  free_energy:       -36.0921916
  entropy:           496.6005258
  heat_capacity:     320.0951728
  energy:            117.8539714

- temperature:       320.0000000
  free_energy:       -41.1093673
  entropy:           506.7893708
  heat_capacity:     321.7338803
  energy:            121.0632314

- temperature:       330.0000000
  free_energy:       -46.2270952
  entropy:           516.7130582
  heat_capacity:     323.2420224
  energy:            124.2882140

- temperature:       340.0000000
  free_energy:       -51.4427851
  entropy:           526.3837220
  heat_capacity:     324.6326752
  energy:            127.5276803

- temperature:       350.0000000
  free_energy:       -56.7539645
  entropy:           535.8127969
  heat_capacity:     325.9173761
  energy:            130.7805144

- temperature:       360.0000000
  free_energy:       -62.1582718
  entropy:           545.0110572
  heat_capacity:     327.1063268
  energy:            134.0457088

- temperature:       370.0000000
  free_energy:       -67.6534501
  entropy:           553.9886546
  heat_capacity:     328.2085675
  energy:            137.3223521

- temperature:       380.0000000
  free_energy:       -73.2373413
  entropy:           562.7551559
  heat_capacity:     329.2321261
  energy:            140.6096180

- temperature:       390.0000000
  free_energy:       -78.9078797
  entropy:           571.3195793
  heat_capacity:     330.1841474
  energy:            143.9067562

- temperature:       400.0000000
  free_energy:       -84.6630876
  entropy:           579.6904286
  heat_capacity:     331.0710029
  energy:            147.2130838

- temperature:       410.0000000
  free_energy:       -90.5010698
  entropy:           587.8757267
  heat_capacity:     331.8983869
  energy:            150.5279781

- temperature:       420.0000000
  free_energy:       -96.4200090
  entropy:           595.8830460
  heat_capacity:     332.6713985
  energy:            153.8508704

- temperature:       430.0000000
  free_energy:      -102.4181614
  entropy:           603.7195384
  heat_capacity:     333.3946129
  energy:            157.1812401

- temperature:       440.0000000
  free_energy:      -108.4938529
  entropy:           611.3919620
  heat_capacity:     334.0721434
  energy:            160.5186104

- temperature:       450.0000000
  free_energy:      -114.6454751
  entropy:           618.9067070
  heat_capacity:     334.7076951
  energy:            163.8625431

- temperature:       460.0000000
  free_energy:      -120.8714816
  entropy:           626.2698199
  heat_capacity:     335.3046113
  energy:            167.2126355

- temperature:       470.0000000
  free_energy:      -127.1703851
  entropy:           633.4870251
  heat_capacity:     335.8659145
  energy:            170.5685167

- temperature:       480.0000000
  free_energy:      -133.5407539
  entropy:           640.5637461
  heat_capacity:     336.3943419
  energy:            173.9298443

- temperature:       490.0000000
  free_energy:      -139.9812089
  entropy:           647.5051248
  heat_capacity:     336.8923768
  energy:            177.2963022

- temperature:       500.0000000
  free_energy:      -146.4904215
  entropy:           654.3160391
  heat_capacity:     337.3622754
  energy:            180.6675980

- temperature:       510.0000000
  free_energy:      -153.0671103
  entropy:           661.0011198
  heat_capacity:     337.8060916
  energy:            184.0434608

- temperature:       520.0000000
  free_energy:      -159.7100391
  entropy:           667.5647660
  heat_capacity:     338.2256972
  energy:            187.4236392

- temperature:       530.0000000
  free_energy:      -166.4180148
  entropy:           674.0111595
  heat_capacity:     338.6228016
  energy:            190.8078998

- temperature:       540.0000000
  free_energy:      -173.1898848
  entropy:           680.3442782
  heat_capacity:     338.9989674
  energy:            194.1960254

- temperature:       550.0000000
  free_energy:      -180.0245354
  entropy:           686.5679082
  heat_capacity:     339.3556257
  energy:            197.5878141

- temperature:       560.0000000
  free_energy:      -186.9208900
  entropy:           692.6856559
  heat_capacity:     339.6940884
  energy:            200.9830773

- temperature:       570.0000000
  free_energy:      -193.8779071
  entropy:           698.7009584
  heat_capacity:     340.0155605
  energy:            204.3816392

- temperature:       580.0000000
  free_energy:      -200.8945786
  entropy:           704.6170935
  heat_capacity:     340.3211495
  energy:            207.7833356

- temperature:       590.0000000
  free_energy:      -207.9699288
  entropy:           710.4371890
  heat_capacity:     340.6118752
  energy:            211.1880127

- temperature:       600.0000000
  free_energy:      -215.1030123
  entropy:           716.1642316
  heat_capacity:     340.8886776
  energy:            214.5955267

- temperature:       610.0000000
  free_energy:      -222.2929128
  entropy:           721.8010746
  heat_capacity:     341.1524242
  energy:            218.0057427

- temperature:       620.0000000
  free_energy:      -229.5387422
  entropy:           727.3504460
  heat_capacity:     341.4039165
  energy:            221.4185343

- temperature:       630.0000000
  free_energy:      -236.8396389
  entropy:           732.8149548
  heat_capacity:     341.6438961
  energy:            224.8337827

- temperature:       640.0000000
  free_energy:      -244.1947668
  entropy:           738.1970983
  heat_capacity:     341.8730496
  energy:            228.2513762

- temperature:       650.0000000
  free_energy:      -251.6033143
  entropy:           743.4992677
  heat_capacity:     342.0920136
  energy:            231.6712097

- temperature:       660.0000000
  free_energy:      -259.0644932
  entropy:           748.7237540
  heat_capacity:     342.3013792
  energy:            235.0931844

- temperature:       670.0000000
  free_energy:      -266.5775377
  entropy:           753.8727535
  heat_capacity:     342.5016952
  energy:            238.5172071

- temperature:       680.0000000
  free_energy:      -274.1417037
  entropy:           758.9483729
  heat_capacity:     342.6934723
  energy:            241.9431899

- temperature:       690.0000000
  free_energy:      -281.7562673
  entropy:           763.9526334
  heat_capacity:     342.8771857
  energy:            245.3710497

- temperature:       700.0000000
  free_energy:      -289.4205249
  entropy:           768.8874759
  heat_capacity:     343.0532784
  energy:            248.8007082

- temperature:       710.0000000
  free_energy:      -297.1337917
  entropy:           773.7547647
  heat_capacity:     343.2221634
  energy:            252.2320913

- temperature:       720.0000000
  free_energy:      -304.8954010
  entropy:           778.5562914
  heat_capacity:     343.3842265
  energy:            255.6651287

- temperature:       730.0000000
  free_energy:      -312.7047040
  entropy:           783.2937785
  heat_capacity:     343.5398280
  energy:            259.0997543

- temperature:       740.0000000
  free_energy:      -320.5610687
  entropy:           787.9688832
  heat_capacity:     343.6893049
  energy:            262.5359049

- temperature:       750.0000000
  free_energy:      -328.4638791
  entropy:           792.5832001
  heat_capacity:     343.8329728
  energy:            265.9735210

- temperature:       760.0000000
  free_energy:      -336.4125352
  entropy:           797.1382647
  heat_capacity:     343.9711271
  energy:            269.4125460

- temperature:       770.0000000
  free_energy:      -344.4064518
  entropy:           801.6355557
  heat_capacity:     344.1040449
  energy:            272.8529261

- temperature:       780.0000000
  free_energy:      -352.4450585
  entropy:           806.0764984
  heat_capacity:     344.2319862
  energy:            276.2946103

- temperature:       790.0000000
  free_energy:      -360.5277985
  entropy:           810.4624665
  heat_capacity:     344.3551951
  energy:            279.7375500

- temperature:       800.0000000
  free_energy:      -368.6541290
  entropy:           814.7947852
  heat_capacity:     344.4739010
  energy:            283.1816992

- temperature:       810.0000000
  free_energy:      -376.8235197
  entropy:           819.0747326
  heat_capacity:     344.5883197
  energy:            286.6270138

- temperature:       820.0000000
  free_energy:      -385.0354532
  entropy:           823.3035428
  heat_capacity:     344.6986542
  energy:            290.0734520

- temperature:       830.0000000
  free_energy:      -393.2894241
  entropy:           827.4824071
  heat_capacity:     344.8050958
  energy:            293.5209739

- temperature:       840.0000000
  free_energy:      -401.5849387
  entropy:           831.6124764
  heat_capacity:     344.9078245
  energy:            296.9695415

- temperature:       850.0000000
  free_energy:      -409.9215146
  entropy:           835.6948626
  heat_capacity:     345.0070104
  energy:            300.4191186

- temperature:       860.0000000
  free_energy:      -418.2986806
  entropy:           839.7306407
  heat_capacity:     345.1028139
  energy:            303.8696704

- temperature:       870.0000000
  free_energy:      -426.7159756
  entropy:           843.7208501
  heat_capacity:     345.1953863
  energy:            307.3211641

- temperature:       880.0000000
  free_energy:      -435.1729490
  entropy:           847.6664965
  heat_capacity:     345.2848708
  energy:            310.7735679

- temperature:       890.0000000
  free_energy:      -443.6691602
  entropy:           851.5685526
  heat_capacity:     345.3714026
  energy:            314.2268516

- temperature:       900.0000000
  free_energy:      -452.2041779
  entropy:           855.4279605
  heat_capacity:     345.4551098
  energy:            317.6809865

- temperature:       910.0000000
  free_energy:      -460.7775803
  entropy:           859.2456320
  heat_capacity:     345.5361135
  energy:            321.1359448

- temperature:       920.0000000
  free_energy:      -469.3889544
  entropy:           863.0224506
  heat_capacity:     345.6145285
  energy:            324.5917001

- temperature:       930.0000000
  free_energy:      -478.0378960
  entropy:           866.7592721
  heat_capacity:     345.6904634
  energy:            328.0482271

- temperature:       940.0000000
  free_energy:      -486.7240093
  entropy:           870.4569263
  heat_capacity:     345.7640215
  energy:            331.5055015

- temperature:       950.0000000
  free_energy:      -495.4469066
  entropy:           874.1162175
  heat_capacity:     345.8353006
  energy:            334.9635000

- temperature:       960.0000000
  free_energy:      -504.2062083
  entropy:           877.7379256
  heat_capacity:     345.9043934
  energy:            338.4222002

- temperature:       970.0000000
  free_energy:      -513.0015424
  entropy:           881.3228074
  heat_capacity:     345.9713883
  energy:            341.8815808

- temperature:       980.0000000
  free_energy:      -521.8325442
  entropy:           884.8715974
  heat_capacity:     346.0363690
  energy:            345.3416213

- temperature:       990.0000000
  free_energy:      -530.6988564
  entropy:           888.3850083
  heat_capacity:     346.0994153
  energy:            348.8023018

- temperature:      1000.0000000
  free_energy:      -539.6001287
  entropy:           891.8637321
  heat_capacity:     346.1606029
  energy:            352.2636034
