phonopy:
  version: "2.37.1"
  frequency_unit_conversion_factor: 15.633302
  symmetry_tolerance: 1.00000e-05

space_group:
  type: "P1"
  number: 1
  Hall_symbol: "P 1"

primitive_matrix:
- [ -1.000000000000000,  0.000000000000000,  0.000000000000000 ]
- [  0.000000000000000, -1.000000000000000, -1.000000000000000 ]
- [  0.000000000000000,  0.000000000000000,  1.000000000000000 ]

supercell_matrix:
- [   2,   0,   0 ]
- [   0,   2,   0 ]
- [   0,   0,   1 ]

primitive_cell:
  lattice:
  - [    -6.003457110868340,     0.000000000000000,     0.000000000000000 ] # a
  - [    -2.042372793569791,    -6.727789835219211,     0.000000000000000 ] # b
  - [    -0.691092032572317,    -3.455450345127460,     9.721797132667641 ] # c
  points:
  - symbol: Sn # 1
    coordinates: [  0.918875002723817,  0.305352181603818,  0.740380788945099 ]
    mass: 118.710000
  - symbol: Sn # 2
    coordinates: [  0.345706780590876,  0.019075665544463,  0.596968047192213 ]
    mass: 118.710000
  - symbol: Sn # 3
    coordinates: [  0.917121018448536,  0.806080937528086,  0.743784781649886 ]
    mass: 118.710000
  - symbol: Sn # 4
    coordinates: [  0.775263506633851,  0.735745067352125,  0.456884646729360 ]
    mass: 118.710000
  - symbol: Sn # 5
    coordinates: [  0.345807220875867,  0.521534195475138,  0.597465249089711 ]
    mass: 118.710000
  - symbol: Sn # 6
    coordinates: [  0.631406233889246,  0.663273790245439,  0.170196030764056 ]
    mass: 118.710000
  - symbol: Sn # 7
    coordinates: [  0.488492286239072,  0.093170450409028,  0.882395784594702 ]
    mass: 118.710000
  - symbol: Sn # 8
    coordinates: [  0.202918247435217,  0.447442221784770,  0.312338875843550 ]
    mass: 118.710000
  - symbol: Sn # 9
    coordinates: [  0.203384293352310,  0.948142145305930,  0.312521406088387 ]
    mass: 118.710000
  - symbol: Sn # 10
    coordinates: [  0.060083265618264,  0.375631237960780,  0.027767593018401 ]
    mass: 118.710000
  - symbol: Sn # 11
    coordinates: [  0.060523081590023,  0.878273222134351,  0.027901327707298 ]
    mass: 118.710000
  - symbol: Sn # 12
    coordinates: [  0.631404728566229,  0.163021512465023,  0.169849643537200 ]
    mass: 118.710000
  - symbol: Sn # 13
    coordinates: [  0.775299935927105,  0.234438933958432,  0.455715388428171 ]
    mass: 118.710000
  - symbol: Sn # 14
    coordinates: [  0.488721117344675,  0.590626307926614,  0.884231164530552 ]
    mass: 118.710000
  reciprocal_lattice: # without 2pi
  - [    -0.166570691108903,     0.050566301275649,     0.006131959440813 ] # a*
  - [    -0.000000000000000,    -0.148637223292130,    -0.052830617376053 ] # b*
  - [    -0.000000000000000,    -0.000000000000000,     0.102861640327770 ] # c*

unit_cell:
  lattice:
  - [     6.003457110868340,     0.000000000000000,     0.000000000000000 ] # a
  - [     2.042372793569790,     6.727789835219209,     0.000000000000000 ] # b
  - [     1.351280760997472,     3.272339490091750,     9.721797132667643 ] # c
  points:
  - symbol: Sn # 1
    coordinates: [  0.081124997276183,  0.954267029451083,  0.740380788945099 ]
    mass: 118.710000
    reduced_to: 1
  - symbol: Sn # 2
    coordinates: [  0.654293219409124,  0.383956287263324,  0.596968047192213 ]
    mass: 118.710000
    reduced_to: 2
  - symbol: Sn # 3
    coordinates: [  0.082878981551464,  0.450134280822028,  0.743784781649886 ]
    mass: 118.710000
    reduced_to: 3
  - symbol: Sn # 4
    coordinates: [  0.224736493366149,  0.807370285918515,  0.456884646729360 ]
    mass: 118.710000
    reduced_to: 4
  - symbol: Sn # 5
    coordinates: [  0.654192779124133,  0.881000555435151,  0.597465249089711 ]
    mass: 118.710000
    reduced_to: 5
  - symbol: Sn # 6
    coordinates: [  0.368593766110755,  0.166530178990505,  0.170196030764056 ]
    mass: 118.710000
    reduced_to: 6
  - symbol: Sn # 7
    coordinates: [  0.511507713760929,  0.024433764996271,  0.882395784594702 ]
    mass: 118.710000
    reduced_to: 7
  - symbol: Sn # 8
    coordinates: [  0.797081752564783,  0.240218902371680,  0.312338875843550 ]
    mass: 118.710000
    reduced_to: 8
  - symbol: Sn # 9
    coordinates: [  0.796615706647690,  0.739336448605683,  0.312521406088387 ]
    mass: 118.710000
    reduced_to: 9
  - symbol: Sn # 10
    coordinates: [  0.939916734381736,  0.596601169020819,  0.027767593018401 ]
    mass: 118.710000
    reduced_to: 10
  - symbol: Sn # 11
    coordinates: [  0.939476918409977,  0.093825450158351,  0.027901327707298 ]
    mass: 118.710000
    reduced_to: 11
  - symbol: Sn # 12
    coordinates: [  0.368595271433771,  0.667128843997777,  0.169849643537200 ]
    mass: 118.710000
    reduced_to: 12
  - symbol: Sn # 13
    coordinates: [  0.224700064072895,  0.309845677613397,  0.455715388428171 ]
    mass: 118.710000
    reduced_to: 13
  - symbol: Sn # 14
    coordinates: [  0.511278882655325,  0.525142527542834,  0.884231164530552 ]
    mass: 118.710000
    reduced_to: 14

supercell:
  lattice:
  - [    12.006914221736681,     0.000000000000000,     0.000000000000000 ] # a
  - [     4.084745587139580,    13.455579670438418,     0.000000000000000 ] # b
  - [     1.351280760997472,     3.272339490091750,     9.721797132667643 ] # c
  points:
  - symbol: Sn # 1
    coordinates: [  0.040562498638092,  0.477133514725541,  0.740380788945099 ]
    mass: 118.710000
    reduced_to: 1
  - symbol: Sn # 2
    coordinates: [  0.540562498638092,  0.477133514725541,  0.740380788945099 ]
    mass: 118.710000
    reduced_to: 1
  - symbol: Sn # 3
    coordinates: [  0.040562498638092,  0.977133514725541,  0.740380788945099 ]
    mass: 118.710000
    reduced_to: 1
  - symbol: Sn # 4
    coordinates: [  0.540562498638092,  0.977133514725541,  0.740380788945099 ]
    mass: 118.710000
    reduced_to: 1
  - symbol: Sn # 5
    coordinates: [  0.327146609704562,  0.191978143631662,  0.596968047192213 ]
    mass: 118.710000
    reduced_to: 5
  - symbol: Sn # 6
    coordinates: [  0.827146609704562,  0.191978143631662,  0.596968047192213 ]
    mass: 118.710000
    reduced_to: 5
  - symbol: Sn # 7
    coordinates: [  0.327146609704562,  0.691978143631662,  0.596968047192213 ]
    mass: 118.710000
    reduced_to: 5
  - symbol: Sn # 8
    coordinates: [  0.827146609704562,  0.691978143631662,  0.596968047192213 ]
    mass: 118.710000
    reduced_to: 5
  - symbol: Sn # 9
    coordinates: [  0.041439490775732,  0.225067140411014,  0.743784781649886 ]
    mass: 118.710000
    reduced_to: 9
  - symbol: Sn # 10
    coordinates: [  0.541439490775732,  0.225067140411014,  0.743784781649886 ]
    mass: 118.710000
    reduced_to: 9
  - symbol: Sn # 11
    coordinates: [  0.041439490775732,  0.725067140411014,  0.743784781649886 ]
    mass: 118.710000
    reduced_to: 9
  - symbol: Sn # 12
    coordinates: [  0.541439490775732,  0.725067140411014,  0.743784781649886 ]
    mass: 118.710000
    reduced_to: 9
  - symbol: Sn # 13
    coordinates: [  0.112368246683075,  0.403685142959258,  0.456884646729360 ]
    mass: 118.710000
    reduced_to: 13
  - symbol: Sn # 14
    coordinates: [  0.612368246683075,  0.403685142959258,  0.456884646729360 ]
    mass: 118.710000
    reduced_to: 13
  - symbol: Sn # 15
    coordinates: [  0.112368246683075,  0.903685142959258,  0.456884646729360 ]
    mass: 118.710000
    reduced_to: 13
  - symbol: Sn # 16
    coordinates: [  0.612368246683075,  0.903685142959258,  0.456884646729360 ]
    mass: 118.710000
    reduced_to: 13
  - symbol: Sn # 17
    coordinates: [  0.327096389562067,  0.440500277717576,  0.597465249089711 ]
    mass: 118.710000
    reduced_to: 17
  - symbol: Sn # 18
    coordinates: [  0.827096389562067,  0.440500277717576,  0.597465249089711 ]
    mass: 118.710000
    reduced_to: 17
  - symbol: Sn # 19
    coordinates: [  0.327096389562067,  0.940500277717576,  0.597465249089711 ]
    mass: 118.710000
    reduced_to: 17
  - symbol: Sn # 20
    coordinates: [  0.827096389562067,  0.940500277717576,  0.597465249089711 ]
    mass: 118.710000
    reduced_to: 17
  - symbol: Sn # 21
    coordinates: [  0.184296883055377,  0.083265089495253,  0.170196030764056 ]
    mass: 118.710000
    reduced_to: 21
  - symbol: Sn # 22
    coordinates: [  0.684296883055377,  0.083265089495253,  0.170196030764056 ]
    mass: 118.710000
    reduced_to: 21
  - symbol: Sn # 23
    coordinates: [  0.184296883055377,  0.583265089495253,  0.170196030764056 ]
    mass: 118.710000
    reduced_to: 21
  - symbol: Sn # 24
    coordinates: [  0.684296883055377,  0.583265089495253,  0.170196030764056 ]
    mass: 118.710000
    reduced_to: 21
  - symbol: Sn # 25
    coordinates: [  0.255753856880464,  0.012216882498135,  0.882395784594702 ]
    mass: 118.710000
    reduced_to: 25
  - symbol: Sn # 26
    coordinates: [  0.755753856880464,  0.012216882498135,  0.882395784594702 ]
    mass: 118.710000
    reduced_to: 25
  - symbol: Sn # 27
    coordinates: [  0.255753856880464,  0.512216882498135,  0.882395784594702 ]
    mass: 118.710000
    reduced_to: 25
  - symbol: Sn # 28
    coordinates: [  0.755753856880464,  0.512216882498135,  0.882395784594702 ]
    mass: 118.710000
    reduced_to: 25
  - symbol: Sn # 29
    coordinates: [  0.398540876282391,  0.120109451185840,  0.312338875843550 ]
    mass: 118.710000
    reduced_to: 29
  - symbol: Sn # 30
    coordinates: [  0.898540876282391,  0.120109451185840,  0.312338875843550 ]
    mass: 118.710000
    reduced_to: 29
  - symbol: Sn # 31
    coordinates: [  0.398540876282391,  0.620109451185840,  0.312338875843550 ]
    mass: 118.710000
    reduced_to: 29
  - symbol: Sn # 32
    coordinates: [  0.898540876282391,  0.620109451185840,  0.312338875843550 ]
    mass: 118.710000
    reduced_to: 29
  - symbol: Sn # 33
    coordinates: [  0.398307853323845,  0.369668224302842,  0.312521406088387 ]
    mass: 118.710000
    reduced_to: 33
  - symbol: Sn # 34
    coordinates: [  0.898307853323845,  0.369668224302842,  0.312521406088387 ]
    mass: 118.710000
    reduced_to: 33
  - symbol: Sn # 35
    coordinates: [  0.398307853323845,  0.869668224302842,  0.312521406088387 ]
    mass: 118.710000
    reduced_to: 33
  - symbol: Sn # 36
    coordinates: [  0.898307853323845,  0.869668224302842,  0.312521406088387 ]
    mass: 118.710000
    reduced_to: 33
  - symbol: Sn # 37
    coordinates: [  0.469958367190868,  0.298300584510410,  0.027767593018401 ]
    mass: 118.710000
    reduced_to: 37
  - symbol: Sn # 38
    coordinates: [  0.969958367190868,  0.298300584510410,  0.027767593018401 ]
    mass: 118.710000
    reduced_to: 37
  - symbol: Sn # 39
    coordinates: [  0.469958367190868,  0.798300584510410,  0.027767593018401 ]
    mass: 118.710000
    reduced_to: 37
  - symbol: Sn # 40
    coordinates: [  0.969958367190868,  0.798300584510410,  0.027767593018401 ]
    mass: 118.710000
    reduced_to: 37
  - symbol: Sn # 41
    coordinates: [  0.469738459204988,  0.046912725079176,  0.027901327707298 ]
    mass: 118.710000
    reduced_to: 41
  - symbol: Sn # 42
    coordinates: [  0.969738459204988,  0.046912725079176,  0.027901327707298 ]
    mass: 118.710000
    reduced_to: 41
  - symbol: Sn # 43
    coordinates: [  0.469738459204988,  0.546912725079176,  0.027901327707298 ]
    mass: 118.710000
    reduced_to: 41
  - symbol: Sn # 44
    coordinates: [  0.969738459204988,  0.546912725079176,  0.027901327707298 ]
    mass: 118.710000
    reduced_to: 41
  - symbol: Sn # 45
    coordinates: [  0.184297635716886,  0.333564421998888,  0.169849643537200 ]
    mass: 118.710000
    reduced_to: 45
  - symbol: Sn # 46
    coordinates: [  0.684297635716886,  0.333564421998888,  0.169849643537200 ]
    mass: 118.710000
    reduced_to: 45
  - symbol: Sn # 47
    coordinates: [  0.184297635716886,  0.833564421998888,  0.169849643537200 ]
    mass: 118.710000
    reduced_to: 45
  - symbol: Sn # 48
    coordinates: [  0.684297635716886,  0.833564421998888,  0.169849643537200 ]
    mass: 118.710000
    reduced_to: 45
  - symbol: Sn # 49
    coordinates: [  0.112350032036448,  0.154922838806699,  0.455715388428171 ]
    mass: 118.710000
    reduced_to: 49
  - symbol: Sn # 50
    coordinates: [  0.612350032036448,  0.154922838806699,  0.455715388428171 ]
    mass: 118.710000
    reduced_to: 49
  - symbol: Sn # 51
    coordinates: [  0.112350032036448,  0.654922838806699,  0.455715388428171 ]
    mass: 118.710000
    reduced_to: 49
  - symbol: Sn # 52
    coordinates: [  0.612350032036448,  0.654922838806699,  0.455715388428171 ]
    mass: 118.710000
    reduced_to: 49
  - symbol: Sn # 53
    coordinates: [  0.255639441327662,  0.262571263771417,  0.884231164530552 ]
    mass: 118.710000
    reduced_to: 53
  - symbol: Sn # 54
    coordinates: [  0.755639441327662,  0.262571263771417,  0.884231164530552 ]
    mass: 118.710000
    reduced_to: 53
  - symbol: Sn # 55
    coordinates: [  0.255639441327662,  0.762571263771417,  0.884231164530552 ]
    mass: 118.710000
    reduced_to: 53
  - symbol: Sn # 56
    coordinates: [  0.755639441327662,  0.762571263771417,  0.884231164530552 ]
    mass: 118.710000
    reduced_to: 53

displacements:
- atom:    1
  displacement:
    [   0.0100000000000000,  0.0000000000000000,  0.0000000000000000 ]
  forces:
  - [  -0.0082603106275201, -0.0072790938429534,  0.0098023880273104 ]
  - [   0.0026461968664080, -0.0074655432254076,  0.0113023333251476 ]
  - [   0.0016795387491584, -0.0073872772045434,  0.0113335475325584 ]
  - [   0.0016053938306868, -0.0073626404628158,  0.0113158086314797 ]
  - [   0.0005743678193539, -0.0076751736924052,  0.0178925618529320 ]
  - [   0.0008956019883044, -0.0072181010618806,  0.0179797764867544 ]
  - [   0.0006842683651485, -0.0073784478008747,  0.0178397223353386 ]
  - [   0.0012755499919876, -0.0092480629682541,  0.0188547968864441 ]
  - [  -0.0065447348169982,  0.0108362901955843, -0.0170856639742851 ]
  - [  -0.0062520373612642,  0.0102009139955044, -0.0169657524675131 ]
  - [  -0.0065188328735530,  0.0109077841043472, -0.0170650612562895 ]
  - [  -0.0062473397701979,  0.0101979067549109, -0.0169697031378746 ]
  - [  -0.0065260007977486,  0.0103696696460247, -0.0094174062833190 ]
  - [  -0.0055745597928762,  0.0107699660584331, -0.0092265252023935 ]
  - [  -0.0057987738400698,  0.0108763864263892, -0.0093682762235403 ]
  - [  -0.0057830824516714,  0.0106190238147974, -0.0092523470520973 ]
  - [   0.0040183765813708,  0.0022744149900973,  0.0063221761956811 ]
  - [   0.0055905985645950,  0.0037529920227826,  0.0082129649817944 ]
  - [   0.0030803140252829,  0.0025781106669456,  0.0068924045190215 ]
  - [   0.0030196816660464,  0.0024670208804309,  0.0068117557093501 ]
  - [  -0.0045287972316146, -0.0003143878420815, -0.0053424187935889 ]
  - [  -0.0044173523783684, -0.0003482768079266, -0.0054546492174268 ]
  - [  -0.0043766601011157, -0.0002141887089238, -0.0053352070972323 ]
  - [  -0.0043394509702921, -0.0004980888916180, -0.0057140095159411 ]
  - [   0.0046480088494718,  0.0019035513978451,  0.0135816587135196 ]
  - [   0.0047028744593263,  0.0020165019668639,  0.0136584788560867 ]
  - [   0.0073261084035039,  0.0032141902484000,  0.0150435678660870 ]
  - [   0.0057165729813278,  0.0016889169346541,  0.0130858384072781 ]
  - [  -0.0007357145659626, -0.0110794212669134,  0.0023640827275813 ]
  - [  -0.0006998210446909, -0.0110980086028576,  0.0022604926489294 ]
  - [  -0.0005560808931477, -0.0110075678676367,  0.0020927097648382 ]
  - [  -0.0007497810292989, -0.0111740147694945,  0.0027523150201887 ]
  - [   0.0002938836114481, -0.0008692563860677,  0.0003873682871927 ]
  - [   0.0002596755221020, -0.0005812243907712,  0.0007815659046173 ]
  - [   0.0002201889874414, -0.0007195456419140,  0.0006574839353561 ]
  - [   0.0001041775685735, -0.0006812356878072,  0.0007687850156799 ]
  - [  -0.0006443865131587, -0.0059760902076960, -0.0112758409231901 ]
  - [  -0.0008162399753928, -0.0049838828854263, -0.0125912595540285 ]
  - [  -0.0010205139406025, -0.0057438057847321, -0.0115080866962671 ]
  - [  -0.0009337239898741, -0.0057581136934459, -0.0114457318559289 ]
  - [  -0.0020594447851181,  0.0084198759868741, -0.0076506417244673 ]
  - [  -0.0020660338923335,  0.0086563685908914, -0.0077568846754730 ]
  - [  -0.0018355983775109,  0.0085621755570173, -0.0076092816889286 ]
  - [  -0.0027882033027709,  0.0081769796088338, -0.0077829179354012 ]
  - [   0.0027131033129990,  0.0019727584440261, -0.0014846349367872 ]
  - [   0.0029323855414987,  0.0021223698277026, -0.0021193777211010 ]
  - [   0.0027887003961951,  0.0020362450741231, -0.0019547534175217 ]
  - [   0.0027519487775862,  0.0020555490627885, -0.0018434012308717 ]
  - [   0.0068153748288751,  0.0010579025838524,  0.0004839308676310 ]
  - [   0.0067331064492464,  0.0010711100185290,  0.0004297804553062 ]
  - [   0.0069800619967282,  0.0019052866846323, -0.0007986139971763 ]
  - [   0.0071008810773492,  0.0008459246018901,  0.0006537786684930 ]
  - [   0.0011834705946967, -0.0061955824494362,  0.0005641570314765 ]
  - [   0.0004135644121561, -0.0044611440971494, -0.0003865216858685 ]
  - [   0.0008218123693950, -0.0041907294653356, -0.0003204957465641 ]
  - [   0.0004976867930964, -0.0046472828835249, -0.0004007539828308 ]
- atom:    1
  displacement:
    [  -0.0100000000000000,  0.0000000000000000,  0.0000000000000000 ]
  forces:
  - [   0.0115109588950872, -0.0076400702819228,  0.0128343747928739 ]
  - [   0.0006009861244820, -0.0074512227438390,  0.0113390907645226 ]
  - [   0.0015641774516553, -0.0075292778201401,  0.0113067729398608 ]
  - [   0.0016400804743171, -0.0075553907081485,  0.0113235209137201 ]
  - [   0.0009081851458177, -0.0073590241372585,  0.0180279873311520 ]
  - [   0.0006059815641493, -0.0078537277877331,  0.0179297551512718 ]
  - [   0.0006794423679821, -0.0077733183279634,  0.0181161947548389 ]
  - [   0.0002067558816634, -0.0057763196527958,  0.0170307066291571 ]
  - [  -0.0065072150900960,  0.0101091274991632, -0.0169298462569714 ]
  - [  -0.0068017314188182,  0.0107533298432827, -0.0170489884912968 ]
  - [  -0.0065338048152626,  0.0100549841299653, -0.0169488824903965 ]
  - [  -0.0068071973510087,  0.0107598155736923, -0.0170452855527401 ]
  - [  -0.0052909897640347,  0.0110960947349668, -0.0091842748224735 ]
  - [  -0.0062482194043696,  0.0106907943263650, -0.0093816556036472 ]
  - [  -0.0060214456170797,  0.0105906259268522, -0.0092355366796255 ]
  - [  -0.0060356436297297,  0.0108490679413080, -0.0093509238213301 ]
  - [   0.0022881550248712,  0.0028876424767077,  0.0074095223098993 ]
  - [   0.0005493268836290,  0.0013834706041962,  0.0054843295365572 ]
  - [   0.0031713338103145,  0.0026044654659927,  0.0068662799894810 ]
  - [   0.0032305167987943,  0.0027148686349392,  0.0069480016827583 ]
  - [  -0.0042191091924906, -0.0003275787457824, -0.0056132446043193 ]
  - [  -0.0043277493678033, -0.0002938151592389, -0.0055009825155139 ]
  - [  -0.0043693548068404, -0.0004289350472391, -0.0056193475611508 ]
  - [  -0.0044051012955606, -0.0001445867819712, -0.0052401963621378 ]
  - [   0.0048503852449358,  0.0021491472143680,  0.0137103460729122 ]
  - [   0.0047969305887818,  0.0020345498342067,  0.0136329568922520 ]
  - [   0.0022849929518998,  0.0008856882341206,  0.0123111344873905 ]
  - [   0.0037228874862194,  0.0023842607624829,  0.0142367156222463 ]
  - [  -0.0007742317393422, -0.0111506069079041,  0.0023674033582211 ]
  - [  -0.0008074997458607, -0.0111329639330506,  0.0024730684235692 ]
  - [  -0.0009538826998323, -0.0112195676192641,  0.0026372605934739 ]
  - [  -0.0007599443197250, -0.0110549125820398,  0.0019740276038647 ]
  - [   0.0002336152247153, -0.0005169443902560,  0.0008736604359001 ]
  - [   0.0002685246872716, -0.0008046909933910,  0.0004789265221916 ]
  - [   0.0003073619445786, -0.0006652495358139,  0.0006053797551431 ]
  - [   0.0004249577177688, -0.0007041538483463,  0.0004941730294377 ]
  - [  -0.0012822722783312, -0.0055755935609341, -0.0117907011881471 ]
  - [  -0.0011130418861285, -0.0065780235454440, -0.0104562286287546 ]
  - [  -0.0009070212254301, -0.0058072125539184, -0.0115585085004568 ]
  - [  -0.0009935833513737, -0.0057934466749430, -0.0116207543760538 ]
  - [  -0.0022882812190801,  0.0086150281131268, -0.0077316295355558 ]
  - [  -0.0022821277379990,  0.0083795897662640, -0.0076260445639491 ]
  - [  -0.0025073674041778,  0.0084775388240814, -0.0077709695324302 ]
  - [  -0.0015602426137775,  0.0088595319539309, -0.0076015191152692 ]
  - [   0.0027560407761484,  0.0020624699536711, -0.0021945175249130 ]
  - [   0.0025338809937239,  0.0019112059380859, -0.0015661474317312 ]
  - [   0.0026768536772579,  0.0019992878660560, -0.0017341133207083 ]
  - [   0.0027131759561598,  0.0019788183271885, -0.0018432387150824 ]
  - [   0.0067572165280581,  0.0010268606711179,  0.0003198247577529 ]
  - [   0.0068396949209273,  0.0010124397231266,  0.0003748277958948 ]
  - [   0.0065918168984354,  0.0001939955400303,  0.0015794457867742 ]
  - [   0.0064714280888438,  0.0012410555500537,  0.0001497755292803 ]
  - [   0.0001749111106619, -0.0028659505769610, -0.0012280612718314 ]
  - [   0.0010588746517897, -0.0044751018285751, -0.0003465879708529 ]
  - [   0.0005183453904465, -0.0048245154321194, -0.0003677457279991 ]
  - [   0.0008592542726547, -0.0044035520404577, -0.0002995310933329 ]
- atom:    1
  displacement:
    [   0.0029048264832496,  0.0095688025950070,  0.0000000000000000 ]
  forces:
  - [  -0.0010765169281512, -0.0163976345211267,  0.0112483259290457 ]
  - [   0.0019138471689075, -0.0074905143119395,  0.0111425742506981 ]
  - [   0.0017065724823624, -0.0071757179684937,  0.0113230682909489 ]
  - [   0.0017100435215980, -0.0075397808104753,  0.0113188493996859 ]
  - [   0.0005240684840828, -0.0074290144257247,  0.0180561244487762 ]
  - [   0.0010899057378992, -0.0072919917292893,  0.0180956013500690 ]
  - [   0.0008872423204593, -0.0076348879374564,  0.0178791806101799 ]
  - [  -0.0007750742370263, -0.0064935246482491,  0.0172637179493904 ]
  - [  -0.0062036784365773,  0.0115783568471670, -0.0170289557427168 ]
  - [  -0.0067162052728236,  0.0105384727939963, -0.0169198960065842 ]
  - [  -0.0060949558392167,  0.0118829030543566, -0.0169785842299461 ]
  - [  -0.0067118722945452,  0.0105382772162557, -0.0169188901782036 ]
  - [  -0.0064163235947490,  0.0114862928166986, -0.0075454232282937 ]
  - [  -0.0057722395285964,  0.0108118019998074, -0.0092408992350101 ]
  - [  -0.0057399692013860,  0.0110324872657657, -0.0095716798678041 ]
  - [  -0.0059844097122550,  0.0108858719468117, -0.0093651087954640 ]
  - [   0.0030781442765146,  0.0025015922728926,  0.0068827755749226 ]
  - [   0.0049647036939859,  0.0025990596041083,  0.0075741121545434 ]
  - [   0.0031010457314551,  0.0024724071845412,  0.0068809138610959 ]
  - [   0.0029787144158036,  0.0029933918267488,  0.0067376485094428 ]
  - [  -0.0044113644398749, -0.0001036117319018, -0.0057108406908810 ]
  - [  -0.0044100191444159, -0.0003381278365850, -0.0054249707609415 ]
  - [  -0.0042696548625827, -0.0003276273491792, -0.0052465167827904 ]
  - [  -0.0045288647525012, -0.0002417142968625, -0.0054292776621878 ]
  - [   0.0046006040647626,  0.0024226165842265,  0.0135112609714270 ]
  - [   0.0047271689400077,  0.0019084258237854,  0.0136434994637966 ]
  - [   0.0066253216937184,  0.0020245576743037,  0.0143377073109150 ]
  - [   0.0047003403306007,  0.0019272158388048,  0.0136517081409693 ]
  - [  -0.0007148985750973, -0.0111471228301525,  0.0023204789031297 ]
  - [  -0.0007221066625789, -0.0110955843701959,  0.0022499104961753 ]
  - [  -0.0005952961510047, -0.0111407097429037,  0.0023087491281331 ]
  - [  -0.0008072458440438, -0.0112059284001589,  0.0024827611632645 ]
  - [   0.0001025371020660, -0.0006081908941269,  0.0006774032372050 ]
  - [   0.0003713810583577, -0.0006953422562219,  0.0008759669144638 ]
  - [   0.0002234881394543, -0.0007135423948057,  0.0006861274014227 ]
  - [   0.0002273936697748, -0.0004686334868893,  0.0003944304771721 ]
  - [  -0.0010586166754365, -0.0059852781705558, -0.0115229580551386 ]
  - [  -0.0001712894882075, -0.0055015366524458, -0.0132052451372147 ]
  - [  -0.0009492418612354, -0.0058417683467269, -0.0115436390042305 ]
  - [  -0.0009408025071025, -0.0054251309484243, -0.0112471617758274 ]
  - [  -0.0022342361044139,  0.0086518879979849, -0.0077481013722718 ]
  - [  -0.0020081864204258,  0.0088118473067880, -0.0079602105543017 ]
  - [  -0.0020357156172395,  0.0085979197174311, -0.0076284422539175 ]
  - [  -0.0026956708170474,  0.0092139262706041, -0.0059929634444416 ]
  - [   0.0026819538325071,  0.0019265548326075, -0.0017325446242467 ]
  - [   0.0028930967673659,  0.0019896079320461, -0.0018995262216777 ]
  - [   0.0027693500742316,  0.0020418302156031, -0.0019667958840728 ]
  - [   0.0027727116830647,  0.0019838041625917, -0.0018878970295191 ]
  - [   0.0068114898167551,  0.0013860701583326,  0.0006750951288268 ]
  - [   0.0068000778555870,  0.0009748968295753,  0.0003929987433366 ]
  - [   0.0076817166991532,  0.0013781322631985, -0.0014870010782033 ]
  - [   0.0066868024878204,  0.0008319044718519,  0.0004119970835745 ]
  - [  -0.0007527457200922, -0.0035652248188853, -0.0009688512654975 ]
  - [   0.0006251896265894, -0.0047123925760388, -0.0003532976843417 ]
  - [   0.0010234657675028, -0.0042581749148667, -0.0002042044943664 ]
  - [   0.0005188266513869, -0.0045634061098099, -0.0002931089838967 ]
- atom:    1
  displacement:
    [  -0.0029048264832496, -0.0095688025950070,  0.0000000000000000 ]
  forces:
  - [   0.0043203192763031,  0.0014765311498195,  0.0113999638706446 ]
  - [   0.0013334595132619, -0.0074262814596295,  0.0114988833665848 ]
  - [   0.0015371998306364, -0.0077406885102391,  0.0113172410055995 ]
  - [   0.0015354799106717, -0.0073780165985227,  0.0113202789798379 ]
  - [   0.0009266386623494, -0.0075372727587819,  0.0178862325847149 ]
  - [   0.0004090172005817, -0.0077793602831662,  0.0178130716085434 ]
  - [   0.0005151506629772, -0.0074955332092941,  0.0180640388280153 ]
  - [   0.0022389341611415, -0.0085504092276096,  0.0186251718550920 ]
  - [  -0.0068725356832147,  0.0092940367758274, -0.0169854946434498 ]
  - [  -0.0063388370908797,  0.0104172192513943, -0.0170960165560246 ]
  - [  -0.0069310283288360,  0.0091597586870193, -0.0170337855815887 ]
  - [  -0.0063412077724934,  0.0104175508022308, -0.0170949622988701 ]
  - [  -0.0053909928537905,  0.0099594378843904, -0.0111025460064411 ]
  - [  -0.0060473801568151,  0.0106512783095241, -0.0093642929568887 ]
  - [  -0.0060789454728365,  0.0104362927377224, -0.0090348580852151 ]
  - [  -0.0058343717828393,  0.0105820111930370, -0.0092380810528994 ]
  - [   0.0031725591979921,  0.0026797230821103,  0.0068769985809922 ]
  - [   0.0012414557859302,  0.0025826133787632,  0.0061645964160562 ]
  - [   0.0031509895343333,  0.0027100292500108,  0.0068779317662120 ]
  - [   0.0032698120921850,  0.0021909852512181,  0.0070209549739957 ]
  - [  -0.0043359743431211, -0.0005379341309890, -0.0052455915138125 ]
  - [  -0.0043351007625461, -0.0003042268799618, -0.0055304197594523 ]
  - [  -0.0044755963608623, -0.0003168139955960, -0.0057099373079836 ]
  - [  -0.0042164153419435, -0.0004027219838463, -0.0055264253169298 ]
  - [   0.0048994719982147,  0.0016276523238048,  0.0137815941125154 ]
  - [   0.0047728167846799,  0.0021428044419736,  0.0136480163782835 ]
  - [   0.0029157176613808,  0.0020302718039602,  0.0129735907539725 ]
  - [   0.0047990945167840,  0.0021252476144582,  0.0136402677744627 ]
  - [  -0.0007951813749969, -0.0110828736796975,  0.0024109613150358 ]
  - [  -0.0007858905009925, -0.0111359544098377,  0.0024845255538821 ]
  - [  -0.0009155607549474, -0.0110880881547928,  0.0024229264818132 ]
  - [  -0.0006994632421993, -0.0110224848613143,  0.0022539505735040 ]
  - [   0.0004252205835655, -0.0007761454908177,  0.0005854030605406 ]
  - [   0.0001556003699079, -0.0006894880207255,  0.0003873529785778 ]
  - [   0.0003041426534764, -0.0006715350318700,  0.0005768010159954 ]
  - [   0.0003008235653397, -0.0009171824203804,  0.0008694238495082 ]
  - [  -0.0008672678377479, -0.0055659115314484, -0.0115433409810066 ]
  - [  -0.0017735401634127, -0.0060585178434849, -0.0098199183121324 ]
  - [  -0.0009779088431969, -0.0057092402130365, -0.0115229208022356 ]
  - [  -0.0009865788742900, -0.0061235926114023, -0.0118163516744971 ]
  - [  -0.0021133346017450,  0.0083833727985620, -0.0076343328692019 ]
  - [  -0.0023414643947035,  0.0082224998623133, -0.0074201319366693 ]
  - [  -0.0023101894184947,  0.0084399469196796, -0.0077545158565044 ]
  - [  -0.0016611517639831,  0.0078408131375909, -0.0093480590730906 ]
  - [   0.0027830295730382,  0.0021084104664624, -0.0019591653253883 ]
  - [   0.0025740466080606,  0.0020452758762985, -0.0017881360836327 ]
  - [   0.0026974021457136,  0.0019943909719586, -0.0017229886725545 ]
  - [   0.0026927022263408,  0.0020507941953838, -0.0017987773753703 ]
  - [   0.0067617297172546,  0.0006957955192775,  0.0001258262927877 ]
  - [   0.0067722098901868,  0.0011084772413597,  0.0004112633760087 ]
  - [   0.0059073786251247,  0.0007193543715402,  0.0022430771496147 ]
  - [   0.0068850368261337,  0.0012544047785923,  0.0003915338311344 ]
  - [   0.0021269624121487, -0.0054764812812209,  0.0002996545808855 ]
  - [   0.0008113687508740, -0.0042458772659302, -0.0003676004707813 ]
  - [   0.0003195319441147, -0.0047568767331541, -0.0004831248079427 ]
  - [   0.0008706079097465, -0.0045574698597193, -0.0004297540581319 ]
- atom:    1
  displacement:
    [   0.0013060425281164,  0.0031627879740845,  0.0093963304085019 ]
  forces:
  - [  -0.0010383845074102, -0.0100466310977936, -0.0010586793068796 ]
  - [   0.0017378185875714, -0.0076391007751226,  0.0110949724912643 ]
  - [   0.0016645002178848, -0.0073632812127471,  0.0113668385893106 ]
  - [   0.0016471471171826, -0.0074819400906563,  0.0113345272839069 ]
  - [   0.0005973438383080, -0.0073875510133803,  0.0177513677626848 ]
  - [   0.0008911254117265, -0.0073110633529723,  0.0180165786296129 ]
  - [   0.0006958798039705, -0.0075957132503390,  0.0176848731935024 ]