# Thermal properties / unit cell (natom)

unit:
  temperature:   K
  free_energy:   kJ/mol
  entropy:       J/K/mol
  heat_capacity: J/K/mol

natom: 4    
cutoff_frequency: 0.00000
num_modes: 138720
num_integrated_modes: 138603

zero_point_energy:      10.5712668

thermal_properties:
- temperature:         0.0000000
  free_energy:        10.5712668
  entropy:             0.0000000
  heat_capacity:       0.0000000
  energy:             10.5712668

- temperature:        10.0000000
  free_energy:        10.5667513
  entropy:             1.5803208
  heat_capacity:       4.1594441
  energy:             10.5825545

- temperature:        20.0000000
  free_energy:        10.5205022
  entropy:             8.4272454
  heat_capacity:      17.3885289
  energy:             10.6890471

- temperature:        30.0000000
  free_energy:        10.3905441
  entropy:            17.6839064
  heat_capacity:      28.3799691
  energy:             10.9210613

- temperature:        40.0000000
  free_energy:        10.1668494
  entropy:            26.9904674
  heat_capacity:      36.3473217
  energy:             11.2464681

- temperature:        50.0000000
  free_energy:         9.8523706
  entropy:            35.8200733
  heat_capacity:      42.8892796
  energy:             11.6433742

- temperature:        60.0000000
  free_energy:         9.4520527
  entropy:            44.1695298
  heat_capacity:      48.8024796
  energy:             12.1022245

- temperature:        70.0000000
  free_energy:         8.9703439
  entropy:            52.1088829
  heat_capacity:      54.2724283
  energy:             12.6179657

- temperature:        80.0000000
  free_energy:         8.4110726
  entropy:            59.6882085
  heat_capacity:      59.2791155
  energy:             13.1861293

- temperature:        90.0000000
  free_energy:         7.7776857
  entropy:            66.9353732
  heat_capacity:      63.7833911
  energy:             13.8018693

- temperature:       100.0000000
  free_energy:         7.0734174
  entropy:            73.8667425
  heat_capacity:      67.7770842
  energy:             14.4600916

- temperature:       110.0000000
  free_energy:         6.3013622
  entropy:            80.4947262
  heat_capacity:      71.2827027
  energy:             15.1557820

- temperature:       120.0000000
  free_energy:         5.4644942
  entropy:            86.8313448
  heat_capacity:      74.3415308
  energy:             15.8842556

- temperature:       130.0000000
  free_energy:         4.5656639
  entropy:            92.8894131
  heat_capacity:      77.0028493
  energy:             16.6412876

- temperature:       140.0000000
  free_energy:         3.6075889
  entropy:            98.6826163
  heat_capacity:      79.3168422
  energy:             17.4231552

- temperature:       150.0000000
  free_energy:         2.5928470
  entropy:           104.2251830
  heat_capacity:      81.3306833
  energy:             18.2266245

- temperature:       160.0000000
  free_energy:         1.5238727
  entropy:           109.5314840
  heat_capacity:      83.0867519
  energy:             19.0489102

- temperature:       170.0000000
  free_energy:         0.4029576
  entropy:           114.6156868
  heat_capacity:      84.6221060
  energy:             19.8876244

- temperature:       180.0000000
  free_energy:        -0.7677464
  entropy:           119.4914989
  heat_capacity:      85.9686251
  energy:             20.7407234

- temperature:       190.0000000
  free_energy:        -1.9862214
  entropy:           124.1719990
  heat_capacity:      87.1534697
  energy:             21.6064584

- temperature:       200.0000000
  free_energy:        -3.2505766
  entropy:           128.6695380
  heat_capacity:      88.1996554
  energy:             22.4833310

- temperature:       210.0000000
  free_energy:        -4.5590410
  entropy:           132.9956927
  heat_capacity:      89.1266358
  energy:             23.3700545

- temperature:       220.0000000
  free_energy:        -5.9099553
  entropy:           137.1612575
  heat_capacity:      89.9508438
  energy:             24.2655214

- temperature:       230.0000000
  free_energy:        -7.3017643
  entropy:           141.1762594
  heat_capacity:      90.6861709
  energy:             25.1687753

- temperature:       240.0000000
  free_energy:        -8.7330096
  entropy:           145.0499899
  heat_capacity:      91.3443790
  energy:             26.0789879

- temperature:       250.0000000
  free_energy:       -10.2023220
  entropy:           148.7910450
  heat_capacity:      91.9354495
  energy:             26.9954393

- temperature:       260.0000000
  free_energy:       -11.7084148
  entropy:           152.4073708
  heat_capacity:      92.4678750
  energy:             27.9175016

- temperature:       270.0000000
  free_energy:       -13.2500781
  entropy:           155.9063101
  heat_capacity:      92.9489029
  energy:             28.8446256

- temperature:       280.0000000
  free_energy:       -14.8261724
  entropy:           159.2946483
  heat_capacity:      93.3847368
  energy:             29.7763291

- temperature:       290.0000000
  free_energy:       -16.4356234
  entropy:           162.5786583
  heat_capacity:      93.7807039
  energy:             30.7121875

- temperature:       300.0000000
  free_energy:       -18.0774172
  entropy:           165.7641429
  heat_capacity:      94.1413937
  energy:             31.6518257

- temperature:       310.0000000
  free_energy:       -19.7505958
  entropy:           168.8564737
  heat_capacity:      94.4707724
  energy:             32.5949111

- temperature:       320.0000000
  free_energy:       -21.4542528
  entropy:           171.8606283
  heat_capacity:      94.7722790
  energy:             33.5411482

- temperature:       330.0000000
  free_energy:       -23.1875299
  entropy:           174.7812231
  heat_capacity:      95.0489045
  energy:             34.4902738

- temperature:       340.0000000
  free_energy:       -24.9496131
  entropy:           177.6225447
  heat_capacity:      95.3032582
  energy:             35.4420521

- temperature:       350.0000000
  free_energy:       -26.7397298
  entropy:           180.3885775
  heat_capacity:      95.5376235
  energy:             36.3962723

- temperature:       360.0000000
  free_energy:       -28.5571460
  entropy:           183.0830297
  heat_capacity:      95.7540040
  energy:             37.3527447

- temperature:       370.0000000
  free_energy:       -30.4011634
  entropy:           185.7093560
  heat_capacity:      95.9541633
  energy:             38.3112984

- temperature:       380.0000000
  free_energy:       -32.2711168
  entropy:           188.2707787
  heat_capacity:      96.1396576
  energy:             39.2717791

- temperature:       390.0000000
  free_energy:       -34.1663726
  entropy:           190.7703074
  heat_capacity:      96.3118640
  energy:             40.2340472

- temperature:       400.0000000
  free_energy:       -36.0863261
  entropy:           193.2107555
  heat_capacity:      96.4720039
  energy:             41.1979762

- temperature:       410.0000000
  free_energy:       -38.0303996
  entropy:           195.5947569
  heat_capacity:      96.6211640
  energy:             42.1634507

- temperature:       420.0000000
  free_energy:       -39.9980413
  entropy:           197.9247794
  heat_capacity:      96.7603126
  energy:             43.1303661

- temperature:       430.0000000
  free_energy:       -41.9887230
  entropy:           200.2031384
  heat_capacity:      96.8903152
  energy:             44.0986265

- temperature:       440.0000000
  free_energy:       -44.0019391
  entropy:           202.4320082
  heat_capacity:      97.0119470
  energy:             45.0681445

- temperature:       450.0000000
  free_energy:       -46.0372050
  entropy:           204.6134331
  heat_capacity:      97.1259034
  energy:             46.0388399

- temperature:       460.0000000
  free_energy:       -48.0940560
  entropy:           206.7493372
  heat_capacity:      97.2328102
  energy:             47.0106391

- temperature:       470.0000000
  free_energy:       -50.1720461
  entropy:           208.8415331
  heat_capacity:      97.3332311
  energy:             47.9834744

- temperature:       480.0000000
  free_energy:       -52.2707467
  entropy:           210.8917302
  heat_capacity:      97.4276755
  energy:             48.9572838

- temperature:       490.0000000
  free_energy:       -54.3897461
  entropy:           212.9015422
  heat_capacity:      97.5166039
  energy:             49.9320096

- temperature:       500.0000000
  free_energy:       -56.5286480
  entropy:           214.8724938
  heat_capacity:      97.6004338
  energy:             50.9075988

- temperature:       510.0000000
  free_energy:       -58.6870712
  entropy:           216.8060270
  heat_capacity:      97.6795444
  energy:             51.8840025

- temperature:       520.0000000
  free_energy:       -60.8646484
  entropy:           218.7035069
  heat_capacity:      97.7542804
  energy:             52.8611752

- temperature:       530.0000000
  free_energy:       -63.0610255
  entropy:           220.5662267
  heat_capacity:      97.8249561
  energy:             53.8390746

- temperature:       540.0000000
  free_energy:       -65.2758612
  entropy:           222.3954127
  heat_capacity:      97.8918580
  energy:             54.8176617

- temperature:       550.0000000
  free_energy:       -67.5088259
  entropy:           224.1922290
  heat_capacity:      97.9552483
  energy:             55.7969001

- temperature:       560.0000000
  free_energy:       -69.7596015
  entropy:           225.9577809
  heat_capacity:      98.0153666
  energy:             56.7767558

- temperature:       570.0000000
  free_energy:       -72.0278808
  entropy:           227.6931193
  heat_capacity:      98.0724329
  energy:             57.7571972

- temperature:       580.0000000
  free_energy:       -74.3133666
  entropy:           229.3992439
  heat_capacity:      98.1266489
  energy:             58.7381949

- temperature:       590.0000000
  free_energy:       -76.6157715
  entropy:           231.0771064
  heat_capacity:      98.1782001
  energy:             59.7197213

- temperature:       600.0000000
  free_energy:       -78.9348175
  entropy:           232.7276135
  heat_capacity:      98.2272574
  energy:             60.7017506

- temperature:       610.0000000
  free_energy:       -81.2702354
  entropy:           234.3516297
  heat_capacity:      98.2739780
  energy:             61.6842587

- temperature:       620.0000000
  free_energy:       -83.6217645
  entropy:           235.9499797
  heat_capacity:      98.3185072
  energy:             62.6672229

- temperature:       630.0000000
  free_energy:       -85.9891521
  entropy:           237.5234509
  heat_capacity:      98.3609792
  energy:             63.6506220

- temperature:       640.0000000
  free_energy:       -88.3721531
  entropy:           239.0727956
  heat_capacity:      98.4015180
  energy:             64.6344360

- temperature:       650.0000000
  free_energy:       -90.7705300
  entropy:           240.5987327
  heat_capacity:      98.4402387
  energy:             65.6186463

- temperature:       660.0000000
  free_energy:       -93.1840521
  entropy:           242.1019502
  heat_capacity:      98.4772479
  energy:             66.6032351

- temperature:       670.0000000
  free_energy:       -95.6124955
  entropy:           243.5831065
  heat_capacity:      98.5126443
  energy:             67.5881858

- temperature:       680.0000000
  free_energy:       -98.0556428
  entropy:           245.0428319
  heat_capacity:      98.5465200
  energy:             68.5734829

- temperature:       690.0000000
  free_energy:      -100.5132827
  entropy:           246.4817307
  heat_capacity:      98.5789605
  energy:             69.5591115

- temperature:       700.0000000
  free_energy:      -102.9852099
  entropy:           247.9003821
  heat_capacity:      98.6100453
  energy:             70.5450576

- temperature:       710.0000000
  free_energy:      -105.4712247
  entropy:           249.2993420
  heat_capacity:      98.6398485
  energy:             71.5313081

- temperature:       720.0000000
  free_energy:      -107.9711329
  entropy:           250.6791436
  heat_capacity:      98.6684394
  energy:             72.5178505

- temperature:       730.0000000
  free_energy:      -110.4847454
  entropy:           252.0402993
  heat_capacity:      98.6958827
  energy:             73.5046731

- temperature:       740.0000000
  free_energy:      -113.0118784
  entropy:           253.3833012
  heat_capacity:      98.7222385
  energy:             74.4917645

- temperature:       750.0000000
  free_energy:      -115.5523525
  entropy:           254.7086225
  heat_capacity:      98.7475635
  energy:             75.4791144

- temperature:       760.0000000
  free_energy:      -118.1059934
  entropy:           256.0167183
  heat_capacity:      98.7719105
  energy:             76.4667126

- temperature:       770.0000000
  free_energy:      -120.6726309
  entropy:           257.3080265
  heat_capacity:      98.7953290
  energy:             77.4545495

- temperature:       780.0000000
  free_energy:      -123.2520994
  entropy:           258.5829687
  heat_capacity:      98.8178655
  energy:             78.4426162

- temperature:       790.0000000
  free_energy:      -125.8442371
  entropy:           259.8419508
  heat_capacity:      98.8395636
  energy:             79.4309040

- temperature:       800.0000000
  free_energy:      -128.4488865
  entropy:           261.0853641
  heat_capacity:      98.8604641
  energy:             80.4194048

- temperature:       810.0000000
  free_energy:      -131.0658937
  entropy:           262.3135858
  heat_capacity:      98.8806056
  energy:             81.4081108

- temperature:       820.0000000
  free_energy:      -133.6951088
  entropy:           263.5269796
  heat_capacity:      98.9000243
  energy:             82.3970145

- temperature:       830.0000000
  free_energy:      -136.3363851
  entropy:           264.7258964
  heat_capacity:      98.9187543
  energy:             83.3861090

- temperature:       840.0000000
  free_energy:      -138.9895796
  entropy:           265.9106750
  heat_capacity:      98.9368275
  energy:             84.3753874

- temperature:       850.0000000
  free_energy:      -141.6545525
  entropy:           267.0816423
  heat_capacity:      98.9542744
  energy:             85.3648434

- temperature:       860.0000000
  free_energy:      -144.3311674
  entropy:           268.2391144
  heat_capacity:      98.9711234
  energy:             86.3544709

- temperature:       870.0000000
  free_energy:      -147.0192909
  entropy:           269.3833964
  heat_capacity:      98.9874014
  energy:             87.3442640

- temperature:       880.0000000
  free_energy:      -149.7187924
  entropy:           270.5147835
  heat_capacity:      99.0031339
  energy:             88.3342171

- temperature:       890.0000000
  free_energy:      -152.4295445
  entropy:           271.6335612
  heat_capacity:      99.0183449
  energy:             89.3243249

- temperature:       900.0000000
  free_energy:      -155.1514225
  entropy:           272.7400054
  heat_capacity:      99.0330572
  energy:             90.3145824

- temperature:       910.0000000
  free_energy:      -157.8843044
  entropy:           273.8343834
  heat_capacity:      99.0472922
  energy:             91.3049845

- temperature:       920.0000000
  free_energy:      -160.6280708
  entropy:           274.9169538
  heat_capacity:      99.0610704
  energy:             92.2955267

- temperature:       930.0000000
  free_energy:      -163.3826049
  entropy:           275.9879671
  heat_capacity:      99.0744110
  energy:             93.2862044

- temperature:       940.0000000
  free_energy:      -166.1477924
  entropy:           277.0476659
  heat_capacity:      99.0873323
  energy:             94.2770135

- temperature:       950.0000000
  free_energy:      -168.9235213
  entropy:           278.0962853
  heat_capacity:      99.0998516
  energy:             95.2679497

- temperature:       960.0000000
  free_energy:      -171.7096820
  entropy:           279.1340534
  heat_capacity:      99.1119855
  energy:             96.2590092

- temperature:       970.0000000
  free_energy:      -174.5061670
  entropy:           280.1611909
  heat_capacity:      99.1237495
  energy:             97.2501882

- temperature:       980.0000000
  free_energy:      -177.3128711
  entropy:           281.1779124
  heat_capacity:      99.1351586
  energy:             98.2414831

- temperature:       990.0000000
  free_energy:      -180.1296912
  entropy:           282.1844257
  heat_capacity:      99.1462267
  energy:             99.2328903

- temperature:      1000.0000000
  free_energy:      -182.9565262
  entropy:           283.1809327
  heat_capacity:      99.1569673
  energy:            100.2244065
