4
Lattice="4.044150689943298 -3.259713138295198e-06 2.334590351517831 1.348687202535821 3.813328331850235 2.3343428419399492 1.4260317400378169e-05 1.451082061460123e-05 4.669269890155897" Properties=species:S:1:pos:R:3:forces:R:3 structure_index=0 total_energy=-12.011002540588379 stress="0.10048196464776993 0.0005656210705637932 -0.0005724573857150972 0.0005655965069308877 0.10682456940412521 -0.0006142869242466986 -0.0005727147217839956 -0.0006143390783108771 0.09984933584928513" pbc="T T T"
Li       3.28669487       0.12372746       4.99846195       0.00030003      -0.00040442      -0.00047568
Li       1.93897928       2.03105267       2.66379701       0.00027749      -0.00140631      -0.00063071
Ga       0.59113140       1.07743414       4.99781612      -0.00033176      -0.00015741       0.00060193
Sn       3.28734168       2.98293738       4.99797499      -0.00024578       0.00196815       0.00050446
12
Lattice="4.1058375318802245 -0.004968915640564819 1.1758004231075094 1.1644244969689852 6.9004064825667015 3.7105743179326094 -0.06215102590101454 0.04383853173621105 7.968254002297528" Properties=species:S:1:pos:R:3:forces:R:3 structure_index=1 total_energy=-35.94320297241211 stress="-0.014341828413307667 -0.001899553695693612 -0.005497691221535206 -0.0018995233112946153 -0.0035403112415224314 0.0018453989177942276 -0.005497693084180355 0.00184549146797508 -0.003838295815512538" pbc="T T T"
Li       2.40022261       3.34315641       9.49016665       0.00166359      -0.01236898      -0.00540849
Li       2.62683416       0.44731582       8.68569806       0.00479399      -0.00203730      -0.01377012
Li       3.39807075       1.27535176       6.00331207      -0.00207104       0.00868289       0.00632246
Li       3.25201185       4.04494147       6.52191471      -0.00301569       0.01424095       0.01067310
Li       4.19833118       1.78233312       3.20768402       0.00476597       0.01160727      -0.01418251
Li       4.74370998       5.25998117       9.07992190      -0.00696483      -0.00563308       0.01838095
Ga       1.46070599       5.68407100       5.02325523       0.00505008       0.00700765      -0.01678899
Ga       4.00168671       4.40744105       3.90807151      -0.00533193      -0.00494803       0.01697594
Ga       1.64555580       2.96909228       4.37235062      -0.00455759      -0.01159381       0.01537558
Sn       2.20260523       6.30751554      10.19068516       0.00340393      -0.01238440      -0.01100609
Sn       0.84465438       2.41232282       7.16354176      -0.00008236      -0.00551496       0.00099466
Sn       1.89082486       0.08329183       3.50593415       0.00234588       0.01294180      -0.00756650
20
Lattice="6.976160837386329 -0.09083742500521079 -1.8130687891027017 -3.5244714631575746 6.1169266715010675 -1.703805804233061 -0.08987761114999658 0.059839206214832116 8.726206720560281" Properties=species:S:1:pos:R:3:forces:R:3 structure_index=2 total_energy=-58.616676330566406 stress="-0.017293443903326988 0.004093253519386053 0.007035952992737293 0.004093161318451166 -0.0083859171718359 -0.0017888101283460855 0.007035893853753805 -0.0017888554139062762 -0.01042670477181673" pbc="T T T"
Li       1.76911634       1.53534679       3.31837354       0.01798514      -0.00750924       0.00794360
Li       2.63571567       3.64959376       5.50312016       0.00151208       0.00772254       0.00643232
Li       6.54232483       0.47012262       6.36931494       0.00587109      -0.00048590      -0.00943841
Li       4.12211076       2.31460280      -1.09218309       0.00083376       0.01650326       0.00602566
Li       5.16399388       1.85027044       1.58665801       0.01270454       0.01422042      -0.00365988
Li       6.54600724       0.11114771       3.29389632      -0.01642196      -0.00114003       0.00410385
Li      -1.56527140       4.87772822       2.33750746       0.01425323       0.00736268       0.01150525
Li       0.41345672       5.51182569       6.03426924      -0.00040264       0.01289551      -0.02294802
Li      -1.46269116       4.22438969      -0.87959685      -0.00215719       0.01049145      -0.00899857
Li       2.75665459       3.52304388       1.12691848       0.01506260       0.00341264      -0.00654552
Ga      -0.06908583       2.77210121       5.51833455      -0.03428484       0.00562097      -0.00733044
Ga      -0.01429469       2.63609513       1.28281316      -0.01337376      -0.01886567       0.00464099
Ga       1.87325862       0.96282267       6.40493421      -0.01368402      -0.01634164       0.01135739
Ga       0.52184656       5.54689417       0.45163966       0.01633468      -0.00117439      -0.00483330
Ga       1.21677280       3.19442625      -0.97248080       0.00200076       0.00635060      -0.00969161
Ga       2.30411007       0.96848625       0.56747902       0.01152657      -0.01532021      -0.00116061
Sn       1.14469597       4.34694971       3.29184802      -0.01192394       0.00270938       0.01280635
Sn      -2.54656150       4.38892998       5.09017645      -0.00875598      -0.01599548       0.00233668
Sn       3.19233030       5.51929395      -1.18954778       0.01133566       0.01568474      -0.01425530
Sn       4.26169066       1.32231189       4.81492618      -0.00841581      -0.02614162       0.02170958
9
Lattice="4.3878742269385675 0.006106225679329448 1.3726606745305703 2.1808705383109683 5.225382836220584 0.7109249781366901 -0.013685647521125742 0.47187371775083226 7.735218188162639" Properties=species:S:1:pos:R:3:forces:R:3 structure_index=3 total_energy=-27.646621704101562 stress="-0.03828216344118118 -0.0025069881230592728 -0.016164280474185944 -0.002507021650671959 -0.014247634448111057 0.011138545349240303 -0.016164159402251244 0.011138591915369034 0.0058328318409621716" pbc="T T T"
Li       1.46259043       1.91869677       3.12677663       0.00089179       0.00635611      -0.00182319
Li       2.21100305       0.08855453       0.74324350      -0.00130401      -0.00528368       0.00336646
Li       5.11354784       3.85695561       6.84738229       0.00032371      -0.00095363      -0.00114851
Ga       0.59369807       0.86760784       5.90730529      -0.00293909      -0.00574392       0.00987191
Ga       4.29981983       1.93258699       1.75930664      -0.00411089       0.00400823       0.01362630
Ga       3.06519469       1.61087142       5.70370377       0.00392883       0.01063619      -0.01355311
Ga       5.94194098       5.31006989       4.19667942       0.00304354      -0.00834201      -0.01122566
Sn       3.53283760       3.95122089       4.20273450      -0.00025741      -0.02456863       0.00155773
Sn       2.30735193       3.75382608       8.11532437       0.00042352       0.02389135      -0.00067194
8
Lattice="4.302780894032609 0.0005009420697222692 -1.4527008211900696 -0.4904541386128976 4.276505949898667 -1.4522486890077473 0.04493978674151039 0.04897711524465298 7.238832787409298" Properties=species:S:1:pos:R:3:forces:R:3 structure_index=4 total_energy=-22.10591697692871 stress="-0.02674553543329239 -0.004059321712702513 -0.0017694109119474888 -0.0040593273006379604 -0.011214764788746834 -0.004458347801119089 -0.0017696003196761012 -0.004458357114344835 -0.006720374803990126" pbc="T T T"
Li       1.58453639       4.20439348      -1.77747518       0.00056194       0.00061266       0.00101958
Li       2.34109348       2.63879601       0.46338385       0.00455377       0.00413173       0.01236592
Li       1.36512366       1.54366225       4.67464691      -0.00522034      -0.00450002      -0.01308869
Li       0.43390668       0.50100319       1.91587198       0.00473906       0.00495195       0.01224325
Li       3.27120123       3.68112989       3.22154247      -0.00404398      -0.00463729      -0.01172787
Ga       0.64330763       3.14835687       2.53327173      -0.01009864      -0.01197673      -0.02822481
Ga       3.06261159       1.03431270       2.60488241       0.00980475       0.01136999       0.02747639
Sn       3.98196607       2.06689487      -1.77692562      -0.00029658       0.00004772      -0.00006376
4
Lattice="4.314514503699287 0.0005664458613910237 -0.005977603453942614 -0.0028009269410585102 4.313099991952073 -0.0033979670227187323 0.0011928668889515809 0.00040023154274034266 4.3131304948932705" Properties=species:S:1:pos:R:3:forces:R:3 structure_index=5 total_energy=-12.532661437988281 stress="-0.011027124710381031 -0.00531010190024972 -0.011205608956515789 -0.005310085602104664 0.0963110700249672 -0.004640537779778242 -0.01120558101683855 -0.004640604835003614 0.09641198813915253" pbc="T T T"
Li       3.43275082       1.91692816       0.82944363       0.00087436       0.00005883       0.00028573
Ga       1.27753554       1.91680648       2.98955440       0.00000139       0.00009898      -0.00052931
Ga       1.27591822       4.07345685       0.83075148      -0.00059720      -0.00026980       0.00038498
Sn       3.43371642       4.07358769       2.98439735      -0.00027855       0.00011199      -0.00014140
18
Lattice="6.701305110531943 -0.015651699002966188 -1.526369749382594 -2.250459094616789 6.706460716584389 -3.2407894285757286 -0.021901559532590445 0.04050210108470328 6.39189739012742" Properties=species:S:1:pos:R:3:forces:R:3 structure_index=6 total_energy=-48.73789596557617 stress="0.013377302326261997 -0.0006280089146457613 0.0034178418572992086 -0.0006279291701503098 -0.010328088887035847 -0.006120570003986359 0.0034177983179688454 -0.0061203292571008205 -0.00563501100987196" pbc="T T T"
Li       4.37962147       4.11778798       0.60600970       0.00016225      -0.00736951      -0.00286625
Li       4.45779599       6.25669616      -4.12938877      -0.01515659      -0.01497054      -0.01790414
Li       2.13726604       6.33573495      -2.58548044       0.00998057       0.00779597       0.02274637
Li      -0.12084725       1.76860896      -0.92687337       0.00817825      -0.00486484       0.00352681
Li       2.21616042       4.15508140      -0.90613228      -0.00100470      -0.01157327      -0.00930807
Li       4.41932481       1.90491993       2.23637072       0.00424154       0.02594746       0.01429696
Li       4.40000807       4.11067261      -2.48262335      -0.00192765      -0.00457282      -0.00459351
Li      -0.06408560       4.07069593       0.61437995       0.00126636      -0.00054394      -0.00387304
Li       2.11729546       1.95304747       3.90464585       0.00938707       0.02202973       0.01147442
Li      -0.00135635       1.79887809       2.15489954      -0.00247331      -0.02219679       0.00173480
Li      -0.06304761       6.38846852       2.11033761      -0.00189422       0.00456893       0.01658605
Ga       2.22046702       1.85442359       0.62992526       0.00852492       0.00241445       0.01185245
Ga       2.20074744       6.39459745       0.64666959      -0.00635401      -0.00390827      -0.03717553
Ga       2.23150592       4.10809111       2.14844778      -0.00384118       0.01421811      -0.00828501
Ga       4.37676213       6.34441991      -0.95975965       0.00293259      -0.00805821       0.00770207
Ga      -0.06107103       6.44341485      -0.88143117      -0.01833154       0.00753601      -0.00745337
Ga       4.36541294       1.83326125      -0.92025717       0.01276417      -0.01225184      -0.00907279
Sn      -0.04799771       4.12295063       3.80356933      -0.00645451       0.00579935       0.01061179
10
Lattice="4.319054121775367 0.0010904684751758388 0.00015872525832431902 -0.0012626698811936826 4.2260431228345725 -0.8905277268867834 0.000554028869520257 -0.04509098060411399 10.249538830226196" Properties=species:S:1:pos:R:3:forces:R:3 structure_index=7 total_energy=-29.268674850463867 stress="-0.0319657064974308 -0.0004975582123734057 -0.00016698241233825684 -0.0004975495394319296 0.023387551307678223 -0.005877197254449129 -0.00016684929141774774 -0.005877142306417227 -0.0070822290144860744" pbc="T T T"
Li       2.11125568       1.04386259       8.67730871      -0.00016935       0.00075681      -0.00003664
Li       4.26827179       4.02929070       1.89591890       0.00060831      -0.00135620      -0.00491606
Li       2.10978499       1.89556519       2.24811472       0.00007300      -0.00440649      -0.02114326
Li       4.26984909       2.35941380       4.44447116      -0.00008779      -0.00176157      -0.00682590
Li       2.10990882       3.58660894      -0.19873100      -0.00037742      -0.00035457      -0.00110711
Ga       2.11116254       2.76525939       6.37791520      -0.00054259       0.00779825       0.03323532
Ga       4.27035152       0.62881608       6.70479705       0.00032527       0.00366045       0.01814724
Ga       4.27043915       3.15141149       8.19761270      -0.00013511      -0.00186975      -0.00651033
Sn       2.11066067       0.20967173       4.72101962      -0.00017451      -0.00500684      -0.02489273
Sn       4.26957250       1.49920416       0.36378238       0.00048018       0.00253991       0.01404946
12
Lattice="5.616242741760744 0.006196378500226422 -0.05062106067404588 -2.74420536119309 4.903556000998518 0.05689949005154478 -0.0014732546509588003 0.011556219093932165 9.090510173956318" Properties=species:S:1:pos:R:3:forces:R:3 structure_index=8 total_energy=-37.58164978027344 stress="-0.009489414282143116 0.00424985820427537 0.008335957303643227 0.004249839577823877 0.001996687613427639 -0.003722395747900009 0.008335973136126995 -0.0037223240360617638 0.0010770797962322831" pbc="T T T"
Li       2.52438093       4.02698069       1.83894995      -0.00966742       0.00311963      -0.02030052
Li      -0.20257482       2.33791402       6.54234267       0.00891254      -0.00364416       0.01681663
Ga       1.11856919       1.56042603       3.79207750       0.00105709      -0.00127437      -0.04521748
Ga      -1.64947657       3.18680195       8.75731728      -0.00007613       0.00024396      -0.00064185
Ga       3.89518936       1.47772944       1.78509249       0.00027039       0.01265425       0.01002565
Ga      -0.20193021       4.07413605       1.83428474      -0.00643939      -0.00756253       0.00651097
Ga      -1.56809269       4.88823096       6.58426561      -0.00004450      -0.01295816      -0.00848366
Ga       2.52273103       2.29300734       6.53640034       0.00853170       0.00718805      -0.00424371
Ga       1.20044266       4.80635264       4.57791260      -0.00116709       0.00064016       0.04715777
Sn      -1.64653655       3.17816955       4.21243258       0.00125280      -0.00058862      -0.00028596
Sn       1.05579657       1.58890285       0.45024861       0.00255408       0.00117400      -0.00688002
Sn       1.27173765       4.77429838       7.92497984      -0.00518408       0.00100779       0.00554214
4
Lattice="4.276879157017073 0.00011467305251120058 -0.001065785040802851 -0.0010757264479619919 4.27680042934284 0.0007069568944664457 0.00020325192721921533 -0.00013424239710322093 4.369719732363305" Properties=species:S:1:pos:R:3:forces:R:3 structure_index=9 total_energy=-12.532781600952148 stress="-0.0270684827119112 -0.0014119386905804276 -0.002074514515697956 -0.0014119002735242248 -0.02728545106947422 0.001370093086734414 -0.0020744255743920803 0.0013700767885893583 0.06383665651082993" pbc="T T T"
Li       0.08438958       0.33633203       1.98301996      -0.00028863      -0.00017444       0.00017665
Ga       0.08367274       2.47505520       4.16860003      -0.00002648       0.00033487      -0.00049455
Ga       2.22268802       0.33749267       4.16766862       0.00006777      -0.00205771      -0.00042353
Sn       2.22197797       2.47444746       1.98283914       0.00024734       0.00189728       0.00074144
6
Lattice="4.37331461442307 -0.0005633147524667756 -0.0025164516025884616 0.0007047294729699248 4.618988847868554 -0.0013486407398555166 0.0010214908518126748 0.002812527797667043 6.5941968967225515" Properties=species:S:1:pos:R:3:forces:R:3 structure_index=10 total_energy=-19.168405532836914 stress="0.049705568701028824 0.00029274096596054733 4.2585063056321815e-05 0.00029287312645465136 -0.0006170476553961635 0.00014498144446406513 4.2589403165038675e-05 0.00014497472147922963 -0.027780970558524132" pbc="T T T"
Li       3.42750130       3.40114871       4.97242807      -0.00071535      -0.00329483       0.00488153
Li       3.42123578       1.08976805       3.07576546       0.00421475       0.00045217      -0.01728488
Ga       1.24459370       3.39450995       3.16119889      -0.01110517       0.00434030       0.02691405
Ga       3.42144819       1.09230992       6.57408028       0.00833726      -0.00071264       0.01997328
Sn       3.42989859       3.40004276       1.48043685       0.00134891      -0.00612862      -0.00698348
Sn       1.23678476       1.08621819       4.90138234      -0.00208039       0.00534360      -0.02750052
8
Lattice="4.770360352968015 -0.0006497469684404884 0.0009977050964605123 0.0025797360255605793 5.07370076795491 -2.9237271619436354 -0.0006881744912127925 0.0026455803467679375 5.855305891711322" Properties=species:S:1:pos:R:3:forces:R:3 structure_index=11 total_energy=-20.603858947753906 stress="0.03553619608283043 0.0017974809743463993 0.0015267846174538136 0.001797445467673242 0.05435250326991081 -0.0036467486061155796 0.0015266871778294444 -0.0036468077450990677 0.04712054878473282" pbc="T T T"
Li       3.42004535       3.24689811       2.15067109      -0.00127860       0.02387064      -0.04013138
Li       3.41754942       0.61148308       3.66896503       0.00044006      -0.04661800      -0.00047292
Li       1.03533955       4.12772168      -2.18674617      -0.00069281       0.03205523      -0.00287081
Li       1.03471012       1.49008091      -0.66991152      -0.00204480      -0.01656253       0.03014275
Li       1.03460626       1.48970831       2.14366701      -0.00155423      -0.01324721      -0.02954080
Li       3.41894865       3.24527086      -0.66210106       0.00067762       0.02390967       0.03778743
Ga       3.41728501       0.67686605       0.74206366       0.00204919      -0.00186418       0.00197674
Sn       1.03374985       4.06164008       0.73823369       0.00240357      -0.00154362       0.00310899
10
Lattice="3.1936530101906513 -0.00012601264855146893 -0.00016654413841968185 0.00043798311459518417 8.140342730963441 -0.0030047496679776226 0.00033951704233329286 0.0029472532912206417 8.190176687084808" Properties=species:S:1:pos:R:3:forces:R:3 structure_index=12 total_energy=-31.38222885131836 stress="-0.02452227659523487 0.0002815822372213006 -0.00025816369452513754 0.0002815899788402021 -0.02767186053097248 -0.0011266206856817007 -0.0002582735614851117 -0.0011265777284279466 -0.026555027812719345" pbc="T T T"
Li       2.55427975       1.23769260       5.93992899       0.00023258       0.01381680      -0.02068551
Li       2.55493718       5.31233291       7.26913367      -0.00006989       0.01499353       0.02008557
Li       2.55486434       3.99538987       3.17911994      -0.00013113      -0.01464333       0.02104358
Li       2.55482805       8.06018310       1.84677052      -0.00005788      -0.01567748      -0.02038546
Ga       0.95760704       2.61418757       0.46561787       0.00000402       0.00019966      -0.00089993
Ga       0.95769022       6.68548426       4.55709234       0.00013823       0.00066759       0.00050290
Sn       0.95765478       1.54488167       3.48734838       0.00001431      -0.01921100      -0.01392444
Sn       0.95790333       3.68765123       5.63136528      -0.00003883       0.01901483       0.01518007
Sn       0.95793479       7.76015394       7.58255713       0.00025644       0.02314225      -0.01436898
Sn       0.95812037       5.61214747       1.53316041      -0.00034788      -0.02230285       0.01345219
9
Lattice="4.573618118906154 0.0018037351226787828 -0.0017666274473725726 -2.2887748611066514 6.318649215845697 -2.0064791592181255 0.0034626496317164994 -0.07258536565804224 7.261768389135257" Properties=species:S:1:pos:R:3:forces:R:3 structure_index=13 total_energy=-30.738697052001953 stress="0.002509249607101083 0.0010426767403259873 0.0015546943759545684 0.0010426954831928015 0.005228591151535511 0.011138224974274635 0.0015546947252005339 0.011138235218822956 0.010464553721249104" pbc="T T T"
Li       3.66119608       0.57186576       2.63403653       0.00009852       0.00683974       0.03218325
Li      -0.91609676       6.18307968      -1.75630114       0.00022108      -0.01143450      -0.04088859
Ga       3.65885172       1.97016433      -0.13054559       0.00011101       0.01607360       0.00086370
Ga       1.37348580       1.31719715       4.89615415       0.00077880       0.00100731      -0.01375719
Sn       1.37271642       2.46031161       1.91643692       0.00054864       0.01566519       0.01567779
Sn       1.37282720       5.65420088       3.44196948       0.00047778      -0.02155656      -0.01169921
Sn       1.37294496       4.13909937      -0.93087527      -0.00032871       0.00866448      -0.00636178
Sn      -0.91302205       3.29198739       4.13101123       0.00007333       0.00335545       0.02062591
Sn      -0.91175971       4.92481620       1.17037461      -0.00198045      -0.01861469       0.00335612
8
Lattice="4.2429248895648515 0.0004201234415305652 -0.0024019720006918355 -0.0012980220890607657 4.243492690965479 -0.0029113362916151206 0.0006003689307515139 0.0007031708693985782 8.64186343570868" Properties=species:S:1:pos:R:3:forces:R:3 structure_index=14 total_energy=-24.50164031982422 stress="-0.010766325518488884 -0.0012925057671964169 -0.0010677383979782462 -0.0012924637412652373 -0.010259459726512432 -0.001282267621718347 -0.0010677457321435213 -0.0012822584249079227 0.05117378011345863" pbc="T T T"
Li       0.61868974       2.85547855       7.25662053      -0.00041560      -0.00000410       0.00020065
Ga       0.61895997       0.73258116       0.59317011      -0.00038713       0.00071937      -0.00245844
Ga       2.73998164       0.73432081       7.25120553       0.00046647      -0.00068278       0.00837701
Ga       0.61788201       0.73366690       5.28127943       0.00009129      -0.00078929      -0.00218603
Ga       2.73847090       0.73355001       2.93313335       0.00187257      -0.00084813       0.00031348
Ga       2.73945891       2.85460059       5.27861016      -0.00014879       0.00091710      -0.00213287
Ga       2.73945206       2.85567918       0.59008421       0.00030871      -0.00016753      -0.00205436
Sn       0.61782584       2.85442257       2.93737581      -0.00178751       0.00085536      -0.00005944
10
Lattice="3.403817724450897 0.0006602596835370164 0.00039810708698288604 -0.0006392809587812724 3.403738386512895 8.746842245582389e-05 -0.0015986567747841298 -0.0002393519458541124 16.990820872282768" Properties=species:S:1:pos:R:3:forces:R:3 structure_index=15 total_energy=-31.54570770263672 stress="0.03514273837208748 5.890376996831037e-05 1.8957774955197237e-05 5.888659507036209e-05 0.034931644797325134 1.8753871700027958e-05 1.883687400550116e-05 1.8709906726144254e-05 -0.033713631331920624" pbc="T T T"
Li       2.81677382       2.18518478      16.20520747      -0.00021424       0.00049265       0.04745436
Li       2.81766277       2.18565625       2.70967936      -0.00041421      -0.00098119       0.00571010
Li       2.81740855       2.18621857      13.37301164       0.00011957       0.00027705      -0.04927515
Li       2.81641486       2.18383005       6.29619346       0.00026576       0.00021329       0.00172318
Li       2.81679537       2.18392244       9.87950615       0.00048486       0.00126140      -0.00306624
Ga       1.11546619       0.48412295      14.78575847       0.00003934      -0.00080656       0.00532718
Sn       1.11514237       0.48157023       4.51359280       0.00030057       0.00096754      -0.00513299
Sn       1.11608617       0.48310171       0.91305025       0.00039579       0.00031104       0.01797650
Sn       1.11630307       0.48405739      11.67508582      -0.00078573      -0.00108166      -0.01942145
Sn       1.11519649       0.48231187       8.08136350      -0.00019171      -0.00065356      -0.00129550
14
Lattice="5.364184408182882 0.01522890296601109 -1.597810372319576 -0.9295587234070796 5.158991995952171 -1.2271308695951326 -0.19039573101768587 0.23139835790189361 9.827280424786535" Properties=species:S:1:pos:R:3:forces:R:3 structure_index=16 total_energy=-41.870460510253906 stress="0.014487868174910545 -0.0013108841376379132 0.000654470466542989 -0.0013109458377584815 0.01570282131433487 -0.0015888478374108672 0.0006544091156683862 -0.001588704064488411 0.014048741199076176" pbc="T T T"
Li       4.41406262       1.37790659       0.93644693      -0.01174100      -0.01138203       0.01433867
Li       2.36835148       3.49521319       5.84464997       0.00779870       0.01051559      -0.00579546
Li       4.40203619       3.80325340      -1.71522400      -0.00764347       0.00750586      -0.00984207
Li       1.16620070       0.59981447       5.63765804       0.00104734       0.00427385      -0.00593085
Li       3.83520870       0.38873440       4.78178898      -0.00407978       0.01617294      -0.00644479
Li       1.44935444       1.97307945       0.46630219      -0.01640390      -0.00262753       0.01535396
Ga       0.36331507       2.43685468       7.72711720       0.00957263       0.01201201       0.00541058
Ga       1.48624298       3.02866088       3.25583849       0.02647451      -0.03563113       0.02665454
Ga       1.79965523       4.38916141      -1.08905202      -0.00166439       0.00989001      -0.00227794
Ga      -0.50039827       5.03514029       7.11385279      -0.00828181       0.00692980      -0.00579236
Ga       3.69512075       4.06780314       1.00447138      -0.01616918      -0.00944771      -0.00346397
Sn       4.57734015       2.97999972       3.53993361       0.02100771       0.01957974      -0.00785505
Sn       3.40175652       1.22803911       7.78773094       0.00552346      -0.00257661      -0.00349041
Sn       1.79232024       0.15114290       2.70412581      -0.00544085      -0.02521478      -0.01086486
6
Lattice="4.511628407325084 0.0035667245846210237 -0.0006121222959774161 -2.2574908251322743 3.926012861129833 0.0004318949565957022 -0.0013761607409687416 0.0010677601586604754 7.383727543246446" Properties=species:S:1:pos:R:3:forces:R:3 structure_index=17 total_energy=-19.262104034423828 stress="0.030368980020284653 0.0038172504864633083 -0.0009144796640612185 0.0038171533960849047 0.04142140969634056 0.0007654463406652212 -0.0009145087096840143 0.0007655740482732654 0.022581947967410088" pbc="T T T"
Li       1.10782079       3.41872085       1.56991279      -0.00135178       0.00691431      -0.04846399
Li       1.10751162       3.46311399       5.26125738      -0.00043882      -0.00622376      -0.04793640
Ga      -1.14766516       2.13486977       4.13127129      -0.00099244       0.00388399       0.02916466
Ga       1.10693932       0.81796914       0.44043963       0.00198383      -0.00416834       0.02318130
Sn      -1.15104120       2.13316792       6.95335704       0.00170209      -0.00690205       0.02311066
Sn       1.10893082       0.82069997       3.26164608      -0.00090290       0.00649584       0.02094377
6
Lattice="3.3132670645086035 8.974113905458881e-05 -0.0003359405164833708 -0.0001600991829226436 3.3132306964825142 -0.00025390117131288413 0.0010913045996143833 -0.00010908380489416895 10.359964714836577" Properties=species:S:1:pos:R:3:forces:R:3 structure_index=18 total_energy=-18.485435485839844 stress="-0.050154224038124084 -0.00021479793940670788 -0.0007774473051540554 -0.0002148406783817336 -0.05025754123926163 3.92723704862874e-05 -0.000777437468059361 3.9388483855873346e-05 0.05772830918431282" pbc="T T T"
Li       3.06844513       1.49532280       8.80410073      -0.00020053       0.00049953       0.00501504
Li       3.06814305       1.49545454       2.14768154      -0.00021983       0.00011332      -0.00162399
Li       3.06799017       1.49552708       5.84934497       0.00064046      -0.00044388      -0.00702686
Ga       1.41178291       3.15193202       7.32560306      -0.00036669       0.00010120       0.00128810
Sn       1.41018789       3.15298328       0.21360234       0.00073445      -0.00084716       0.01257428
Sn       1.41198165       3.15138007       4.07855875      -0.00058786       0.00057698      -0.01022659
4
Lattice="4.1506991787821415 0.00010359932274911283 2.3979236560004327 1.3813153251861514 3.9122903460146947 2.3955192233522387 0.0004117699907611614 8.980366623430137e-06 4.7933897536520975" Properties=species:S:1:pos:R:3:forces:R:3 structure_index=19 total_energy=-11.844215393066406 stress="-0.0021764161065220833 0.0004782525065820664 -0.004233636427670717 0.0004780628078151494 -0.01873687468469143 0.0015126134967431426 -0.004233746323734522 0.0015125985955819488 -0.014125796966254711" pbc="T T T"
Li       2.83407028       1.94488580       3.58898750       0.00039030      -0.00025513      -0.00105859
Li       1.45146379       0.96682703       5.98380990       0.00005312      -0.00032882       0.00099804
Ga       4.21796703       2.92244035       5.98546072      -0.00164615       0.00136906      -0.00157772
Sn       1.44968006       3.90088190       5.98305735       0.00120273      -0.00078513       0.00163827
12
Lattice="4.2840816520367655 -0.00010311312276586631 -1.2749376898584672 -0.8369576617156108 5.816312621239786 -2.8113016659478345 -0.015555579841400928 0.10627751055123703 7.785893587722789" Properties=species:S:1:pos:R:3:forces:R:3 structure_index=20 total_energy=-33.855140686035156 stress="-0.01989569701254368 -0.008766437880694866 0.00026850239373743534 -0.008766491897404194 0.01704859547317028 -0.024542002007365227 0.0002683434868231416 -0.02454211376607418 -0.019471673294901848" pbc="T T T"
Li       1.69883407       1.70144526       3.05541801      -0.00070520      -0.00251021      -0.00413635
Li       2.87745049       3.64029962      -0.82048614       0.00250115       0.00650306       0.00497371