# Thermal properties / unit cell (natom)

unit:
  temperature:   K
  free_energy:   kJ/mol
  entropy:       J/K/mol
  heat_capacity: J/K/mol

natom: 20   
cutoff_frequency: 0.00000
num_modes: 205920
num_integrated_modes: 205920

zero_point_energy:      82.6514260

thermal_properties:
- temperature:         0.0000000
  free_energy:        82.6514260
  entropy:             0.0000000
  heat_capacity:       0.0000000
  energy:             82.6514260

- temperature:        10.0000000
  free_energy:        82.6493013
  entropy:             0.5987462
  heat_capacity:       1.8018262
  energy:             82.6552887

- temperature:        20.0000000
  free_energy:        82.6212488
  entropy:             6.5639807
  heat_capacity:      21.5172361
  energy:             82.7525284

- temperature:        30.0000000
  free_energy:        82.4886898
  entropy:            21.0364768
  heat_capacity:      51.9561386
  energy:             83.1197841

- temperature:        40.0000000
  free_energy:        82.1861243
  entropy:            39.9294942
  heat_capacity:      80.3105296
  energy:             83.7833041

- temperature:        50.0000000
  free_energy:        81.6839107
  entropy:            60.7310956
  heat_capacity:     106.9944405
  energy:             84.7204655

- temperature:        60.0000000
  free_energy:        80.9680859
  entropy:            82.5728442
  heat_capacity:     133.4170712
  energy:             85.9224565

- temperature:        70.0000000
  free_energy:        80.0300822
  entropy:           105.1293211
  heat_capacity:     159.9164709
  energy:             87.3891346

- temperature:        80.0000000
  free_energy:        78.8637776
  entropy:           128.2025839
  heat_capacity:     186.1693105
  energy:             89.1199843

- temperature:        90.0000000
  free_energy:        77.4649127
  entropy:           151.6111875
  heat_capacity:     211.6440141
  energy:             91.1099196

- temperature:       100.0000000
  free_energy:        75.8310342
  entropy:           175.1760809
  heat_capacity:     235.8572934
  energy:             93.3486423

- temperature:       110.0000000
  free_energy:        73.9614303
  entropy:           198.7299409
  heat_capacity:     258.4734588
  energy:             95.8217238

- temperature:       120.0000000
  free_energy:        71.8569617
  entropy:           222.1268044
  heat_capacity:     279.3139446
  energy:             98.5121782

- temperature:       130.0000000
  free_energy:        69.5198201
  entropy:           245.2468165
  heat_capacity:     298.3284640
  energy:            101.4019062

- temperature:       140.0000000
  free_energy:        66.9532621
  entropy:           267.9966160
  heat_capacity:     315.5570858
  energy:            104.4727884

- temperature:       150.0000000
  free_energy:        64.1613546
  entropy:           290.3070585
  heat_capacity:     331.0963233
  energy:            107.7074133

- temperature:       160.0000000
  free_energy:        61.1487487
  entropy:           312.1297319
  heat_capacity:     345.0732592
  energy:            111.0895058

- temperature:       170.0000000
  free_energy:        57.9204921
  entropy:           333.4332023
  heat_capacity:     357.6276001
  energy:            114.6041365

- temperature:       180.0000000
  free_energy:        54.4818764
  entropy:           354.1994965
  heat_capacity:     368.9001208
  energy:            118.2377858

- temperature:       190.0000000
  free_energy:        50.8383189
  entropy:           374.4210432
  heat_capacity:     379.0257618
  energy:            121.9783171

- temperature:       200.0000000
  free_energy:        46.9952711
  entropy:           394.0981311
  heat_capacity:     388.1298988
  energy:            125.8148973

- temperature:       210.0000000
  free_energy:        42.9581512
  entropy:           413.2368598
  heat_capacity:     396.3266719
  energy:            129.7378918

- temperature:       220.0000000
  free_energy:        38.7322944
  entropy:           431.8475215
  heat_capacity:     403.7185898
  energy:            133.7387491

- temperature:       230.0000000
  free_energy:        34.3229171
  entropy:           449.9433428
  heat_capacity:     410.3968795
  energy:            137.8098860

- temperature:       240.0000000
  free_energy:        29.7350932
  entropy:           467.5395202
  heat_capacity:     416.4422394
  energy:            141.9445780

- temperature:       250.0000000
  free_energy:        24.9737375
  entropy:           484.6524859
  heat_capacity:     421.9257791
  energy:            146.1368590

- temperature:       260.0000000
  free_energy:        20.0435971
  entropy:           501.2993576
  heat_capacity:     426.9100159
  energy:            150.3814301

- temperature:       270.0000000
  free_energy:        14.9492460
  entropy:           517.4975285
  heat_capacity:     431.4498492
  energy:            154.6735787

- temperature:       280.0000000
  free_energy:         9.6950843
  entropy:           533.2643669
  heat_capacity:     435.5934744
  energy:            159.0091070

- temperature:       290.0000000
  free_energy:         4.2853393
  entropy:           548.6169994
  heat_capacity:     439.3832152
  energy:            163.3842692

- temperature:       300.0000000
  free_energy:        -1.2759308
  entropy:           563.5721568
  heat_capacity:     442.8562681
  energy:            167.7957162

- temperature:       310.0000000
  free_energy:        -6.9848330
  entropy:           578.1460693
  heat_capacity:     446.0453613
  energy:            172.2404484

- temperature:       320.0000000
  free_energy:       -12.8376337
  entropy:           592.3543971
  heat_capacity:     448.9793305
  energy:            176.7157734

- temperature:       330.0000000
  free_energy:       -18.8307526
  entropy:           606.2121890
  heat_capacity:     451.6836231
  energy:            181.2192698

- temperature:       340.0000000
  free_energy:       -24.9607571
  entropy:           619.7338608
  heat_capacity:     454.1807341
  energy:            185.7487555

- temperature:       350.0000000
  free_energy:       -31.2243554
  entropy:           632.9331883
  heat_capacity:     456.4905846
  energy:            190.3022605

- temperature:       360.0000000
  free_energy:       -37.6183903
  entropy:           645.8233124
  heat_capacity:     458.6308496
  energy:            194.8780022

- temperature:       370.0000000
  free_energy:       -44.1398328
  entropy:           658.4167501
  heat_capacity:     460.6172409
  energy:            199.4743648

- temperature:       380.0000000
  free_energy:       -50.7857761
  entropy:           670.7254131
  heat_capacity:     462.4637520
  energy:            204.0898809

- temperature:       390.0000000
  free_energy:       -57.5534296
  entropy:           682.7606280
  heat_capacity:     464.1828701
  energy:            208.7232153

- temperature:       400.0000000
  free_energy:       -64.4401131
  entropy:           694.5331602
  heat_capacity:     465.7857596
  energy:            213.3731510

- temperature:       410.0000000
  free_energy:       -71.4432513
  entropy:           706.0532387
  heat_capacity:     467.2824211
  energy:            218.0385765

- temperature:       420.0000000
  free_energy:       -78.5603688
  entropy:           717.3305813
  heat_capacity:     468.6818297
  energy:            222.7184753

- temperature:       430.0000000
  free_energy:       -85.7890847
  entropy:           728.3744200
  heat_capacity:     469.9920548
  energy:            227.4119159

- temperature:       440.0000000
  free_energy:       -93.1271082
  entropy:           739.1935264
  heat_capacity:     471.2203650
  energy:            232.1180435

- temperature:       450.0000000
  free_energy:      -100.5722339
  entropy:           749.7962357
  heat_capacity:     472.3733190
  energy:            236.8360721

- temperature:       460.0000000
  free_energy:      -108.1223380
  entropy:           760.1904706
  heat_capacity:     473.4568450
  energy:            241.5652785

- temperature:       470.0000000
  free_energy:      -115.7753736
  entropy:           770.3837641
  heat_capacity:     474.4763111
  energy:            246.3049955

- temperature:       480.0000000
  free_energy:      -123.5293674
  entropy:           780.3832809
  heat_capacity:     475.4365857
  energy:            251.0546074

- temperature:       490.0000000
  free_energy:      -131.3824160
  entropy:           790.1958383
  heat_capacity:     476.3420914
  energy:            255.8135447

- temperature:       500.0000000
  free_energy:      -139.3326826
  entropy:           799.8279256
  heat_capacity:     477.1968522
  energy:            260.5812802

- temperature:       510.0000000
  free_energy:      -147.3783936
  entropy:           809.2857226
  heat_capacity:     478.0045351
  energy:            265.3573249

- temperature:       520.0000000
  free_energy:      -155.5178358
  entropy:           818.5751171
  heat_capacity:     478.7684867
  energy:            270.1412251

- temperature:       530.0000000
  free_energy:      -163.7493533
  entropy:           827.7017216
  heat_capacity:     479.4917659
  energy:            274.9325591

- temperature:       540.0000000
  free_energy:      -172.0713454
  entropy:           836.6708883
  heat_capacity:     480.1771722
  energy:            279.7309342

- temperature:       550.0000000
  free_energy:      -180.4822634
  entropy:           845.4877241
  heat_capacity:     480.8272717
  energy:            284.5359849

- temperature:       560.0000000
  free_energy:      -188.9806084
  entropy:           854.1571040
  heat_capacity:     481.4444195
  energy:            289.3473698

- temperature:       570.0000000
  free_energy:      -197.5649295
  entropy:           862.6836844
  heat_capacity:     482.0307801
  energy:            294.1647706

- temperature:       580.0000000
  free_energy:      -206.2338210
  entropy:           871.0719146
  heat_capacity:     482.5883449
  energy:            298.9878895

- temperature:       590.0000000
  free_energy:      -214.9859208
  entropy:           879.3260483
  heat_capacity:     483.1189491
  energy:            303.8164477

- temperature:       600.0000000
  free_energy:      -223.8199085
  entropy:           887.4501546
  heat_capacity:     483.6242854
  energy:            308.6501842

- temperature:       610.0000000
  free_energy:      -232.7345035
  entropy:           895.4481276
  heat_capacity:     484.1059170
  energy:            313.4888544

- temperature:       620.0000000
  free_energy:      -241.7284631
  entropy:           903.3236959
  heat_capacity:     484.5652895
  energy:            318.3322284

- temperature:       630.0000000
  free_energy:      -250.8005813
  entropy:           911.0804313
  heat_capacity:     485.0037409
  energy:            323.1800905

- temperature:       640.0000000
  free_energy:      -259.9496870
  entropy:           918.7217573
  heat_capacity:     485.4225111
  energy:            328.0322376

- temperature:       650.0000000
  free_energy:      -269.1746427
  entropy:           926.2509563
  heat_capacity:     485.8227506
  energy:            332.8884789

- temperature:       660.0000000
  free_energy:      -278.4743429
  entropy:           933.6711778
  heat_capacity:     486.2055274
  energy:            337.7486344

- temperature:       670.0000000
  free_energy:      -287.8477131
  entropy:           940.9854443
  heat_capacity:     486.5718345
  energy:            342.6125346

- temperature:       680.0000000
  free_energy:      -297.2937083
  entropy:           948.1966582
  heat_capacity:     486.9225959
  energy:            347.4800193

- temperature:       690.0000000
  free_energy:      -306.8113120
  entropy:           955.3076081
  heat_capacity:     487.2586722
  energy:            352.3509376

- temperature:       700.0000000
  free_energy:      -316.3995352
  entropy:           962.3209738
  heat_capacity:     487.5808658
  energy:            357.2251465

- temperature:       710.0000000
  free_energy:      -326.0574148
  entropy:           969.2393323
  heat_capacity:     487.8899252
  energy:            362.1025111

- temperature:       720.0000000
  free_energy:      -335.7840134
  entropy:           976.0651624
  heat_capacity:     488.1865499
  energy:            366.9829035

- temperature:       730.0000000
  free_energy:      -345.5784176
  entropy:           982.8008499
  heat_capacity:     488.4713934
  energy:            371.8662028

- temperature:       740.0000000
  free_energy:      -355.4397376
  entropy:           989.4486916
  heat_capacity:     488.7450673
  energy:            376.7522942

- temperature:       750.0000000
  free_energy:      -365.3671060
  entropy:           996.0108998
  heat_capacity:     489.0081443
  energy:            381.6410689

- temperature:       760.0000000
  free_energy:      -375.3596773
  entropy:          1002.4896063
  heat_capacity:     489.2611611
  energy:            386.5324235

- temperature:       770.0000000
  free_energy:      -385.4166267
  entropy:          1008.8868661
  heat_capacity:     489.5046209
  energy:            391.4262602

- temperature:       780.0000000
  free_energy:      -395.5371497
  entropy:          1015.2046608
  heat_capacity:     489.7389963
  energy:            396.3224857

- temperature:       790.0000000
  free_energy:      -405.7204614
  entropy:          1021.4449022
  heat_capacity:     489.9647309
  energy:            401.2210113

- temperature:       800.0000000
  free_energy:      -415.9657954
  entropy:          1027.6094354
  heat_capacity:     490.1822420
  energy:            406.1217529

- temperature:       810.0000000
  free_energy:      -426.2724037
  entropy:          1033.7000417
  heat_capacity:     490.3919220
  energy:            411.0246301

- temperature:       820.0000000
  free_energy:      -436.6395556
  entropy:          1039.7184415
  heat_capacity:     490.5941404
  energy:            415.9295665

- temperature:       830.0000000
  free_energy:      -447.0665374
  entropy:          1045.6662970
  heat_capacity:     490.7892451
  energy:            420.8364892

- temperature:       840.0000000
  free_energy:      -457.5526517
  entropy:          1051.5452148
  heat_capacity:     490.9775642
  energy:            425.7453288

- temperature:       850.0000000
  free_energy:      -468.0972170
  entropy:          1057.3567481
  heat_capacity:     491.1594073
  energy:            430.6560189

- temperature:       860.0000000
  free_energy:      -478.6995671
  entropy:          1063.1023993
  heat_capacity:     491.3350663
  energy:            435.5684963

- temperature:       870.0000000
  free_energy:      -489.3590503
  entropy:          1068.7836216
  heat_capacity:     491.5048173
  energy:            440.4827005

- temperature:       880.0000000
  free_energy:      -500.0750294
  entropy:          1074.4018219
  heat_capacity:     491.6689210
  energy:            445.3985738

- temperature:       890.0000000
  free_energy:      -510.8468812
  entropy:          1079.9583619
  heat_capacity:     491.8276240
  energy:            450.3160609

- temperature:       900.0000000
  free_energy:      -521.6739955
  entropy:          1085.4545607
  heat_capacity:     491.9811597
  energy:            455.2351091

- temperature:       910.0000000
  free_energy:      -532.5557755
  entropy:          1090.8916958
  heat_capacity:     492.1297489
  energy:            460.1556676

- temperature:       920.0000000
  free_energy:      -543.4916367
  entropy:          1096.2710054
  heat_capacity:     492.2736011
  energy:            465.0776883

- temperature:       930.0000000
  free_energy:      -554.4810069
  entropy:          1101.5936897
  heat_capacity:     492.4129145
  energy:            470.0011245

- temperature:       940.0000000
  free_energy:      -565.5233256
  entropy:          1106.8609124
  heat_capacity:     492.5478774
  energy:            474.9259320

- temperature:       950.0000000
  free_energy:      -576.6180440
  entropy:          1112.0738023
  heat_capacity:     492.6786684
  energy:            479.8520682

- temperature:       960.0000000
  free_energy:      -587.7646242
  entropy:          1117.2334545
  heat_capacity:     492.8054569
  energy:            484.7794921

- temperature:       970.0000000
  free_energy:      -598.9625392
  entropy:          1122.3409317
  heat_capacity:     492.9284039
  energy:            489.7081645

- temperature:       980.0000000
  free_energy:      -610.2112724
  entropy:          1127.3972655
  heat_capacity:     493.0476626
  energy:            494.6380479

- temperature:       990.0000000
  free_energy:      -621.5103174
  entropy:          1132.4034579
  heat_capacity:     493.1633784
  energy:            499.5691060

- temperature:      1000.0000000
  free_energy:      -632.8591776
  entropy:          1137.3604817
  heat_capacity:     493.2756899
  energy:            504.5013041
