phonopy:
  version: "2.37.1"
  frequency_unit_conversion_factor: 15.633302
  symmetry_tolerance: 1.00000e-05

space_group:
  type: "P2/m"
  number: 10
  Hall_symbol: "-P 2y"

primitive_matrix:
- [ -0.000000000000000,  1.000000000000000,  0.000000000000000 ]
- [ -1.000000000000000,  0.000000000000000,  0.000000000000000 ]
- [  0.000000000000000,  0.000000000000000,  1.000000000000000 ]

supercell_matrix:
- [   3,   0,   0 ]
- [   0,   4,   0 ]
- [   0,   0,   2 ]

primitive_cell:
  lattice:
  - [    -0.000000022414276,    -3.094250796388061,     0.000000000000000 ] # a
  - [     4.674188079266354,     0.000000000000000,     0.000000000000000 ] # b
  - [     0.000000041085723,     0.934480307353090,     5.347838441668602 ] # c
  points:
  - symbol: Li # 1
    coordinates: [  0.038604777835021,  0.000000000072813,  0.012306287551556 ]
    mass: 6.940000
  - symbol: Li # 2
    coordinates: [  0.249999999682212,  0.500000000374982,  0.749999996876291 ]
    mass: 6.940000
  - symbol: Li # 3
    coordinates: [  0.461395221164613,  0.999999998361311,  0.487693710416167 ]
    mass: 6.940000
  - symbol: Sn # 4
    coordinates: [  0.750000001584301,  0.500000001137986,  0.250000004837114 ]
    mass: 118.710000
  reciprocal_lattice: # without 2pi
  - [     0.000000000000000,    -0.323180008927300,     0.056472415419215 ] # a*
  - [     0.213940899048495,    -0.000000001549755,    -0.000000001372835 ] # b*
  - [     0.000000000000000,    -0.000000000000000,     0.186991437925336 ] # c*

unit_cell:
  lattice:
  - [     4.674188079266354,     0.000000000000000,     0.000000000000000 ] # a
  - [     0.000000022414276,     3.094250796388061,     0.000000000000000 ] # b
  - [     0.000000041085723,     0.934480307353090,     5.347838441668603 ] # c
  points:
  - symbol: Li # 1
    coordinates: [  0.000000000072813,  0.961395222164979,  0.012306287551556 ]
    mass: 6.940000
    reduced_to: 1
  - symbol: Li # 2
    coordinates: [  0.500000000374982,  0.750000000317788,  0.749999996876291 ]
    mass: 6.940000
    reduced_to: 2
  - symbol: Li # 3
    coordinates: [  0.999999998361311,  0.538604778835387,  0.487693710416167 ]
    mass: 6.940000
    reduced_to: 3
  - symbol: Sn # 4
    coordinates: [  0.500000001137986,  0.249999998415699,  0.250000004837114 ]
    mass: 118.710000
    reduced_to: 4

supercell:
  lattice:
  - [    14.022564237799063,     0.000000000000000,     0.000000000000000 ] # a
  - [     0.000000089657103,    12.377003185552246,     0.000000000000000 ] # b
  - [     0.000000082171447,     1.868960614706180,    10.695676883337207 ] # c
  points:
  - symbol: Li # 1
    coordinates: [  0.000000000024271,  0.240348805541245,  0.006153143775778 ]
    mass: 6.940000
    reduced_to: 1
  - symbol: Li # 2
    coordinates: [  0.333333333357604,  0.240348805541245,  0.006153143775778 ]
    mass: 6.940000
    reduced_to: 1
  - symbol: Li # 3
    coordinates: [  0.666666666690938,  0.240348805541245,  0.006153143775778 ]
    mass: 6.940000
    reduced_to: 1
  - symbol: Li # 4
    coordinates: [  0.000000000024271,  0.490348805541245,  0.006153143775778 ]
    mass: 6.940000
    reduced_to: 1
  - symbol: Li # 5
    coordinates: [  0.333333333357604,  0.490348805541245,  0.006153143775778 ]
    mass: 6.940000
    reduced_to: 1
  - symbol: Li # 6
    coordinates: [  0.666666666690938,  0.490348805541245,  0.006153143775778 ]
    mass: 6.940000
    reduced_to: 1
  - symbol: Li # 7
    coordinates: [  0.000000000024271,  0.740348805541245,  0.006153143775778 ]
    mass: 6.940000
    reduced_to: 1
  - symbol: Li # 8
    coordinates: [  0.333333333357604,  0.740348805541245,  0.006153143775778 ]
    mass: 6.940000
    reduced_to: 1
  - symbol: Li # 9
    coordinates: [  0.666666666690938,  0.740348805541245,  0.006153143775778 ]
    mass: 6.940000
    reduced_to: 1
  - symbol: Li # 10
    coordinates: [  0.000000000024271,  0.990348805541245,  0.006153143775778 ]
    mass: 6.940000
    reduced_to: 1
  - symbol: Li # 11
    coordinates: [  0.333333333357604,  0.990348805541245,  0.006153143775778 ]
    mass: 6.940000
    reduced_to: 1
  - symbol: Li # 12
    coordinates: [  0.666666666690938,  0.990348805541245,  0.006153143775778 ]
    mass: 6.940000
    reduced_to: 1
  - symbol: Li # 13
    coordinates: [  0.000000000024271,  0.240348805541245,  0.506153143775778 ]
    mass: 6.940000
    reduced_to: 1
  - symbol: Li # 14
    coordinates: [  0.333333333357604,  0.240348805541245,  0.506153143775778 ]
    mass: 6.940000
    reduced_to: 1
  - symbol: Li # 15
    coordinates: [  0.666666666690938,  0.240348805541245,  0.506153143775778 ]
    mass: 6.940000
    reduced_to: 1
  - symbol: Li # 16
    coordinates: [  0.000000000024271,  0.490348805541245,  0.506153143775778 ]
    mass: 6.940000
    reduced_to: 1
  - symbol: Li # 17
    coordinates: [  0.333333333357604,  0.490348805541245,  0.506153143775778 ]
    mass: 6.940000
    reduced_to: 1
  - symbol: Li # 18
    coordinates: [  0.666666666690938,  0.490348805541245,  0.506153143775778 ]
    mass: 6.940000
    reduced_to: 1
  - symbol: Li # 19
    coordinates: [  0.000000000024271,  0.740348805541245,  0.506153143775778 ]
    mass: 6.940000
    reduced_to: 1
  - symbol: Li # 20
    coordinates: [  0.333333333357604,  0.740348805541245,  0.506153143775778 ]
    mass: 6.940000
    reduced_to: 1
  - symbol: Li # 21
    coordinates: [  0.666666666690938,  0.740348805541245,  0.506153143775778 ]
    mass: 6.940000
    reduced_to: 1
  - symbol: Li # 22
    coordinates: [  0.000000000024271,  0.990348805541245,  0.506153143775778 ]
    mass: 6.940000
    reduced_to: 1
  - symbol: Li # 23
    coordinates: [  0.333333333357604,  0.990348805541245,  0.506153143775778 ]
    mass: 6.940000
    reduced_to: 1
  - symbol: Li # 24
    coordinates: [  0.666666666690938,  0.990348805541245,  0.506153143775778 ]
    mass: 6.940000
    reduced_to: 1
  - symbol: Li # 25
    coordinates: [  0.166666666791661,  0.187500000079447,  0.374999998438146 ]
    mass: 6.940000
    reduced_to: 25
  - symbol: Li # 26
    coordinates: [  0.500000000124994,  0.187500000079447,  0.374999998438146 ]
    mass: 6.940000
    reduced_to: 25
  - symbol: Li # 27
    coordinates: [  0.833333333458327,  0.187500000079447,  0.374999998438146 ]
    mass: 6.940000
    reduced_to: 25
  - symbol: Li # 28
    coordinates: [  0.166666666791661,  0.437500000079447,  0.374999998438146 ]
    mass: 6.940000
    reduced_to: 25
  - symbol: Li # 29
    coordinates: [  0.500000000124994,  0.437500000079447,  0.374999998438146 ]
    mass: 6.940000
    reduced_to: 25
  - symbol: Li # 30
    coordinates: [  0.833333333458327,  0.437500000079447,  0.374999998438146 ]
    mass: 6.940000
    reduced_to: 25
  - symbol: Li # 31
    coordinates: [  0.166666666791661,  0.687500000079447,  0.374999998438146 ]
    mass: 6.940000
    reduced_to: 25
  - symbol: Li # 32
    coordinates: [  0.500000000124994,  0.687500000079447,  0.374999998438146 ]
    mass: 6.940000
    reduced_to: 25
  - symbol: Li # 33
    coordinates: [  0.833333333458327,  0.687500000079447,  0.374999998438146 ]
    mass: 6.940000
    reduced_to: 25
  - symbol: Li # 34
    coordinates: [  0.166666666791661,  0.937500000079447,  0.374999998438146 ]
    mass: 6.940000
    reduced_to: 25
  - symbol: Li # 35
    coordinates: [  0.500000000124994,  0.937500000079447,  0.374999998438146 ]
    mass: 6.940000
    reduced_to: 25
  - symbol: Li # 36
    coordinates: [  0.833333333458327,  0.937500000079447,  0.374999998438146 ]
    mass: 6.940000
    reduced_to: 25
  - symbol: Li # 37
    coordinates: [  0.166666666791661,  0.187500000079447,  0.874999998438146 ]
    mass: 6.940000
    reduced_to: 25
  - symbol: Li # 38
    coordinates: [  0.500000000124994,  0.187500000079447,  0.874999998438146 ]
    mass: 6.940000
    reduced_to: 25
  - symbol: Li # 39
    coordinates: [  0.833333333458327,  0.187500000079447,  0.874999998438146 ]
    mass: 6.940000
    reduced_to: 25
  - symbol: Li # 40
    coordinates: [  0.166666666791661,  0.437500000079447,  0.874999998438146 ]
    mass: 6.940000
    reduced_to: 25
  - symbol: Li # 41
    coordinates: [  0.500000000124994,  0.437500000079447,  0.874999998438146 ]
    mass: 6.940000
    reduced_to: 25
  - symbol: Li # 42
    coordinates: [  0.833333333458327,  0.437500000079447,  0.874999998438146 ]
    mass: 6.940000
    reduced_to: 25
  - symbol: Li # 43
    coordinates: [  0.166666666791661,  0.687500000079447,  0.874999998438146 ]
    mass: 6.940000
    reduced_to: 25
  - symbol: Li # 44
    coordinates: [  0.500000000124994,  0.687500000079447,  0.874999998438146 ]
    mass: 6.940000
    reduced_to: 25
  - symbol: Li # 45
    coordinates: [  0.833333333458327,  0.687500000079447,  0.874999998438146 ]
    mass: 6.940000
    reduced_to: 25
  - symbol: Li # 46
    coordinates: [  0.166666666791661,  0.937500000079447,  0.874999998438146 ]
    mass: 6.940000
    reduced_to: 25
  - symbol: Li # 47
    coordinates: [  0.500000000124994,  0.937500000079447,  0.874999998438146 ]
    mass: 6.940000
    reduced_to: 25
  - symbol: Li # 48
    coordinates: [  0.833333333458327,  0.937500000079447,  0.874999998438146 ]
    mass: 6.940000
    reduced_to: 25
  - symbol: Li # 49
    coordinates: [  0.333333332787104,  0.134651194708847,  0.243846855208083 ]
    mass: 6.940000
    reduced_to: 49
  - symbol: Li # 50
    coordinates: [  0.666666666120437,  0.134651194708847,  0.243846855208083 ]
    mass: 6.940000
    reduced_to: 49
  - symbol: Li # 51
    coordinates: [  0.999999999453770,  0.134651194708847,  0.243846855208083 ]
    mass: 6.940000
    reduced_to: 49
  - symbol: Li # 52
    coordinates: [  0.333333332787104,  0.384651194708847,  0.243846855208083 ]
    mass: 6.940000
    reduced_to: 49
  - symbol: Li # 53
    coordinates: [  0.666666666120437,  0.384651194708847,  0.243846855208083 ]
    mass: 6.940000
    reduced_to: 49
  - symbol: Li # 54
    coordinates: [  0.999999999453770,  0.384651194708847,  0.243846855208083 ]
    mass: 6.940000
    reduced_to: 49
  - symbol: Li # 55
    coordinates: [  0.333333332787104,  0.634651194708847,  0.243846855208083 ]
    mass: 6.940000
    reduced_to: 49
  - symbol: Li # 56
    coordinates: [  0.666666666120437,  0.634651194708847,  0.243846855208083 ]
    mass: 6.940000
    reduced_to: 49
  - symbol: Li # 57
    coordinates: [  0.999999999453770,  0.634651194708847,  0.243846855208083 ]
    mass: 6.940000
    reduced_to: 49
  - symbol: Li # 58
    coordinates: [  0.333333332787104,  0.884651194708847,  0.243846855208083 ]
    mass: 6.940000
    reduced_to: 49
  - symbol: Li # 59
    coordinates: [  0.666666666120437,  0.884651194708847,  0.243846855208083 ]
    mass: 6.940000
    reduced_to: 49
  - symbol: Li # 60
    coordinates: [  0.999999999453770,  0.884651194708847,  0.243846855208083 ]
    mass: 6.940000
    reduced_to: 49
  - symbol: Li # 61
    coordinates: [  0.333333332787104,  0.134651194708847,  0.743846855208083 ]
    mass: 6.940000
    reduced_to: 49
  - symbol: Li # 62
    coordinates: [  0.666666666120437,  0.134651194708847,  0.743846855208083 ]
    mass: 6.940000
    reduced_to: 49
  - symbol: Li # 63
    coordinates: [  0.999999999453770,  0.134651194708847,  0.743846855208083 ]
    mass: 6.940000
    reduced_to: 49
  - symbol: Li # 64
    coordinates: [  0.333333332787104,  0.384651194708847,  0.743846855208083 ]
    mass: 6.940000
    reduced_to: 49
  - symbol: Li # 65
    coordinates: [  0.666666666120437,  0.384651194708847,  0.743846855208083 ]
    mass: 6.940000
    reduced_to: 49
  - symbol: Li # 66
    coordinates: [  0.999999999453770,  0.384651194708847,  0.743846855208083 ]
    mass: 6.940000
    reduced_to: 49
  - symbol: Li # 67
    coordinates: [  0.333333332787104,  0.634651194708847,  0.743846855208083 ]
    mass: 6.940000
    reduced_to: 49
  - symbol: Li # 68
    coordinates: [  0.666666666120437,  0.634651194708847,  0.743846855208083 ]
    mass: 6.940000
    reduced_to: 49
  - symbol: Li # 69
    coordinates: [  0.999999999453770,  0.634651194708847,  0.743846855208083 ]
    mass: 6.940000
    reduced_to: 49
  - symbol: Li # 70
    coordinates: [  0.333333332787104,  0.884651194708847,  0.743846855208083 ]
    mass: 6.940000
    reduced_to: 49
  - symbol: Li # 71
    coordinates: [  0.666666666120437,  0.884651194708847,  0.743846855208083 ]
    mass: 6.940000
    reduced_to: 49
  - symbol: Li # 72
    coordinates: [  0.999999999453770,  0.884651194708847,  0.743846855208083 ]
    mass: 6.940000
    reduced_to: 49
  - symbol: Sn # 73
    coordinates: [  0.166666667045995,  0.062499999603925,  0.125000002418557 ]
    mass: 118.710000
    reduced_to: 73
  - symbol: Sn # 74
    coordinates: [  0.500000000379329,  0.062499999603925,  0.125000002418557 ]
    mass: 118.710000
    reduced_to: 73
  - symbol: Sn # 75
    coordinates: [  0.833333333712662,  0.062499999603925,  0.125000002418557 ]
    mass: 118.710000
    reduced_to: 73
  - symbol: Sn # 76
    coordinates: [  0.166666667045995,  0.312499999603925,  0.125000002418557 ]
    mass: 118.710000
    reduced_to: 73
  - symbol: Sn # 77
    coordinates: [  0.500000000379329,  0.312499999603925,  0.125000002418557 ]
    mass: 118.710000
    reduced_to: 73
  - symbol: Sn # 78
    coordinates: [  0.833333333712662,  0.312499999603925,  0.125000002418557 ]
    mass: 118.710000
    reduced_to: 73
  - symbol: Sn # 79
    coordinates: [  0.166666667045995,  0.562499999603925,  0.125000002418557 ]
    mass: 118.710000
    reduced_to: 73
  - symbol: Sn # 80
    coordinates: [  0.500000000379329,  0.562499999603925,  0.125000002418557 ]
    mass: 118.710000
    reduced_to: 73
  - symbol: Sn # 81
    coordinates: [  0.833333333712662,  0.562499999603925,  0.125000002418557 ]
    mass: 118.710000
    reduced_to: 73
  - symbol: Sn # 82
    coordinates: [  0.166666667045995,  0.812499999603925,  0.125000002418557 ]
    mass: 118.710000
    reduced_to: 73
  - symbol: Sn # 83
    coordinates: [  0.500000000379329,  0.812499999603925,  0.125000002418557 ]
    mass: 118.710000
    reduced_to: 73
  - symbol: Sn # 84
    coordinates: [  0.833333333712662,  0.812499999603925,  0.125000002418557 ]
    mass: 118.710000
    reduced_to: 73
  - symbol: Sn # 85
    coordinates: [  0.166666667045995,  0.062499999603925,  0.625000002418557 ]
    mass: 118.710000
    reduced_to: 73
  - symbol: Sn # 86
    coordinates: [  0.500000000379329,  0.062499999603925,  0.625000002418557 ]
    mass: 118.710000
    reduced_to: 73
  - symbol: Sn # 87
    coordinates: [  0.833333333712662,  0.062499999603925,  0.625000002418557 ]
    mass: 118.710000
    reduced_to: 73
  - symbol: Sn # 88
    coordinates: [  0.166666667045995,  0.312499999603925,  0.625000002418557 ]
    mass: 118.710000
    reduced_to: 73
  - symbol: Sn # 89
    coordinates: [  0.500000000379329,  0.312499999603925,  0.625000002418557 ]
    mass: 118.710000
    reduced_to: 73
  - symbol: Sn # 90
    coordinates: [  0.833333333712662,  0.312499999603925,  0.625000002418557 ]
    mass: 118.710000
    reduced_to: 73
  - symbol: Sn # 91
    coordinates: [  0.166666667045995,  0.562499999603925,  0.625000002418557 ]
    mass: 118.710000
    reduced_to: 73
  - symbol: Sn # 92
    coordinates: [  0.500000000379329,  0.562499999603925,  0.625000002418557 ]
    mass: 118.710000
    reduced_to: 73
  - symbol: Sn # 93
    coordinates: [  0.833333333712662,  0.562499999603925,  0.625000002418557 ]
    mass: 118.710000
    reduced_to: 73
  - symbol: Sn # 94
    coordinates: [  0.166666667045995,  0.812499999603925,  0.625000002418557 ]
    mass: 118.710000
    reduced_to: 73
  - symbol: Sn # 95
    coordinates: [  0.500000000379329,  0.812499999603925,  0.625000002418557 ]
    mass: 118.710000
    reduced_to: 73
  - symbol: Sn # 96
    coordinates: [  0.833333333712662,  0.812499999603925,  0.625000002418557 ]
    mass: 118.710000
    reduced_to: 73

displacements:
- atom:    1
  displacement:
    [   0.0074972770555644,  0.0066174645259425,  0.0000000000000000 ]
  forces:
  - [  -0.0198239125311375, -0.0095280408859253, -0.0480238348245621 ]
  - [  -0.0003166010719724, -0.0017933510243893, -0.0456706136465073 ]
  - [   0.0001514338946436, -0.0022835880517960, -0.0460450425744057 ]
  - [  -0.0004005489754491,  0.0000139698386192, -0.0457167997956276 ]
  - [  -0.0000587326940149, -0.0021386407315731, -0.0457452684640884 ]
  - [  -0.0000705735292286, -0.0019656829535961, -0.0461186766624451 ]
  - [  -0.0000027643752674, -0.0023693777620792, -0.0460161790251732 ]
  - [  -0.0000077500808402, -0.0020568259060383, -0.0460007339715958 ]
  - [  -0.0000137081915454, -0.0020503923296928, -0.0460281968116760 ]
  - [  -0.0003926314821001, -0.0000166632235050, -0.0459741801023483 ]
  - [   0.0000101990844996, -0.0020580627024174, -0.0459770523011684 ]
  - [  -0.0001428769610357, -0.0020488537847996, -0.0464071854948997 ]
  - [  -0.0000016265485101, -0.0020413696765900, -0.0459952652454376 ]
  - [  -0.0000148036961036, -0.0020219571888447, -0.0460301265120506 ]
  - [   0.0000011610336514, -0.0020405873656273, -0.0459849908947945 ]
  - [  -0.0000149838779180, -0.0020483136177063, -0.0460439249873161 ]
  - [  -0.0000045279375627, -0.0020368695259094, -0.0460283420979977 ]
  - [  -0.0000031654217310, -0.0020303055644035, -0.0459993258118629 ]
  - [  -0.0000001325295642, -0.0020314753055573, -0.0460037067532539 ]
  - [  -0.0000010104849935, -0.0020367577672005, -0.0460028052330017 ]
  - [   0.0000042738392949, -0.0020427592098713, -0.0459898747503757 ]
  - [  -0.0000152865668497, -0.0020490251481533, -0.0460826940834522 ]
  - [  -0.0000015383993741, -0.0020335987210274, -0.0460094735026360 ]
  - [  -0.0000073435257946, -0.0020347461104393, -0.0460152551531792 ]
  - [   0.0002058196114376,  0.0002627304056659, -0.0005471685435623 ]
  - [  -0.0000160964027600, -0.0000004779139999, -0.0000010043004295 ]
  - [   0.0000794415827841, -0.0002672622795217,  0.0001531758025521 ]
  - [   0.0001668078621151, -0.0001496511540608, -0.0002223211340606 ]
  - [  -0.0000265448325081, -0.0000040214508772, -0.0000038240104914 ]
  - [   0.0000329061149387,  0.0001827522501117,  0.0001930221915245 ]
  - [  -0.0000032834941521, -0.0000214378815144, -0.0000100936740637 ]
  - [  -0.0000029389711926, -0.0000013445969671, -0.0000003767199814 ]
  - [   0.0000060431775637, -0.0000031851232052,  0.0000292770564556 ]
  - [   0.0000169136910699,  0.0000458980503026, -0.0001409496180713 ]
  - [  -0.0000228680364671,  0.0000054967531469,  0.0000089500099421 ]
  - [   0.0002750111161731, -0.0000179812195711,  0.0003008935600519 ]
  - [   0.0013838136801496, -0.0008949819020927, -0.0013706220779568 ]
  - [   0.0000052305304052, -0.0000043174950406, -0.0000094642309705 ]
  - [   0.0028924632351846,  0.0010400080354884,  0.0024594541173428 ]
  - [   0.0001936919870786,  0.0001686881732894,  0.0000161260031746 ]
  - [  -0.0000128667488752, -0.0000010999938240,  0.0000067154687713 ]
  - [   0.0001402907073498,  0.0001546288112877, -0.0000792805221863 ]
  - [   0.0000265733688138,  0.0000237943604589,  0.0000631250441074 ]
  - [   0.0000004553288591,  0.0000015012919903, -0.0000004917383194 ]
  - [  -0.0000049949157983,  0.0000250134617090, -0.0000147223472595 ]
  - [   0.0000846077164169, -0.0000213016755879, -0.0000972437555902 ]
  - [  -0.0000049777308959, -0.0000033364631236, -0.0000032943207771 ]
  - [  -0.0002397762727924, -0.0003583917859942,  0.0001446388778277 ]
  - [  -0.0000958243617788,  0.0023789480328560,  0.0459835343062878 ]
  - [  -0.0000575052108616,  0.0024105682969093,  0.0460166335105896 ]
  - [  -0.0011187855852768,  0.0017991811037064,  0.0443536825478077 ]
  - [   0.0001862070057541,  0.0021219104528427,  0.0462549179792404 ]
  - [   0.0000551897101104,  0.0019772052764893,  0.0458981767296791 ]
  - [   0.0002332346048206,  0.0023834109306335,  0.0459863580763340 ]
  - [  -0.0000731201143935,  0.0019676573574543,  0.0459710285067558 ]
  - [  -0.0000117305899039,  0.0020379126071930,  0.0460101142525673 ]
  - [   0.0000777493696660,  0.0019642338156700,  0.0459595546126366 ]
  - [  -0.0000863905297592,  0.0021200552582741,  0.0459714308381081 ]
  - [  -0.0006470670923591,  0.0014843232929707,  0.0462806299328804 ]
  - [  -0.0002204814227298,  0.0022890344262123,  0.0459497086703777 ]
  - [  -0.0000404837846872,  0.0019881054759026,  0.0460305474698544 ]
  - [   0.0000509462588525,  0.0020926557481289,  0.0460673719644547 ]
  - [   0.0006288346485235,  0.0023610889911652,  0.0463495254516602 ]
  - [   0.0000613369047642,  0.0020381845533848,  0.0459762513637543 ]
  - [   0.0000464096665382,  0.0020206160843372,  0.0460166633129120 ]
  - [   0.0002373158931732,  0.0023445524275303,  0.0453282371163368 ]
  - [  -0.0000230803852901,  0.0020141638815403,  0.0460313223302364 ]
  - [   0.0000045713968575,  0.0020440705120564,  0.0460005104541779 ]
  - [  -0.0000133140711114,  0.0019989684224129,  0.0460666269063950 ]
  - [  -0.0000014214310795,  0.0020401515066624,  0.0460035055875778 ]
  - [  -0.0000055634882301,  0.0020343698561192,  0.0460105277597904 ]
  - [   0.0000049142399803,  0.0021039918065071,  0.0460430011153221 ]
  - [   0.0010116713820025, -0.0004671783535741,  0.0004384403873701 ]
  - [   0.0000070694441092, -0.0000222325325012,  0.0000009934301488 ]
  - [   0.0011774975573644,  0.0000986326485872, -0.0004484817618504 ]
  - [   0.0094610638916492,  0.0038312056567520,  0.0047444244846702 ]
  - [  -0.0000681446399540, -0.0000193417072296, -0.0000159325427376 ]
  - [   0.0049129142425954, -0.0016910247504711, -0.0024018990807235 ]
  - [   0.0000416107941419,  0.0006873568054289,  0.0000666764826747 ]
  - [   0.0000710808744770,  0.0000227047021326, -0.0000136836788442 ]
  - [  -0.0000871161464602,  0.0000980001932476,  0.0000697301802575 ]
  - [  -0.0000216327607632,  0.0000237934291363, -0.0000072154216468 ]
  - [   0.0000507608056068,  0.0000246763229370,  0.0000153871951625 ]
  - [   0.0000151693820953, -0.0000628791749477, -0.0000344902509823 ]
  - [   0.0000402757432312,  0.0000318759957736,  0.0000789107070887 ]
  - [  -0.0000223633760470,  0.0000012352393242, -0.0000050769767768 ]
  - [   0.0000085986685008, -0.0000512888400408,  0.0000209699173865 ]
  - [  -0.0000120342010632, -0.0000329320318997, -0.0000609121634625 ]
  - [  -0.0000395401075366, -0.0000006109476089, -0.0000048396759667 ]
  - [   0.0001559336669743,  0.0001830942928791, -0.0000155317393364 ]
  - [   0.0000302381813526, -0.0000052452232921,  0.0000200852500711 ]
  - [  -0.0000025520566851, -0.0000010192743503,  0.0000000176196409 ]
  - [   0.0000330065377057, -0.0000140114061651, -0.0000060744323491 ]
  - [  -0.0000010766088963, -0.0000132745481096,  0.0000001733424142 ]
  - [  -0.0000038444995880,  0.0000005944748409, -0.0000009144423530 ]
  - [   0.0000012516975403, -0.0000560717599001,  0.0000344329746440 ]
- atom:    1
  displacement:
    [  -0.0074972770555644, -0.0066174645259425,  0.0000000000000000 ]
  forces:
  - [   0.0196664184331894,  0.0053965896368027, -0.0441441498696804 ]
  - [   0.0002751977881417, -0.0022781603038311, -0.0463328510522842 ]
  - [  -0.0001214201110997, -0.0017885863780975, -0.0459640696644783 ]
  - [   0.0003940233436879, -0.0040505565702915, -0.0462885536253452 ]
  - [   0.0000633632298559, -0.0019325725734234, -0.0462600886821747 ]
  - [   0.0000696962233633, -0.0021048672497272, -0.0458906218409538 ]
  - [   0.0000029034667932, -0.0017013736069202, -0.0459914356470108 ]
  - [   0.0000081962498371, -0.0020157396793365, -0.0460080802440643 ]
  - [   0.0000122710007417, -0.0020209401845932, -0.0459798015654087 ]
  - [   0.0004018655163236, -0.0040811039507389, -0.0460332483053207 ]
  - [  -0.0000108236708911, -0.0020144358277321, -0.0460345819592476 ]
  - [   0.0001410854165442, -0.0020257979631424, -0.0455959960818291 ]
  - [   0.0000036699775592, -0.0020297951996326, -0.0460112690925598 ]
  - [   0.0000154470526468, -0.0020488798618317, -0.0459762737154961 ]
  - [  -0.0000013404987840, -0.0020308978855610, -0.0460230633616447 ]
  - [   0.0000157037120516, -0.0020233206450939, -0.0459640100598335 ]
  - [   0.0000056062508520, -0.0020335391163826, -0.0459767132997513 ]
  - [   0.0000054369684221, -0.0020396113395691, -0.0460076741874218 ]
  - [   0.0000009741654594, -0.0020390637218952, -0.0460058972239494 ]
  - [   0.0000031488016248, -0.0020335987210274, -0.0460041984915733 ]
  - [  -0.0000010766088963, -0.0020285844802856, -0.0460173599421978 ]
  - [   0.0000152672855620, -0.0020241439342499, -0.0459250248968601 ]
  - [   0.0000025128538255, -0.0020375363528728, -0.0459979623556137 ]
  - [   0.0000074644412962, -0.0020366199314594, -0.0459936931729317 ]
  - [  -0.0002084485604428, -0.0002595467958599,  0.0005267742089927 ]
  - [   0.0000172979289346,  0.0000004317116691, -0.0000017962811398 ]
  - [  -0.0000794680527179,  0.0002656228025444, -0.0001596108049853 ]
  - [  -0.0001659061817918,  0.0001463670632802,  0.0002164202742279 ]
  - [   0.0000275704078376,  0.0000053849071264,  0.0000032074749470 ]
  - [  -0.0000330493348883, -0.0001834863214754, -0.0001952815800905 ]
  - [   0.0000034705153666,  0.0000221491791308,  0.0000069283414632 ]
  - [   0.0000029828433981,  0.0000020952429622, -0.0000019104918465 ]
  - [  -0.0000064124469645,  0.0000045336782932, -0.0000315625220537 ]
  - [  -0.0000181762734428, -0.0000450564548373,  0.0001380033208989 ]
  - [   0.0000222949238378, -0.0000051487295423, -0.0000109990942292 ]
  - [  -0.0002792478189804,  0.0000201006187126, -0.0003110157558694 ]
  - [  -0.0013880298938602,  0.0008827979327179,  0.0013680068077520 ]
  - [  -0.0000045781880544,  0.0000043822219595,  0.0000100170582300 ]
  - [  -0.0029232376255095, -0.0010441499762237, -0.0024802021216601 ]
  - [  -0.0001898134942167, -0.0001677956897765, -0.0000138868199429 ]
  - [   0.0000124944017443, -0.0000019442231860, -0.0000041818202590 ]
  - [  -0.0001371321850456, -0.0001607473241165,  0.0000837611078168 ]
  - [  -0.0000250025477726, -0.0000244630500674, -0.0000598914921284 ]
  - [  -0.0000003656901981, -0.0000019790604711,  0.0000053718686104 ]
  - [   0.0000041752355173, -0.0000258805230260,  0.0000185817480087 ]
  - [  -0.0000824486196507,  0.0000184404198080,  0.0001008890103549 ]
  - [   0.0000043424361138,  0.0000029127113521,  0.0000062279286794 ]
  - [   0.0002211480168626,  0.0003282227553427, -0.0001548187574372 ]
  - [   0.0000903691397980,  0.0017011575400829,  0.0460226014256477 ]
  - [   0.0000596049940214,  0.0016542114317417,  0.0459925383329391 ]
  - [   0.0011233007535338,  0.0022891573607922,  0.0476233363151550 ]
  - [  -0.0001672687940300,  0.0019613429903984,  0.0457561388611794 ]
  - [  -0.0000552562996745,  0.0020922198891640,  0.0461083613336086 ]
  - [  -0.0002308690454811,  0.0016932785511017,  0.0460231155157089 ]
  - [   0.0000715296482667,  0.0021053291857243,  0.0460373908281326 ]
  - [   0.0000097596785054,  0.0020363964140415,  0.0459992438554764 ]
  - [  -0.0000761657720432,  0.0021090470254421,  0.0460488051176071 ]
  - [   0.0000903428299353,  0.0019493177533150,  0.0460374504327774 ]
  - [   0.0006660567596555,  0.0026014968752861,  0.0457195416092873 ]
  - [   0.0002239542081952,  0.0017848536372185,  0.0460567474365234 ]
  - [   0.0000398799420509,  0.0020846761763096,  0.0459780544042587 ]
  - [  -0.0000564464062336,  0.0019769072532654,  0.0459369942545891 ]
  - [  -0.0006287085125223,  0.0017148591578007,  0.0456554926931858 ]
  - [  -0.0000617168843746,  0.0020312368869781,  0.0460309162735939 ]
  - [  -0.0000465437769890,  0.0020486600697041,  0.0459929853677750 ]
  - [  -0.0002377778291702,  0.0017242766916752,  0.0466783754527569 ]
  - [   0.0000213091261685,  0.0020574480295181,  0.0459774658083916 ]
  - [  -0.0000042673200369,  0.0020266920328140,  0.0460077188909054 ]
  - [   0.0000142393400893,  0.0020728781819344,  0.0459419302642345 ]
  - [   0.0000024557812139,  0.0020336769521236,  0.0460048317909241 ]
  - [   0.0000066265929490,  0.0020373426377773,  0.0459981970489025 ]
  - [  -0.0000047758221626,  0.0019698068499565,  0.0459655150771141 ]
  - [  -0.0010131685994565,  0.0004639903490897, -0.0004356802091934 ]
  - [  -0.0000064218111220,  0.0000262670218945, -0.0000030064256862 ]
  - [  -0.0012805000878870, -0.0001554489135742,  0.0005002316320315 ]
  - [  -0.0091855637729168, -0.0037151323631406, -0.0045658145099878 ]
  - [   0.0000645767431706,  0.0000199638307095,  0.0000167425605468 ]
  - [  -0.0049007004126906,  0.0017097331583500,  0.0024126372300088 ]
  - [  -0.0000407930929214, -0.0007034342852421, -0.0000650429647067 ]
  - [  -0.0000726503712940, -0.0000236087762460,  0.0000145250196510 ]
  - [   0.0000881650485098, -0.0001038355840137, -0.0000707622675691 ]
  - [   0.0000203028321266, -0.0000240686349571,  0.0000067735090852 ]
  - [  -0.0000506751239300, -0.0000272244215012, -0.0000155902234837 ]
  - [  -0.0000174753367901,  0.0000691544264555,  0.0000371184432879 ]
  - [  -0.0000389027409256, -0.0000284524321614, -0.0000773822757765 ]
  - [   0.0000227020427701,  0.0000018454011297,  0.0000058675959735 ]
  - [  -0.0000139069743454,  0.0000511582620675, -0.0000244186630880 ]
  - [   0.0000063474290073,  0.0000346093438566,  0.0000732657208573 ]
  - [   0.0000398930933443,  0.0000021159648895,  0.0000058450968936 ]
  - [  -0.0001531873131171, -0.0001830738037825,  0.0000251638120972 ]
  - [  -0.0000270903110504,  0.0000027619244065, -0.0000206649674510 ]
  - [   0.0000014866236597, -0.0000011258889572, -0.0000035933881009 ]
  - [  -0.0000384033191949,  0.0000137517636176,  0.0000012244099707 ]
  - [   0.0000020302832127,  0.0000069161760621, -0.0000014039687812 ]
  - [   0.0000012479722500, -0.0000048146466725, -0.0000024848850444 ]
  - [  -0.0000068880617619,  0.0000516029831488, -0.0000396632822230 ]
- atom:    1
  displacement:
    [   0.0000000000756801,  0.0017213164210788,  0.0098507395549027 ]
  forces:
  - [   0.0000004046107165, -0.0068554319441319, -0.0671133771538734 ]
  - [  -0.0003035223053303, -0.0018197782337666, -0.0456818975508213 ]