# Tetrahedron method
       -1.1843552969        0.0000000000
       -1.1132939873        0.0000000000
       -1.0422326777        0.0000000000
       -0.9711713681        0.0000000000
       -0.9001100586        0.0000000000
       -0.8290487490        0.0000000000
       -0.7579874394        0.0000000000
       -0.6869261299        0.0000000000
       -0.6158648203        0.0000000000
       -0.5448035107        0.0000000000
       -0.4737422012        0.0000000000
       -0.4026808916        0.0000000000
       -0.3316195820        0.0000000000
       -0.2605582725        0.0000000000
       -0.1894969629        0.0000000000
       -0.1184356533        0.0000000000
       -0.0473743438        0.0000000000
        0.0236869658        0.0001032065
        0.0947482754        0.0016054501
        0.1658095849        0.0047762530
        0.2368708945        0.0168651071
        0.3079322041        0.0289728069
        0.3789935136        0.0467569060
        0.4500548232        0.0780436144
        0.5211161328        0.1087907406
        0.5921774424        0.1449442386
        0.6632387519        0.1855138892
        0.7343000615        0.2309498125
        0.8053613711        0.2951465737
        0.8764226806        0.3640853994
        0.9474839902        0.4711989442
        1.0185452998        0.5495123726
        1.0896066093        0.6239463810
        1.1606679189        0.8422261412
        1.2317292285        1.0274611924
        1.3027905380        1.1127065726
        1.3738518476        1.3407705621
        1.4449131572        1.9056787112
        1.5159744667        2.1699980540
        1.5870357763        3.0429468109
        1.6580970859        3.1636818813
        1.7291583954        3.6892879599
        1.8002197050        3.8462403791
        1.8712810146        4.8804772400
        1.9423423242        6.5802564211
        2.0134036337        4.8758864038
        2.0844649433        3.9103364115
        2.1555262529        4.7513137452
        2.2265875624        5.2602739859
        2.2976488720        2.5252556060
        2.3687101816        2.3703531756
        2.4397714911        2.9275479731
        2.5108328007        2.8719268822
        2.5818941103        2.0977481316
        2.6529554198        1.3213173591
        2.7240167294        0.6446110094
        2.7950780390        0.6687419124
        2.8661393485        3.2882969374
        2.9372006581        3.4975580737
        3.0082619677        3.1296368790
        3.0793232772        3.0812377196
        3.1503845868        3.5602187392
        3.2214458964        2.7923739955
        3.2925072059        1.2671620324
        3.3635685155        1.0336992109
        3.4346298251        1.0060764089
        3.5056911347        1.1981948053
        3.5767524442        2.7665986223
        3.6478137538        3.0957491053
        3.7188750634        3.3657401272
        3.7899363729        4.0121976785
        3.8609976825        3.4483187047
        3.9320589921        3.9414478895
        4.0031203016        5.1799631367
        4.0741816112        7.0128694850
        4.1452429208        3.8546370295
        4.2163042303        2.9944368714
        4.2873655399        4.2851485755
        4.3584268495        5.5859002489
        4.4294881590        5.4630844193
        4.5005494686        5.8827510212
        4.5716107782        6.3831073887
        4.6426720877        3.2602182834
        4.7137333973        1.7668028798
        4.7847947069        0.0421337672
        4.8558560165        0.0000000000
        4.9269173260        0.0000000000
        4.9979786356        0.0000000000
        5.0690399452        0.0000000000
        5.1401012547        0.0000000000
        5.2111625643        0.0000000000
        5.2822238739        0.0000000000
        5.3532851834        0.0000000000
        5.4243464930        0.0000000000
        5.4954078026        0.0000000000
        5.5664691121        0.0000000000
        5.6375304217        0.0000000000
        5.7085917313        0.0000000000
        5.7796530408        0.0000000000
        5.8507143504        0.0000000000
        5.9217756600        0.0000000000
        5.9928369695        6.1513091340
        6.0638982791        4.4792023674
        6.1349595887        3.0059969021
        6.2060208982        4.1492399419
        6.2770822078        5.1813236218
        6.3481435174        2.0033112054
        6.4192048270        1.5931098724
        6.4902661365        1.5138306009
        6.5613274461        0.7252556280
        6.6323887557        0.2363424008
        6.7034500652        0.0000000000
        6.7745113748        0.0000000000
        6.8455726844        0.0000000000
        6.9166339939        0.0000000000
        6.9876953035        0.0000000000
        7.0587566131        0.0020681379
        7.1298179226        0.0286423402
        7.2008792322        0.0556181717
        7.2719405418        0.0900079996
        7.3430018513        0.1728070221
        7.4140631609        0.9078455334
        7.4851244705        2.1624680595
        7.5561857800        4.1052893318
        7.6272470896       10.3931888034
        7.6983083992        7.9483524816
        7.7693697088        4.3000515378
        7.8404310183        6.6605049010
        7.9114923279        3.5401961834
        7.9825536375        2.4084043046
        8.0536149470        0.1251178598
        8.1246762566        0.1811557379
        8.1957375662        0.2658569628
        8.2667988757        0.3814116999
        8.3378601853        0.5050522576
        8.4089214949        0.6061457716
        8.4799828044        1.0367490155
        8.5510441140        1.6925091511
        8.6221054236        4.5780726368
        8.6931667331        2.8474099385
        8.7642280427        1.8899412400
        8.8352893523        1.3810686607
        8.9063506618        2.0929904775
        8.9774119714        2.5157921758
        9.0484732810        1.8893614629
        9.1195345905        1.6593007645
        9.1905959001        1.5150057390
        9.2616572097        1.3368716915
        9.3327185193        1.4426369700
        9.4037798288        1.5504645297
        9.4748411384        2.2031457191
        9.5459024480        4.0619538754
        9.6169637575        3.3325460343
        9.6880250671        4.0751649729
        9.7590863767        1.9045425515
        9.8301476862        1.9575966191
        9.9012089958        2.3662974860
        9.9722703054        1.7217765531
       10.0433316149        1.8606756895
       10.1143929245        2.1018444963
       10.1854542341        2.6079163688
       10.2565155436        3.0948206086
       10.3275768532        3.6620536542
       10.3986381628        2.5830534381
       10.4696994723        2.6206119710
       10.5407607819        2.1908187977
       10.6118220915        3.1453597857
       10.6828834011        4.4850188907
       10.7539447106        5.1829561544
       10.8250060202        5.2668598254
       10.8960673298        4.8841988304
       10.9671286393        3.5241922226
       11.0381899489        4.6422790962
       11.1092512585        4.3637488438
       11.1803125680        4.3561248951
       11.2513738776        4.5182877942
       11.3224351872        3.7974775705
       11.3934964967        3.2326728523
       11.4645578063        3.8434152547
       11.5356191159        3.8409504886
       11.6066804254        6.1658266662
       11.6777417350        2.4835691285
       11.7488030446        1.6744204766
       11.8198643541        0.6758273448
       11.8909256637        0.0000000000
       11.9619869733        0.0000000000
       12.0330482828        0.0000000000
       12.1041095924        0.0000000000
       12.1751709020        0.0000000000
       12.2462322116        0.0000000000
       12.3172935211        0.0000000000
       12.3883548307        0.0000000000
       12.4594161403        0.0000000000
       12.5304774498        0.0000000000
       12.6015387594        0.0000000000
       12.6726000690        0.0000000000
       12.7436613785        0.0000000000
       12.8147226881        0.0000000000
       12.8857839977        0.0000000000
       12.9568453072        0.0000000000
       13.0279066168        0.0000000000
