# Thermal properties / unit cell (natom)

unit:
  temperature:   K
  free_energy:   kJ/mol
  entropy:       J/K/mol
  heat_capacity: J/K/mol

natom: 9    
cutoff_frequency: 0.00000
num_modes: 141075
num_integrated_modes: 141074

zero_point_energy:      18.9940714

thermal_properties:
- temperature:         0.0000000
  free_energy:        18.9940714
  entropy:             0.0000000
  heat_capacity:       0.0000000
  energy:             18.9940714

- temperature:        10.0000000
  free_energy:        18.9885399
  entropy:             2.2981105
  heat_capacity:       7.6435270
  energy:             19.0115210

- temperature:        20.0000000
  free_energy:        18.9002719
  entropy:            17.7609559
  heat_capacity:      43.6254321
  energy:             19.2554911

- temperature:        30.0000000
  free_energy:        18.6029587
  entropy:            42.4043106
  heat_capacity:      78.4579687
  energy:             19.8750880

- temperature:        40.0000000
  free_energy:        18.0479729
  entropy:            68.5001575
  heat_capacity:     102.6172398
  energy:             20.7879792

- temperature:        50.0000000
  free_energy:        17.2372902
  entropy:            93.3604657
  heat_capacity:     120.0701071
  energy:             21.9053134

- temperature:        60.0000000
  free_energy:        16.1864674
  entropy:           116.5240415
  heat_capacity:     134.0168410
  energy:             23.1779098

- temperature:        70.0000000
  free_energy:        14.9121345
  entropy:           138.0913353
  heat_capacity:     145.8011165
  energy:             24.5785280

- temperature:        80.0000000
  free_energy:        13.4293737
  entropy:           158.2377251
  heat_capacity:     155.9160422
  energy:             26.0883917

- temperature:        90.0000000
  free_energy:        11.7516032
  entropy:           177.1162203
  heat_capacity:     164.5938738
  energy:             27.6920630

- temperature:       100.0000000
  free_energy:         9.8908558
  entropy:           194.8520974
  heat_capacity:     172.0104606
  energy:             29.3760656

- temperature:       110.0000000
  free_energy:         7.8580165
  entropy:           211.5509726
  heat_capacity:     178.3321604
  energy:             31.1286234

- temperature:       120.0000000
  free_energy:         5.6629847
  entropy:           227.3050310
  heat_capacity:     183.7172679
  energy:             32.9395884

- temperature:       130.0000000
  free_energy:         3.3147904
  entropy:           242.1964585
  heat_capacity:     188.3101242
  energy:             34.8003300

- temperature:       140.0000000
  free_energy:         0.8216836
  entropy:           256.2992193
  heat_capacity:     192.2373839
  energy:             36.7035743

- temperature:       150.0000000
  free_energy:        -1.8087884
  entropy:           269.6800662
  heat_capacity:     195.6072370
  energy:             38.6432216

- temperature:       160.0000000
  free_energy:        -4.5697128
  entropy:           282.3992398
  heat_capacity:     198.5105335
  energy:             40.6141656

- temperature:       170.0000000
  free_energy:        -7.4547492
  entropy:           294.5110557
  heat_capacity:     201.0227967
  energy:             42.6121302

- temperature:       180.0000000
  free_energy:       -10.4580730
  entropy:           306.0644471
  heat_capacity:     203.2064796
  energy:             44.6335275

- temperature:       190.0000000
  free_energy:       -13.5743241
  entropy:           317.1034816
  heat_capacity:     205.1131250
  energy:             46.6753374

- temperature:       200.0000000
  free_energy:       -16.7985609
  entropy:           327.6678501
  heat_capacity:     206.7852816
  energy:             48.7350091

- temperature:       210.0000000
  free_energy:       -20.1262185
  entropy:           337.7933232
  heat_capacity:     208.2581346
  energy:             50.8103793

- temperature:       220.0000000
  free_energy:       -23.5530723
  entropy:           347.5121707
  heat_capacity:     209.5608589
  energy:             52.8996053

- temperature:       230.0000000
  free_energy:       -27.0752040
  entropy:           356.8535425
  heat_capacity:     210.7177273
  energy:             55.0011108

- temperature:       240.0000000
  free_energy:       -30.6889731
  entropy:           365.8438109
  heat_capacity:     211.7490105
  energy:             57.1135416

- temperature:       250.0000000
  free_energy:       -34.3909898
  entropy:           374.5068764
  heat_capacity:     212.6717046
  energy:             59.2357293

- temperature:       260.0000000
  free_energy:       -38.1780925
  entropy:           382.8644388
  heat_capacity:     213.5001190
  energy:             61.3666616

- temperature:       270.0000000
  free_energy:       -42.0473262
  entropy:           390.9362376
  heat_capacity:     214.2463510
  energy:             63.5054579

- temperature:       280.0000000
  free_energy:       -45.9959248
  entropy:           398.7402640
  heat_capacity:     214.9206705
  energy:             65.6513491

- temperature:       290.0000000
  free_energy:       -50.0212939
  entropy:           406.2929476
  heat_capacity:     215.5318311
  energy:             67.8036610

- temperature:       300.0000000
  free_energy:       -54.1209962
  entropy:           413.6093216
  heat_capacity:     216.0873243
  energy:             69.9618003

- temperature:       310.0000000
  free_energy:       -58.2927386
  entropy:           420.7031680
  heat_capacity:     216.5935856
  energy:             72.1252434

- temperature:       320.0000000
  free_energy:       -62.5343601
  entropy:           427.5871456
  heat_capacity:     217.0561651
  energy:             74.2935265

- temperature:       330.0000000
  free_energy:       -66.8438209
  entropy:           434.2729035
  heat_capacity:     217.4798660
  energy:             76.4662372

- temperature:       340.0000000
  free_energy:       -71.2191933
  entropy:           440.7711809
  heat_capacity:     217.8688601
  energy:             78.6430082

- temperature:       350.0000000
  free_energy:       -75.6586528
  entropy:           447.0918961
  heat_capacity:     218.2267830
  energy:             80.8235109

- temperature:       360.0000000
  free_energy:       -80.1604700
  entropy:           453.2442249
  heat_capacity:     218.5568134
  energy:             83.0074509

- temperature:       370.0000000
  free_energy:       -84.7230044
  entropy:           459.2366700
  heat_capacity:     218.8617392
  energy:             85.1945635

- temperature:       380.0000000
  free_energy:       -89.3446969
  entropy:           465.0771239
  heat_capacity:     219.1440129
  energy:             87.3846102

- temperature:       390.0000000
  free_energy:       -94.0240647
  entropy:           470.7729237
  heat_capacity:     219.4057986
  energy:             89.5773755

- temperature:       400.0000000
  free_energy:       -98.7596960
  entropy:           476.3309007
  heat_capacity:     219.6490106
  energy:             91.7726643

- temperature:       410.0000000
  free_energy:      -103.5502446
  entropy:           481.7574246
  heat_capacity:     219.8753475
  energy:             93.9702995

- temperature:       420.0000000
  free_energy:      -108.3944262
  entropy:           487.0584434
  heat_capacity:     220.0863198
  energy:             96.1701200

- temperature:       430.0000000
  free_energy:      -113.2910137
  entropy:           492.2395183
  heat_capacity:     220.2832745
  energy:             98.3719792

- temperature:       440.0000000
  free_energy:      -118.2388341
  entropy:           497.3058567
  heat_capacity:     220.4674156
  energy:            100.5757428

- temperature:       450.0000000
  free_energy:      -123.2367647
  entropy:           502.2623402
  heat_capacity:     220.6398216
  energy:            102.7812884

- temperature:       460.0000000
  free_energy:      -128.2837300
  entropy:           507.1135509
  heat_capacity:     220.8014607
  energy:            104.9885034

- temperature:       470.0000000
  free_energy:      -133.3786992
  entropy:           511.8637953
  heat_capacity:     220.9532044
  energy:            107.1972846

- temperature:       480.0000000
  free_energy:      -138.5206829
  entropy:           516.5171251
  heat_capacity:     221.0958381
  energy:            109.4075371

- temperature:       490.0000000
  free_energy:      -143.7087314
  entropy:           521.0773567
  heat_capacity:     221.2300717
  energy:            111.6191734

- temperature:       500.0000000
  free_energy:      -148.9419317
  entropy:           525.5480889
  heat_capacity:     221.3565475
  energy:            113.8321127

- temperature:       510.0000000
  free_energy:      -154.2194062
  entropy:           529.9327188
  heat_capacity:     221.4758482
  energy:            116.0462804

- temperature:       520.0000000
  free_energy:      -159.5403098
  entropy:           534.2344565
  heat_capacity:     221.5885029
  energy:            118.2616075

- temperature:       530.0000000
  free_energy:      -164.9038291
  entropy:           538.4563379
  heat_capacity:     221.6949934
  energy:            120.4780299

- temperature:       540.0000000
  free_energy:      -170.3091800
  entropy:           542.6012376
  heat_capacity:     221.7957587
  energy:            122.6954883

- temperature:       550.0000000
  free_energy:      -175.7556064
  entropy:           546.6718796
  heat_capacity:     221.8911996
  energy:            124.9139274

- temperature:       560.0000000
  free_energy:      -181.2423787
  entropy:           550.6708473
  heat_capacity:     221.9816827
  energy:            127.1332958

- temperature:       570.0000000
  free_energy:      -186.7687926
  entropy:           554.6005934
  heat_capacity:     222.0675439
  energy:            129.3535456

- temperature:       580.0000000
  free_energy:      -192.3341676
  entropy:           558.4634481
  heat_capacity:     222.1490909
  energy:            131.5746323

- temperature:       590.0000000
  free_energy:      -197.9378460
  entropy:           562.2616271
  heat_capacity:     222.2266068
  energy:            133.7965140

- temperature:       600.0000000
  free_energy:      -203.5791916
  entropy:           565.9972391
  heat_capacity:     222.3003516
  energy:            136.0191518

- temperature:       610.0000000
  free_energy:      -209.2575889
  entropy:           569.6722921
  heat_capacity:     222.3705649
  energy:            138.2425093

- temperature:       620.0000000
  free_energy:      -214.9724420
  entropy:           573.2887001
  heat_capacity:     222.4374676
  energy:            140.4665521

- temperature:       630.0000000
  free_energy:      -220.7231735
  entropy:           576.8482886
  heat_capacity:     222.5012639
  energy:            142.6912483

- temperature:       640.0000000
  free_energy:      -226.5092242
  entropy:           580.3527997
  heat_capacity:     222.5621422
  energy:            144.9165677

- temperature:       650.0000000
  free_energy:      -232.3300515
  entropy:           583.8038976
  heat_capacity:     222.6202772
  energy:            147.1424820

- temperature:       660.0000000
  free_energy:      -238.1851294
  entropy:           587.2031727
  heat_capacity:     222.6758306
  energy:            149.3689646

- temperature:       670.0000000
  free_energy:      -244.0739473
  entropy:           590.5521459
  heat_capacity:     222.7289524
  energy:            151.5959905

- temperature:       680.0000000
  free_energy:      -249.9960095
  entropy:           593.8522728
  heat_capacity:     222.7797820
  energy:            153.8235360

- temperature:       690.0000000
  free_energy:      -255.9508346
  entropy:           597.1049471
  heat_capacity:     222.8284490
  energy:            156.0515789

- temperature:       700.0000000
  free_energy:      -261.9379547
  entropy:           600.3115041
  heat_capacity:     222.8750738
  energy:            158.2800982

- temperature:       710.0000000
  free_energy:      -267.9569152
  entropy:           603.4732242
  heat_capacity:     222.9197689
  energy:            160.5090740

- temperature:       720.0000000
  free_energy:      -274.0072738
  entropy:           606.5913352
  heat_capacity:     222.9626388
  energy:            162.7384875

- temperature:       730.0000000
  free_energy:      -280.0886005
  entropy:           609.6670157
  heat_capacity:     223.0037812
  energy:            164.9683210

- temperature:       740.0000000
  free_energy:      -286.2004765
  entropy:           612.7013975
  heat_capacity:     223.0432876
  energy:            167.1985577

- temperature:       750.0000000
  free_energy:      -292.3424944
  entropy:           615.6955679
  heat_capacity:     223.0812433
  energy:            169.4291816

- temperature:       760.0000000
  free_energy:      -298.5142573
  entropy:           618.6505723
  heat_capacity:     223.1177280
  energy:            171.6601776

- temperature:       770.0000000
  free_energy:      -304.7153786
  entropy:           621.5674157
  heat_capacity:     223.1528167
  energy:            173.8915315

- temperature:       780.0000000
  free_energy:      -310.9454816
  entropy:           624.4470656
  heat_capacity:     223.1865795
  energy:            176.1232295

- temperature:       790.0000000
  free_energy:      -317.2041991
  entropy:           627.2904531
  heat_capacity:     223.2190822
  energy:            178.3552589

- temperature:       800.0000000
  free_energy:      -323.4911728
  entropy:           630.0984750
  heat_capacity:     223.2503864
  energy:            180.5876072

- temperature:       810.0000000
  free_energy:      -329.8060536
  entropy:           632.8719955
  heat_capacity:     223.2805504
  energy:            182.8202628

- temperature:       820.0000000
  free_energy:      -336.1485005
  entropy:           635.6118476
  heat_capacity:     223.3096286
  energy:            185.0532146

- temperature:       830.0000000
  free_energy:      -342.5181810
  entropy:           638.3188348
  heat_capacity:     223.3376724
  energy:            187.2864519

- temperature:       840.0000000
  free_energy:      -348.9147702
  entropy:           640.9937321
  heat_capacity:     223.3647303
  energy:            189.5199647

- temperature:       850.0000000
  free_energy:      -355.3379511
  entropy:           643.6372877
  heat_capacity:     223.3908477
  energy:            191.7537434

- temperature:       860.0000000
  free_energy:      -361.7874139
  entropy:           646.2502240
  heat_capacity:     223.4160677
  energy:            193.9877787

- temperature:       870.0000000
  free_energy:      -368.2628559
  entropy:           648.8332388
  heat_capacity:     223.4404307
  energy:            196.2220619

- temperature:       880.0000000
  free_energy:      -374.7639812
  entropy:           651.3870066
  heat_capacity:     223.4639752
  energy:            198.4565846

- temperature:       890.0000000
  free_energy:      -381.2905007
  entropy:           653.9121792
  heat_capacity:     223.4867373
  energy:            200.6913388

- temperature:       900.0000000
  free_energy:      -387.8421316
  entropy:           656.4093871
  heat_capacity:     223.5087512
  energy:            202.9263168

- temperature:       910.0000000
  free_energy:      -394.4185973
  entropy:           658.8792403
  heat_capacity:     223.5300493
  energy:            205.1615114

- temperature:       920.0000000
  free_energy:      -401.0196272
  entropy:           661.3223290
  heat_capacity:     223.5506622
  energy:            207.3969155

- temperature:       930.0000000
  free_energy:      -407.6449565
  entropy:           663.7392248
  heat_capacity:     223.5706190
  energy:            209.6325225

- temperature:       940.0000000
  free_energy:      -414.2943262
  entropy:           666.1304809
  heat_capacity:     223.5899471
  energy:            211.8683258

- temperature:       950.0000000
  free_energy:      -420.9674825
  entropy:           668.4966336
  heat_capacity:     223.6086726
  energy:            214.1043194

- temperature:       960.0000000
  free_energy:      -427.6641769
  entropy:           670.8382024
  heat_capacity:     223.6268204
  energy:            216.3404973

- temperature:       970.0000000
  free_energy:      -434.3841663
  entropy:           673.1556910
  heat_capacity:     223.6444137
  energy:            218.5768540

- temperature:       980.0000000
  free_energy:      -441.1272121
  entropy:           675.4495877
  heat_capacity:     223.6614751
  energy:            220.8133838

- temperature:       990.0000000
  free_energy:      -447.8930810
  entropy:           677.7203664
  heat_capacity:     223.6780256
  energy:            223.0500818

- temperature:      1000.0000000
  free_energy:      -454.6815439
  entropy:           679.9684866
  heat_capacity:     223.6940854
  energy:            225.2869427
