phonopy:
  version: "2.37.1"
  frequency_unit_conversion_factor: 15.633302
  symmetry_tolerance: 1.00000e-05

space_group:
  type: "Fd-3m"
  number: 227
  Hall_symbol: "F 4d 2 3 -1d"

primitive_matrix:
- [  0.000000000000000,  1.000000000000000,  0.000000000000000 ]
- [ -0.000000000000000,  0.000000000000000,  1.000000000000000 ]
- [  1.000000000000000,  0.000000000000000, -0.000000000000000 ]

supercell_matrix:
- [   2,   0,   0 ]
- [   0,   2,   0 ]
- [   0,   0,   2 ]

primitive_cell:
  lattice:
  - [     2.527688699693504,     1.459361517878948,     4.127698250594447 ] # a
  - [     5.055377406206162,     0.000000000000000,     0.000000000000000 ] # b
  - [     2.527688871811789,     4.378085101917392,    -0.000000000000000 ] # c
  points:
  - symbol: Li # 1
    coordinates: [  0.000000000729372,  0.999999999705591,  0.000000000359888 ]
    mass: 6.940000
  - symbol: Li # 2
    coordinates: [  0.249999999037629,  0.250000000673035,  0.250000000614699 ]
    mass: 6.940000
  - symbol: Sn # 3
    coordinates: [  0.500000002373865,  0.499999998729562,  0.500000004505514 ]
    mass: 118.710000
  - symbol: Sn # 4
    coordinates: [  0.749999997792385,  0.750000000958128,  0.749999994550440 ]
    mass: 118.710000
  reciprocal_lattice: # without 2pi
  - [     0.000000000000000,     0.000000000000000,     0.242265771209411 ] # a*
  - [     0.197809168267509,    -0.114205188280409,    -0.080755259268044 ] # b*
  - [     0.000000000000000,     0.228410361315738,    -0.080755246956584 ] # c*

unit_cell:
  lattice:
  - [     5.055377406206161,     0.000000000000000,     0.000000000000000 ] # a
  - [     2.527688871811788,     4.378085101917393,     0.000000000000000 ] # b
  - [     2.527688699693504,     1.459361517878949,     4.127698250594447 ] # c
  points:
  - symbol: Li # 1
    coordinates: [  0.999999999705591,  0.000000000359888,  0.000000000729372 ]
    mass: 6.940000
    reduced_to: 1
  - symbol: Li # 2
    coordinates: [  0.250000000673035,  0.250000000614699,  0.249999999037629 ]
    mass: 6.940000
    reduced_to: 2
  - symbol: Sn # 3
    coordinates: [  0.499999998729562,  0.500000004505514,  0.500000002373865 ]
    mass: 118.710000
    reduced_to: 3
  - symbol: Sn # 4
    coordinates: [  0.750000000958128,  0.749999994550440,  0.749999997792384 ]
    mass: 118.710000
    reduced_to: 4

supercell:
  lattice:
  - [    10.110754812412322,     0.000000000000000,     0.000000000000000 ] # a
  - [     5.055377743623576,     8.756170203834786,     0.000000000000000 ] # b
  - [     5.055377399387007,     2.918723035757897,     8.255396501188894 ] # c
  points:
  - symbol: Li # 1
    coordinates: [  0.499999999852796,  0.000000000179944,  0.000000000364686 ]
    mass: 6.940000
    reduced_to: 1
  - symbol: Li # 2
    coordinates: [  0.999999999852796,  0.000000000179944,  0.000000000364686 ]
    mass: 6.940000
    reduced_to: 1
  - symbol: Li # 3
    coordinates: [  0.499999999852796,  0.500000000179944,  0.000000000364686 ]
    mass: 6.940000
    reduced_to: 1
  - symbol: Li # 4
    coordinates: [  0.999999999852796,  0.500000000179944,  0.000000000364686 ]
    mass: 6.940000
    reduced_to: 1
  - symbol: Li # 5
    coordinates: [  0.499999999852796,  0.000000000179944,  0.500000000364686 ]
    mass: 6.940000
    reduced_to: 1
  - symbol: Li # 6
    coordinates: [  0.999999999852796,  0.000000000179944,  0.500000000364686 ]
    mass: 6.940000
    reduced_to: 1
  - symbol: Li # 7
    coordinates: [  0.499999999852796,  0.500000000179944,  0.500000000364686 ]
    mass: 6.940000
    reduced_to: 1
  - symbol: Li # 8
    coordinates: [  0.999999999852796,  0.500000000179944,  0.500000000364686 ]
    mass: 6.940000
    reduced_to: 1
  - symbol: Li # 9
    coordinates: [  0.125000000336518,  0.125000000307349,  0.124999999518814 ]
    mass: 6.940000
    reduced_to: 9
  - symbol: Li # 10
    coordinates: [  0.625000000336518,  0.125000000307349,  0.124999999518814 ]
    mass: 6.940000
    reduced_to: 9
  - symbol: Li # 11
    coordinates: [  0.125000000336518,  0.625000000307349,  0.124999999518814 ]
    mass: 6.940000
    reduced_to: 9
  - symbol: Li # 12
    coordinates: [  0.625000000336518,  0.625000000307349,  0.124999999518814 ]
    mass: 6.940000
    reduced_to: 9
  - symbol: Li # 13
    coordinates: [  0.125000000336518,  0.125000000307349,  0.624999999518814 ]
    mass: 6.940000
    reduced_to: 9
  - symbol: Li # 14
    coordinates: [  0.625000000336518,  0.125000000307349,  0.624999999518814 ]
    mass: 6.940000
    reduced_to: 9
  - symbol: Li # 15
    coordinates: [  0.125000000336518,  0.625000000307349,  0.624999999518814 ]
    mass: 6.940000
    reduced_to: 9
  - symbol: Li # 16
    coordinates: [  0.625000000336518,  0.625000000307349,  0.624999999518814 ]
    mass: 6.940000
    reduced_to: 9
  - symbol: Sn # 17
    coordinates: [  0.249999999364781,  0.250000002252757,  0.250000001186933 ]
    mass: 118.710000
    reduced_to: 17
  - symbol: Sn # 18
    coordinates: [  0.749999999364781,  0.250000002252757,  0.250000001186933 ]
    mass: 118.710000
    reduced_to: 17
  - symbol: Sn # 19
    coordinates: [  0.249999999364781,  0.750000002252757,  0.250000001186933 ]
    mass: 118.710000
    reduced_to: 17
  - symbol: Sn # 20
    coordinates: [  0.749999999364781,  0.750000002252757,  0.250000001186933 ]
    mass: 118.710000
    reduced_to: 17
  - symbol: Sn # 21
    coordinates: [  0.249999999364781,  0.250000002252757,  0.750000001186933 ]
    mass: 118.710000
    reduced_to: 17
  - symbol: Sn # 22
    coordinates: [  0.749999999364781,  0.250000002252757,  0.750000001186933 ]
    mass: 118.710000
    reduced_to: 17
  - symbol: Sn # 23
    coordinates: [  0.249999999364781,  0.750000002252757,  0.750000001186933 ]
    mass: 118.710000
    reduced_to: 17
  - symbol: Sn # 24
    coordinates: [  0.749999999364781,  0.750000002252757,  0.750000001186933 ]
    mass: 118.710000
    reduced_to: 17
  - symbol: Sn # 25
    coordinates: [  0.375000000479064,  0.374999997275220,  0.374999998896192 ]
    mass: 118.710000
    reduced_to: 25
  - symbol: Sn # 26
    coordinates: [  0.875000000479064,  0.374999997275220,  0.374999998896192 ]
    mass: 118.710000
    reduced_to: 25
  - symbol: Sn # 27
    coordinates: [  0.375000000479064,  0.874999997275220,  0.374999998896192 ]
    mass: 118.710000
    reduced_to: 25
  - symbol: Sn # 28
    coordinates: [  0.875000000479064,  0.874999997275220,  0.374999998896192 ]
    mass: 118.710000
    reduced_to: 25
  - symbol: Sn # 29
    coordinates: [  0.375000000479064,  0.374999997275220,  0.874999998896192 ]
    mass: 118.710000
    reduced_to: 25
  - symbol: Sn # 30
    coordinates: [  0.875000000479064,  0.374999997275220,  0.874999998896192 ]
    mass: 118.710000
    reduced_to: 25
  - symbol: Sn # 31
    coordinates: [  0.375000000479064,  0.874999997275220,  0.874999998896192 ]
    mass: 118.710000
    reduced_to: 25
  - symbol: Sn # 32
    coordinates: [  0.875000000479064,  0.874999997275220,  0.874999998896192 ]
    mass: 118.710000
    reduced_to: 25

displacements:
- atom:    1
  displacement:
    [   0.0100000000000000,  0.0000000000000000,  0.0000000000000000 ]
  forces:
  - [  -0.0094716772437096,  0.0000585019588470,  0.0000408198684454 ]
  - [   0.0001989100128412,  0.0000021718442440,  0.0000011501833797 ]
  - [   0.0000939927995205,  0.0000622887164354,  0.0001640710979700 ]
  - [   0.0000925872445805, -0.0000604167580605, -0.0001644007861614 ]
  - [   0.0000939457386266,  0.0001748787472025,  0.0000036023557186 ]
  - [   0.0000932617331273, -0.0001745836343616, -0.0000020489096642 ]
  - [  -0.0002090070483973, -0.0000002328888513,  0.0000000884756446 ]
  - [  -0.0001609363534953,  0.0000005639158189, -0.0000001732259989 ]
  - [   0.0025691974442452, -0.0017092621419579, -0.0012085912749171 ]
  - [   0.0025864052586257,  0.0017326131928712,  0.0012254214379936 ]
  - [  -0.0000143640208989, -0.0000014952383935,  0.0000022819731385 ]
  - [  -0.0004027255345136,  0.0000083463964984, -0.0000029155053198 ]
  - [  -0.0000143889337778,  0.0000015163095668, -0.0000020603183657 ]
  - [  -0.0004022512584925,  0.0000009632203728,  0.0000088645610958 ]
  - [   0.0001377531443723,  0.0000871527008712,  0.0000618143239990 ]
  - [   0.0001381204638164, -0.0000886039342731, -0.0000624801032245 ]
  - [   0.0002668193774298, -0.0000101754103525, -0.0000081459293142 ]
  - [  -0.0002242618938908,  0.0000031627589578,  0.0000012065283954 ]
  - [  -0.0004290635406505, -0.0003981216577813,  0.0001427058596164 ]
  - [  -0.0004327184287831,  0.0004094359464943, -0.0001469035632908 ]
  - [  -0.0004296446277294,  0.0000038249418139, -0.0004221654962748 ]
  - [  -0.0004342296160758, -0.0000022500753403,  0.0004325304180384 ]
  - [  -0.0002747438848019,  0.0000024177134037,  0.0000019781291485 ]
  - [  -0.0004273876547813,  0.0000050701200962,  0.0000044405460358 ]
  - [   0.0000150720798047,  0.0000711547327228,  0.0000506269279867 ]
  - [   0.0000117716117529, -0.0000761243645684, -0.0000523194903508 ]
  - [  -0.0004714354872704,  0.0000000838190317, -0.0000179503113031 ]
  - [   0.0001395980361849,  0.0000012301607057, -0.0000006090849638 ]
  - [  -0.0004716799594462, -0.0000167677644640,  0.0000068796798587 ]
  - [   0.0001433206198271,  0.0000006388872862,  0.0000024344772100 ]
  - [   0.0037904540076852,  0.0024474719539285,  0.0017317850142717 ]
  - [   0.0038992431946099, -0.0025354570243508, -0.0017919670790434 ]
- atom:   17
  displacement:
    [   0.0100000000000000,  0.0000000000000000,  0.0000000000000000 ]
  forces:
  - [   0.0002655480057001,  0.0000018123537302,  0.0000016847625375 ]
  - [  -0.0002253875136375,  0.0000013131648302,  0.0000006211921573 ]
  - [  -0.0004292525991332, -0.0004024729132652,  0.0001381486654282 ]
  - [  -0.0004338970175013,  0.0004026070237160, -0.0001531690359116 ]
  - [  -0.0004290214856155, -0.0000047532084864, -0.0004255957901478 ]
  - [  -0.0004332353128120, -0.0000096405565273,  0.0004305988550186 ]
  - [  -0.0002741323260125, -0.0000174444867298, -0.0000119619071484 ]
  - [  -0.0004262020229362, -0.0000018543796614, -0.0000019622966647 ]
  - [   0.0038042445667088,  0.0024587698280811,  0.0017389217391610 ]
  - [   0.0038829834666103, -0.0025258590467274, -0.0017856295453385 ]
  - [  -0.0004720718134195, -0.0000301193213090,  0.0000111598055810 ]
  - [   0.0001409095712006, -0.0000021081650630,  0.0000027253990993 ]
  - [  -0.0004720517899841, -0.0000001372536644, -0.0000323210842907 ]
  - [   0.0001412772107869,  0.0000030908267945, -0.0000038358848542 ]
  - [   0.0000152851789608,  0.0000706601422280,  0.0000501188915223 ]
  - [   0.0000129207837745, -0.0000750881154090, -0.0000531654804945 ]
  - [  -0.0190395563840866, -0.0000925862696022, -0.0000658135395497 ]
  - [   0.0008904007263482,  0.0000002129111181, -0.0000009050127119 ]
  - [  -0.0001437606842956,  0.0006005514878780, -0.0000782803399488 ]
  - [  -0.0001436799648218, -0.0005905639845878,  0.0000756422523409 ]
  - [  -0.0001437716418877,  0.0001283492892981,  0.0005929737817496 ]
  - [  -0.0001453324221075, -0.0001257210969925, -0.0005838479846716 ]
  - [  -0.0003628805279732, -0.0000007990747690, -0.0000003241002560 ]
  - [   0.0004483722150326, -0.0000017248094082, -0.0000001434236765 ]
  - [   0.0075771901756525,  0.0045628128573298,  0.0032264571636915 ]
  - [   0.0072558578103781, -0.0043519739992917, -0.0030765798874199 ]
  - [  -0.0003012565430254, -0.0000016025733203,  0.0000032614916563 ]
  - [  -0.0001123293768615,  0.0000009888317436, -0.0000030305236578 ]
  - [  -0.0003015443217009,  0.0000021731248125, -0.0000025716144592 ]
  - [  -0.0001086256525014, -0.0000015348196030,  0.0000029858201742 ]
  - [  -0.0000202234368771, -0.0000516048021382, -0.0000355411320925 ]
  - [  -0.0000167863909155,  0.0000542707275599,  0.0000394210219383 ]

force_constants:
  format: "full"
  shape: [ 32, 32 ]
  elements:
  - # (1, 1)
    - [     0.947157454243006,    -0.000000001934987,     0.000000001117367 ]
    - [    -0.000000001934987,     0.947157456709178,     0.000000002604853 ]
    - [     0.000000001117367,     0.000000002604853,     0.947157454456495 ]
  - # (1, 2)
    - [    -0.019922149146428,    -0.000000000851134,     0.000000000951464 ]
    - [     0.000000000491884,    -0.005836880383010,    -0.018922994989618 ]
    - [    -0.000000002109239,    -0.018922995289224,     0.007543697235383 ]
  - # (1, 3)
    - [    -0.009358198049511,    -0.006099099380268,    -0.016387793985051 ]
    - [    -0.006099101746008,    -0.016400831837152,     0.009461500178283 ]
    - [    -0.016387797104688,     0.009461497138090,     0.007543698126548 ]
  - # (1, 4)
    - [    -0.009358199685153,     0.006099097709942,     0.016387796375173 ]
    - [     0.006099098509894,    -0.016400831323688,     0.009461498798740 ]
    - [     0.016387796850029,     0.009461498588248,     0.007543698565750 ]
  - # (1, 5)
    - [    -0.009358199562213,    -0.017483595309880,    -0.000287686821222 ]
    - [    -0.017483595673017,     0.010830120512624,    -0.000166093866286 ]
    - [    -0.000287688226778,    -0.000166093933714,    -0.019687252595107 ]
  - # (1, 6)
    - [    -0.009358199220840,     0.017483593394129,     0.000287688076820 ]
    - [     0.017483595717519,     0.010830117981317,    -0.000166096437197 ]
    - [     0.000287688745846,    -0.000166093484376,    -0.019687252720875 ]
  - # (1, 7)
    - [     0.020924276715516,    -0.000000001048276,     0.000000001065794 ]
    - [    -0.000000002552682,    -0.019452357125733,     0.000332194210303 ]
    - [     0.000000001275482,     0.000332194401312,    -0.019687253765204 ]
  - # (1, 8)
    - [     0.016083365412985,    -0.000000001469146,     0.000000000758831 ]
    - [    -0.000000001487883,     0.016083366463346,     0.000000001937649 ]
    - [     0.000000000300505,     0.000000001785463,     0.016083365643689 ]
  - # (1, 9)
    - [    -0.257804395396054,     0.172083265286646,     0.121681246058797 ]
    - [     0.172083274333432,    -0.059099766928851,    -0.070252703001265 ]
    - [     0.121681239963755,    -0.070252695304920,    -0.009423598741355 ]
  - # (1, 10)
    - [    -0.257804400218099,    -0.172083256870187,    -0.121681247253187 ]
    - [    -0.172083257320572,    -0.059099747022691,    -0.070252696060479 ]
    - [    -0.121681248981698,    -0.070252696826555,    -0.009423604303370 ]
  - # (1, 11)
    - [     0.001424949404052,    -0.000000000470162,     0.000000000724380 ]
    - [    -0.000000000591043,     0.001424950300951,    -0.000000000376913 ]
    - [    -0.000000000369184,     0.000000000104129,    -0.021414756916615 ]
  - # (1, 12)
    - [     0.040252558611918,     0.000000002548337,    -0.000000000447571 ]
    - [    -0.000000010314166,    -0.357156728799398,     0.140505394766289 ]
    - [     0.000000003284716,     0.140505375260988,    -0.009423587815801 ]
  - # (1, 13)
    - [     0.001424949752789,     0.000000000332351,     0.000000001455974 ]
    - [    -0.000000000801690,    -0.018877011928984,     0.007177827101717 ]
    - [    -0.000000000038717,     0.007177825930126,    -0.001112795177554 ]
  - # (1, 14)
    - [     0.040252559070360,    -0.000000002243078,    -0.000000007838423 ]
    - [    -0.000000000932033,     0.040252562648878,    -0.000000008641129 ]
    - [     0.000000004552887,     0.000000012474634,    -0.406832872283615 ]
  - # (1, 15)
    - [    -0.013801522170286,    -0.008791008054296,    -0.006216181717119 ]
    - [    -0.008791007142844,    -0.003650538397635,    -0.003588911218919 ]
    - [    -0.006216181092482,    -0.003588911816875,    -0.001112797175063 ]
  - # (1, 16)
    - [    -0.013801522076829,     0.008791007159123,     0.006216182011899 ]
    - [     0.008791005996892,    -0.003650540091413,    -0.003588912269373 ]
    - [     0.006216180771809,    -0.003588911672080,    -0.001112795730789 ]
  - # (1, 17)
    - [    -0.026619618093511,     0.000000000821290,     0.000000000227914 ]
    - [    -0.000000001224737,     0.066390888228825,     0.016766032263858 ]
    - [     0.000000000867972,     0.016766032034072,     0.054535515275449 ]
  - # (1, 18)
    - [     0.022482358388306,    -0.000000001650470,    -0.000000000999513 ]
    - [    -0.000000001192478,     0.022482357476835,     0.000000000211347 ]
    - [    -0.000000000762346,     0.000000000505277,     0.022482357416309 ]
  - # (1, 19)
    - [     0.043138259830193,     0.040274727474934,    -0.014519803432817 ]
    - [     0.040274728801395,    -0.003366995082509,    -0.008383012200655 ]
    - [    -0.014519803944084,    -0.008383013225724,     0.054535514129226 ]
  - # (1, 20)
    - [     0.043138257200584,    -0.040274733528479,     0.014519806813281 ]
    - [    -0.040274732413773,    -0.003366987904209,    -0.008383014937733 ]
    - [     0.014519806502457,    -0.008383011871618,     0.054535515328806 ]
  - # (1, 21)
    - [     0.043138260000951,    -0.000264497731872,     0.042811314670099 ]
    - [    -0.000264496851751,     0.042832849384841,    -0.024717124943774 ]
    - [     0.042811314920219,    -0.024717123253007,     0.008335673088583 ]
  - # (1, 22)
    - [     0.043138259833571,     0.000264492757152,    -0.042811314264097 ]
    - [     0.000264494227187,     0.042832851922369,    -0.024717119839234 ]
    - [    -0.042811314814488,    -0.024717120853130,     0.008335673738639 ]
  - # (1, 23)
    - [     0.027443695461144,    -0.000000002506633,     0.000000002083006 ]
    - [    -0.000000002828482,     0.027443698796765,     0.000000004614800 ]
    - [     0.000000001837696,     0.000000003887569,     0.027443697424646 ]
  - # (1, 24)
    - [     0.042680140913218,    -0.000000003241253,     0.000000002415760 ]
    - [    -0.000000002260638,     0.043290968335127,     0.049434251975083 ]
    - [     0.000000001455198,     0.049434251224601,     0.008335679803072 ]
  - # (1, 25)
    - [    -0.001397043649790,    -0.007338133157493,    -0.005188840344844 ]
    - [    -0.007338133719713,    -0.009870385269324,     0.002995780596104 ]
    - [    -0.005188840282980,     0.002995782303367,    -0.011988723298953 ]
  - # (1, 26)
    - [    -0.001397043719701,     0.007338131074070,     0.005188845109085 ]
    - [     0.007338130345352,    -0.009870385737104,     0.002995781964580 ]
    - [     0.005188843879439,     0.002995781209423,    -0.011988724903582 ]
  - # (1, 27)
    - [     0.047182716483898,    -0.000000000883292,    -0.000000008333665 ]
    - [    -0.000000001186549,     0.047182718729571,    -0.000000009737767 ]
    - [     0.000000004041854,     0.000000015026218,    -0.600229006400939 ]
  - # (1, 28)
    - [    -0.014107061239331,    -0.000000001650025,     0.000000001844865 ]
    - [    -0.000000000092452,     0.002839632110584,    -0.005991556607755 ]
    - [     0.000000001507013,    -0.005991556238698,    -0.011988726244861 ]
  - # (1, 29)
    - [     0.047182716190550,     0.000000011518288,    -0.000000002083239 ]
    - [    -0.000000014324575,    -0.528294382832502,     0.203461867440722 ]
    - [     0.000000003375436,     0.203461838044714,    -0.024751899421704 ]
  - # (1, 30)
    - [    -0.014107061595092,    -0.000000002169282,     0.000000000685822 ]
    - [    -0.000000000087805,    -0.014107056567080,     0.000000002248602 ]
    - [     0.000000002398084,     0.000000002305417,     0.004957965210791 ]
  - # (1, 31)
    - [    -0.384425085168344,    -0.249188868482144,    -0.176203154418332 ]
    - [    -0.249188878962280,    -0.096686537763548,    -0.101730934545229 ]
    - [    -0.176203181208824,    -0.101730946818628,    -0.024751934383134 ]
  - # (1, 32)
    - [    -0.384425078521858,     0.249188882556097,     0.176203149492747 ]
    - [     0.249188917218601,    -0.096686574606380,    -0.101730951239607 ]
    - [     0.176203161287743,    -0.101730944239954,    -0.024751923564863 ]
  - # (2, 1)
    - [    -0.019922149146428,     0.000000000491884,    -0.000000002109239 ]
    - [    -0.000000000851134,    -0.005836880383010,    -0.018922995289224 ]
    - [     0.000000000951464,    -0.018922994989618,     0.007543697235383 ]
  - # (2, 2)
    - [     0.947157394730165,    -0.000000071775111,     0.000000063936060 ]
    - [    -0.000000071775111,     0.947157500757199,     0.000000027312012 ]
    - [     0.000000063936060,     0.000000027312012,     0.947157469737474 ]
  - # (2, 3)
    - [    -0.009358196895833,     0.006099101906975,     0.016387793832458 ]
    - [     0.006099101746061,    -0.016400834819373,     0.009461497184559 ]
    - [     0.016387793510179,     0.009461495669811,     0.007543700734825 ]
  - # (2, 4)
    - [    -0.009358198519471,    -0.006099100743365,    -0.016387797110355 ]
    - [    -0.006099098918672,    -0.016400832210350,     0.009461498326038 ]
    - [    -0.016387794557891,     0.009461499448810,     0.007543699076245 ]
  - # (2, 5)
    - [    -0.009358198277410,     0.017483596455194,     0.000287688631715 ]
    - [     0.017483594884847,     0.010830116998085,    -0.000166094132596 ]
    - [     0.000287687758663,    -0.000166094955417,    -0.019687251796438 ]
  - # (2, 6)
    - [    -0.009358197967298,    -0.017483595128032,    -0.000287691973878 ]
    - [    -0.017483593495017,     0.010830119848178,    -0.000166098371176 ]
    - [    -0.000287690944565,    -0.000166096159388,    -0.019687251978309 ]
  - # (2, 7)
    - [     0.016083365971718,    -0.000000000092019,    -0.000000000948636 ]
    - [    -0.000000001214561,     0.016083365516041,     0.000000000657624 ]
    - [     0.000000000986587,     0.000000001301036,     0.016083366047003 ]
  - # (2, 8)
    - [     0.020924276192987,    -0.000000001346101,     0.000000000117080 ]
    - [    -0.000000000469501,    -0.019452357413744,     0.000332194305417 ]
    - [    -0.000000000719141,     0.000332194613782,    -0.019687253107632 ]
  - # (2, 9)
    - [    -0.257804384265029,    -0.172083250054416,    -0.121681259989022 ]
    - [    -0.172083239654856,    -0.059099737853622,    -0.070252699953283 ]
    - [    -0.121681246256224,    -0.070252696131459,    -0.009423610109223 ]
  - # (2, 10)
    - [    -0.257804384060686,     0.172083280643184,     0.121681237047262 ]
    - [     0.172083258536543,    -0.059099770853288,    -0.070252694916755 ]
    - [     0.121681240774441,    -0.070252706360799,    -0.009423596722114 ]
  - # (2, 11)
    - [     0.040252557792109,     0.000000006069764,    -0.000000002095086 ]
    - [     0.000000008841337,    -0.357156728771477,     0.140505386092743 ]
    - [    -0.000000003192292,     0.140505373397971,    -0.009423583107265 ]
  - # (2, 12)
    - [     0.001424950376029,     0.000000000181300,    -0.000000002005315 ]
    - [     0.000000000389263,     0.001424948263213,    -0.000000000677616 ]
    - [    -0.000000001824642,     0.000000000703104,    -0.021414756474430 ]
  - # (2, 13)
    - [     0.040252557712531,    -0.000000001518310,    -0.000000003139901 ]
    - [    -0.000000002027299,     0.040252560441611,    -0.000000009712039 ]
    - [    -0.000000010891044,     0.000000005068504,    -0.406832882523565 ]
  - # (2, 14)
    - [     0.001424950406157,    -0.000000000138439,    -0.000000002077581 ]
    - [     0.000000001453547,    -0.018877012814548,     0.007177826121760 ]
    - [    -0.000000000460432,     0.007177825961192,    -0.001112794722050 ]
  - # (2, 15)
    - [    -0.013801520991405,     0.008791007718808,     0.006216177683516 ]
    - [     0.008791007364091,    -0.003650541554510,    -0.003588912688172 ]
    - [     0.006216180300955,    -0.003588912674158,    -0.001112795624928 ]
  - # (2, 16)
    - [    -0.013801521316663,    -0.008791005043056,    -0.006216182293382 ]
    - [    -0.008791006554208,    -0.003650540653512,    -0.003588913717685 ]
    - [    -0.006216181187358,    -0.003588912160862,    -0.001112795202665 ]
  - # (2, 17)
    - [     0.022482356471660,    -0.000000000443557,    -0.000000000712023 ]
    - [    -0.000000002644877,     0.022482358378181,     0.000000002425402 ]
    - [     0.000000001321336,     0.000000002643141,     0.022482358551393 ]
  - # (2, 18)
    - [    -0.026619613380742,     0.000000001893841,    -0.000000003625807 ]
    - [     0.000000000588213,     0.066390888934732,     0.016766030967754 ]
    - [    -0.000000001686219,     0.016766031826082,     0.054535517540177 ]
  - # (2, 19)
    - [     0.043138260185082,    -0.040274730425327,     0.014519805995339 ]
    - [    -0.040274731571289,    -0.003366990160429,    -0.008383016832163 ]
    - [     0.014519805681092,    -0.008383017004799,     0.054535516905263 ]
  - # (2, 20)
    - [     0.043138257455186,     0.040274726314036,    -0.014519804569172 ]
    - [     0.040274728557329,    -0.003366994804999,    -0.008383013588332 ]
    - [    -0.014519803633869,    -0.008383010788395,     0.054535515733085 ]
  - # (2, 21)
    - [     0.043138257359506,     0.000264493401544,    -0.042811312309611 ]
    - [     0.000264489894289,     0.042832848508518,    -0.024717121375078 ]
    - [    -0.042811314780496,    -0.024717121267844,     0.008335669464917 ]
  - # (2, 22)
    - [     0.043138259212310,    -0.000264499170695,     0.042811315479412 ]
    - [    -0.000264499283416,     0.042832851123564,    -0.024717122330994 ]
    - [     0.042811314395177,    -0.024717125448458,     0.008335677088211 ]
  - # (2, 23)
    - [     0.042680138861627,    -0.000000003543314,     0.000000002552097 ]
    - [    -0.000000002108213,     0.043290966357642,     0.049434254205862 ]
    - [     0.000000000787599,     0.049434253493947,     0.008335678358761 ]
  - # (2, 24)
    - [     0.027443696837947,    -0.000000002061069,     0.000000000687139 ]
    - [    -0.000000001651774,     0.027443697307088,     0.000000000476244 ]
    - [     0.000000000744004,     0.000000000952203,     0.027443699372834 ]
  - # (2, 25)
    - [    -0.001397043103176,     0.007338131941084,     0.005188843724174 ]
    - [     0.007338131754460,    -0.009870387954587,     0.002995779313342 ]
    - [     0.005188844883001,     0.002995780751637,    -0.011988722336650 ]
  - # (2, 26)
    - [    -0.001397043187644,    -0.007338131405247,    -0.005188843010119 ]
    - [    -0.007338131359979,    -0.009870386456389,     0.002995780556879 ]
    - [    -0.005188843354055,     0.002995780722809,    -0.011988724259461 ]
  - # (2, 27)
    - [    -0.014107057656837,     0.000000002267916,    -0.000000002052398 ]
    - [     0.000000001520381,     0.002839627301795,    -0.005991561705331 ]
    - [    -0.000000002933785,    -0.005991561514647,    -0.011988724185392 ]
  - # (2, 28)
    - [     0.047182714968408,    -0.000000003163997,     0.000000011431538 ]
    - [    -0.000000001920494,     0.047182718939148,     0.000000016160770 ]
    - [    -0.000000015528579,     0.000000008262068,    -0.600229023688263 ]
  - # (2, 29)
    - [    -0.014107058626683,     0.000000003639985,    -0.000000001035134 ]
    - [     0.000000002191692,    -0.014107062922672,    -0.000000002541591 ]
    - [    -0.000000002469345,    -0.000000003348729,     0.004957966833432 ]
  - # (2, 30)
    - [     0.047182715225978,    -0.000000008273983,     0.000000001467652 ]
    - [     0.000000014463861,    -0.528294383019669,     0.203461858242220 ]
    - [    -0.000000003038469,     0.203461871158977,    -0.024751906075637 ]
  - # (2, 31)
    - [    -0.384425075541998,     0.249188909193712,     0.176203140446388 ]
    - [     0.249188913972171,    -0.096686590660331,    -0.101730945778321 ]
    - [     0.176203159741585,    -0.101730953471374,    -0.024751918986146 ]
  - # (2, 32)
    - [    -0.384425066822098,    -0.249188857793188,    -0.176203171975167 ]
    - [    -0.249188870657689,    -0.096686535368486,    -0.101730948738271 ]
    - [    -0.176203178313737,    -0.101730947011137,    -0.024751941778833 ]
  - # (3, 1)
    - [    -0.009358198049511,    -0.006099101746008,    -0.016387797104688 ]
    - [    -0.006099099380268,    -0.016400831837152,     0.009461497138090 ]
    - [    -0.016387793985051,     0.009461500178283,     0.007543698126548 ]
  - # (3, 2)
    - [    -0.009358196895833,     0.006099101746061,     0.016387793510179 ]
    - [     0.006099101906975,    -0.016400834819373,     0.009461495669811 ]
    - [     0.016387793832458,     0.009461497184559,     0.007543700734825 ]
  - # (3, 3)
    - [     0.947157393428691,    -0.000000070896775,     0.000000025329498 ]
    - [    -0.000000070896775,     0.947157502654561,     0.000000092988251 ]
    - [     0.000000025329498,     0.000000092988251,     0.947157468459925 ]
  - # (3, 4)
    - [    -0.019922149619613,     0.000000000264689,    -0.000000001721944 ]
    - [     0.000000001089067,    -0.005836880752185,    -0.018922997227161 ]
    - [     0.000000001609586,    -0.018922996754726,     0.007543696617616 ]
  - # (3, 5)
    - [     0.020924275426568,    -0.000000001369810,     0.000000000207066 ]
    - [     0.000000000568622,    -0.019452357239259,     0.000332193055514 ]
    - [     0.000000000250661,     0.000332194091871,    -0.019687252410706 ]
  - # (3, 6)
    - [     0.016083364325255,    -0.000000001761415,    -0.000000001386397 ]
    - [     0.000000000319983,     0.016083365782484,    -0.000000000945320 ]
    - [     0.000000000705825,     0.000000001476816,     0.016083366452340 ]
  - # (3, 7)
    - [    -0.009358195820237,    -0.017483593796569,    -0.000287691140263 ]
    - [    -0.017483594971843,     0.010830119700429,    -0.000166098267504 ]
    - [    -0.000287688357262,    -0.000166097014748,    -0.019687253674380 ]
  - # (3, 8)
    - [    -0.009358197650369,     0.017483595511855,     0.000287688401908 ]
    - [     0.017483594726430,     0.010830116678954,    -0.000166095891365 ]
    - [     0.000287689132815,    -0.000166096994105,    -0.019687253776007 ]
  - # (3, 9)
    - [     0.001424949145087,     0.000000000221648,    -0.000000001667938 ]
    - [     0.000000001393716,     0.001424949771609,    -0.000000000070847 ]
    - [     0.000000000831193,     0.000000000283547,    -0.021414756678770 ]
  - # (3, 10)