phonopy:
  version: "2.37.1"
  frequency_unit_conversion_factor: 15.633302
  symmetry_tolerance: 1.00000e-05

space_group:
  type: "I4/mmm"
  number: 139
  Hall_symbol: "-I 4 2"

primitive_matrix:
- [  0.000000000000000,  1.000000000000000, -0.000000000000000 ]
- [  0.000000000000000,  1.000000000000000, -1.000000000000000 ]
- [ -1.000000000000000,  1.000000000000000,  0.000000000000000 ]

supercell_matrix:
- [   2,   0,   0 ]
- [   0,   2,   0 ]
- [   0,   0,   2 ]

primitive_cell:
  lattice:
  - [     3.884721784878613,     2.686564326209481,    -3.266438519871641 ] # a
  - [     3.884721379448786,     2.686564695203478,     3.266438519871641 ] # b
  - [    -2.026768580910169,    -5.373129021412960,     0.000000000000000 ] # c
  points:
  - symbol: Li # 1
    coordinates: [  0.999999994940242,  0.000000002402160,  0.999999996012452 ]
    mass: 6.940000
  - symbol: Sn # 2
    coordinates: [  0.250000004959235,  0.750000005443645,  0.500000006981456 ]
    mass: 118.710000
  - symbol: Sn # 3
    coordinates: [  0.749999996679583,  0.250000003995675,  0.500000002322848 ]
    mass: 118.710000
  - symbol: Sn # 4
    coordinates: [  0.500000003313922,  0.499999988159499,  0.999999994580569 ]
    mass: 118.710000
  reciprocal_lattice: # without 2pi
  - [     0.174134888800358,    -0.065684468036102,    -0.153071900646494 ] # a*
  - [     0.174134888800358,    -0.065684468036102,     0.153071929680150 ] # b*
  - [     0.174134888800358,    -0.251795762965892,     0.000000025028881 ] # c*

unit_cell:
  lattice:
  - [     5.742674583417229,     0.000000000000000,     0.000000000000000 ] # a
  - [     2.026768580910169,     5.373129021412961,     0.000000000000000 ] # b
  - [    -3.884721784878612,    -2.686564326209480,     3.266438519871642 ] # c
  points:
  - symbol: Li # 1
    coordinates: [  0.000000002402160,  0.000000006389708,  0.000000007461918 ]
    mass: 6.940000
    reduced_to: 1
  - symbol: Sn # 2
    coordinates: [  0.750000005443645,  0.249999998462188,  0.500000000484410 ]
    mass: 118.710000
    reduced_to: 2
  - symbol: Sn # 3
    coordinates: [  0.250000003995675,  0.750000001672827,  0.500000007316092 ]
    mass: 118.710000
    reduced_to: 3
  - symbol: Sn # 4
    coordinates: [  0.499999988159499,  0.499999993578931,  0.999999984845578 ]
    mass: 118.710000
    reduced_to: 4

supercell:
  lattice:
  - [    11.485349166834459,     0.000000000000000,     0.000000000000000 ] # a
  - [     4.053537161820337,    10.746258042825922,     0.000000000000000 ] # b
  - [    -7.769443569757224,    -5.373128652418961,     6.532877039743283 ] # c
  points:
  - symbol: Li # 1
    coordinates: [  0.000000001201080,  0.000000003194854,  0.000000003730959 ]
    mass: 6.940000
    reduced_to: 1
  - symbol: Li # 2
    coordinates: [  0.500000001201080,  0.000000003194854,  0.000000003730959 ]
    mass: 6.940000
    reduced_to: 1
  - symbol: Li # 3
    coordinates: [  0.000000001201080,  0.500000003194854,  0.000000003730959 ]
    mass: 6.940000
    reduced_to: 1
  - symbol: Li # 4
    coordinates: [  0.500000001201080,  0.500000003194854,  0.000000003730959 ]
    mass: 6.940000
    reduced_to: 1
  - symbol: Li # 5
    coordinates: [  0.000000001201080,  0.000000003194854,  0.500000003730959 ]
    mass: 6.940000
    reduced_to: 1
  - symbol: Li # 6
    coordinates: [  0.500000001201080,  0.000000003194854,  0.500000003730959 ]
    mass: 6.940000
    reduced_to: 1
  - symbol: Li # 7
    coordinates: [  0.000000001201080,  0.500000003194854,  0.500000003730959 ]
    mass: 6.940000
    reduced_to: 1
  - symbol: Li # 8
    coordinates: [  0.500000001201080,  0.500000003194854,  0.500000003730959 ]
    mass: 6.940000
    reduced_to: 1
  - symbol: Sn # 9
    coordinates: [  0.375000002721822,  0.124999999231094,  0.250000000242205 ]
    mass: 118.710000
    reduced_to: 9
  - symbol: Sn # 10
    coordinates: [  0.875000002721822,  0.124999999231094,  0.250000000242205 ]
    mass: 118.710000
    reduced_to: 9
  - symbol: Sn # 11
    coordinates: [  0.375000002721822,  0.624999999231094,  0.250000000242205 ]
    mass: 118.710000
    reduced_to: 9
  - symbol: Sn # 12
    coordinates: [  0.875000002721822,  0.624999999231094,  0.250000000242205 ]
    mass: 118.710000
    reduced_to: 9
  - symbol: Sn # 13
    coordinates: [  0.375000002721822,  0.124999999231094,  0.750000000242205 ]
    mass: 118.710000
    reduced_to: 9
  - symbol: Sn # 14
    coordinates: [  0.875000002721822,  0.124999999231094,  0.750000000242205 ]
    mass: 118.710000
    reduced_to: 9
  - symbol: Sn # 15
    coordinates: [  0.375000002721822,  0.624999999231094,  0.750000000242205 ]
    mass: 118.710000
    reduced_to: 9
  - symbol: Sn # 16
    coordinates: [  0.875000002721822,  0.624999999231094,  0.750000000242205 ]
    mass: 118.710000
    reduced_to: 9
  - symbol: Sn # 17
    coordinates: [  0.125000001997837,  0.375000000836413,  0.250000003658046 ]
    mass: 118.710000
    reduced_to: 17
  - symbol: Sn # 18
    coordinates: [  0.625000001997837,  0.375000000836413,  0.250000003658046 ]
    mass: 118.710000
    reduced_to: 17
  - symbol: Sn # 19
    coordinates: [  0.125000001997837,  0.875000000836413,  0.250000003658046 ]
    mass: 118.710000
    reduced_to: 17
  - symbol: Sn # 20
    coordinates: [  0.625000001997837,  0.875000000836413,  0.250000003658046 ]
    mass: 118.710000
    reduced_to: 17
  - symbol: Sn # 21
    coordinates: [  0.125000001997837,  0.375000000836413,  0.750000003658046 ]
    mass: 118.710000
    reduced_to: 17
  - symbol: Sn # 22
    coordinates: [  0.625000001997837,  0.375000000836413,  0.750000003658046 ]
    mass: 118.710000
    reduced_to: 17
  - symbol: Sn # 23
    coordinates: [  0.125000001997837,  0.875000000836413,  0.750000003658046 ]
    mass: 118.710000
    reduced_to: 17
  - symbol: Sn # 24
    coordinates: [  0.625000001997837,  0.875000000836413,  0.750000003658046 ]
    mass: 118.710000
    reduced_to: 17
  - symbol: Sn # 25
    coordinates: [  0.249999994079750,  0.249999996789465,  0.499999992422789 ]
    mass: 118.710000
    reduced_to: 25
  - symbol: Sn # 26
    coordinates: [  0.749999994079750,  0.249999996789465,  0.499999992422789 ]
    mass: 118.710000
    reduced_to: 25
  - symbol: Sn # 27
    coordinates: [  0.249999994079750,  0.749999996789465,  0.499999992422789 ]
    mass: 118.710000
    reduced_to: 25
  - symbol: Sn # 28
    coordinates: [  0.749999994079750,  0.749999996789465,  0.499999992422789 ]
    mass: 118.710000
    reduced_to: 25
  - symbol: Sn # 29
    coordinates: [  0.249999994079750,  0.249999996789465,  0.999999992422789 ]
    mass: 118.710000
    reduced_to: 25
  - symbol: Sn # 30
    coordinates: [  0.749999994079750,  0.249999996789465,  0.999999992422789 ]
    mass: 118.710000
    reduced_to: 25
  - symbol: Sn # 31
    coordinates: [  0.249999994079750,  0.749999996789465,  0.999999992422789 ]
    mass: 118.710000
    reduced_to: 25
  - symbol: Sn # 32
    coordinates: [  0.749999994079750,  0.749999996789465,  0.999999992422789 ]
    mass: 118.710000
    reduced_to: 25

displacements:
- atom:    1
  displacement:
    [   0.0100000000000000,  0.0000000000000000,  0.0000000000000000 ]
  forces:
  - [  -0.0123056191951036, -0.0010146475397050,  0.0000000421100665 ]
  - [   0.0004422264173627,  0.0000133961439133, -0.0000002193264663 ]
  - [   0.0001038555055857,  0.0001417687162757,  0.0000001003209036 ]
  - [  -0.0002954898518510,  0.0007289919885807, -0.0000004022476219 ]
  - [   0.0002249370154459,  0.0001474152813898, -0.0001488048583269 ]
  - [  -0.0003408374323044, -0.0002670231624506,  0.0003272797912359 ]
  - [  -0.0003409808268771, -0.0002672865812201, -0.0003269556909800 ]
  - [   0.0002244524366688,  0.0001473438169342,  0.0001489799469709 ]
  - [   0.0023307688534260,  0.0002641575410962,  0.0012934887781739 ]
  - [   0.0022683781571686,  0.0002589300274849, -0.0012498348951340 ]
  - [  -0.0000178581103683, -0.0000415276736021,  0.0000636829063296 ]
  - [  -0.0000201533548534, -0.0000440175645053, -0.0000649355351925 ]
  - [   0.0000012908130884, -0.0000647056149319,  0.0000349245965481 ]
  - [   0.0002402402460575,  0.0008365951944143, -0.0003710119053721 ]
  - [  -0.0000014416873455, -0.0000672979513183, -0.0000352105125785 ]
  - [   0.0002476014196873,  0.0008378073107451,  0.0003701085224748 ]
  - [   0.0002413359470665,  0.0008368240669370,  0.0003708433359861 ]
  - [   0.0000015958212316, -0.0000641827937216, -0.0000342773273587 ]
  - [   0.0002487171441317,  0.0008376657497138, -0.0003703352995217 ]
  - [  -0.0000011851079762, -0.0000670095905662,  0.0000352635979652 ]
  - [  -0.0000167805701494, -0.0000410676002502, -0.0000633783638477 ]
  - [  -0.0000198059715331, -0.0000435062684119,  0.0000649010762572 ]
  - [   0.0023314524441957,  0.0002634418196976, -0.0012932401150465 ]
  - [   0.0022688694298267,  0.0002591209486127,  0.0012497212737799 ]
  - [  -0.0002536190440878, -0.0001072175582522, -0.0000083185732365 ]
  - [  -0.0000400983262807,  0.0000214516185224, -0.0000008028000593 ]
  - [  -0.0000393271911889,  0.0000209105201066,  0.0000000828877091 ]
  - [  -0.0002540175628383, -0.0001076842163457,  0.0000081406906247 ]
  - [   0.0003473625401966,  0.0002520232810639,  0.0000005783513188 ]
  - [   0.0010256264358759, -0.0019488725811243,  0.0000000018626451 ]
  - [   0.0010370092932135, -0.0019828090444207,  0.0000000074505806 ]
  - [   0.0003614875022322,  0.0002610045485198, -0.0000004200264812 ]
- atom:    9
  displacement:
    [   0.0100000000000000,  0.0000000000000000,  0.0000000000000000 ]
  forces:
  - [   0.0022616346832365,  0.0000611896102782,  0.0014081860426813 ]
  - [   0.0023380685597658,  0.0000612614676356, -0.0014652196550742 ]
  - [  -0.0000197878107429, -0.0000593597069383,  0.0000505502976011 ]
  - [  -0.0000179495764314, -0.0000575148587814, -0.0000529824792466 ]
  - [  -0.0000004309331416, -0.0000493260631629,  0.0000476576387882 ]
  - [   0.0002464186400175,  0.0010309224016964, -0.0005310960114002 ]
  - [   0.0000011186421034, -0.0000508533412358, -0.0000476427376270 ]
  - [   0.0002414888294879,  0.0010429850080982,  0.0005393829196692 ]
  - [  -0.0162375550717115,  0.0014021191745996, -0.0000522397458553 ]
  - [   0.0004088291898370,  0.0000913268886507,  0.0000010151416063 ]
  - [   0.0001987121067941,  0.0001707435585558,  0.0000006528571248 ]
  - [   0.0006307591684163, -0.0007061441428959, -0.0000001862645149 ]
  - [   0.0002002585679293,  0.0002829101867974, -0.0000932011753321 ]
  - [  -0.0000029355287552, -0.0000619454076514,  0.0000503640621901 ]
  - [  -0.0000050719827414, -0.0000658410135657, -0.0000526551157236 ]
  - [   0.0001978557556868,  0.0002826120471582,  0.0000912575051188 ]
  - [   0.0011775670573115, -0.0029319946188480,  0.0004303781315684 ]
  - [   0.0002063019201159,  0.0001364594791085, -0.0000287219882011 ]
  - [   0.0002500405535102,  0.0001687116455287,  0.0000316870864481 ]
  - [   0.0012084841728210, -0.0030273180454969, -0.0004427991807461 ]
  - [   0.0014625727199018,  0.0004659425467253,  0.0000056931748986 ]
  - [  -0.0012521552853286,  0.0000263522379100, -0.0000032577663660 ]
  - [  -0.0002584038302302, -0.0003497931174934,  0.0000081025063992 ]
  - [  -0.0003562271595001, -0.0000960542820394,  0.0000018477439880 ]
  - [   0.0035022362135351,  0.0003965973446611, -0.0020431051962078 ]
  - [   0.0036630651447922,  0.0004085930995643,  0.0021487362682819 ]
  - [  -0.0000924831256270, -0.0001269625499845, -0.0001363842748106 ]
  - [  -0.0000947776352405, -0.0001269264321309,  0.0001337961293757 ]
  - [  -0.0000222961061809,  0.0009063358302228, -0.0003659152425826 ]
  - [   0.0000915708951652, -0.0000620190985501,  0.0000840369611979 ]
  - [  -0.0000171156316355,  0.0009001203579828,  0.0003640605136752 ]
  - [   0.0000901822932065, -0.0000631243456155, -0.0000820253044367 ]
- atom:   25
  displacement:
    [   0.0100000000000000,  0.0000000000000000,  0.0000000000000000 ]
  forces:
  - [  -0.0002532654616516, -0.0001072946834029, -0.0000013482094801 ]
  - [  -0.0000397618860006,  0.0000212825834751,  0.0000023917527869 ]
  - [  -0.0000392030924559,  0.0000214567407966, -0.0000024322071113 ]
  - [  -0.0002539631386753, -0.0001072565064533,  0.0000010896437743 ]
  - [   0.0003628752892837,  0.0002624060143717,  0.0000002961605787 ]
  - [   0.0010399955790490, -0.0019907066598535, -0.0000001825392246 ]
  - [   0.0010235554073006, -0.0019416131544858,  0.0000002998858690 ]
  - [   0.0003457350831013,  0.0002501068811398, -0.0000002011656761 ]
  - [   0.0036716582253575, -0.0004595536738634, -0.0028686476871371 ]
  - [   0.0034928554669023, -0.0004508593119681,  0.0027343565598130 ]
  - [  -0.0000929692760110,  0.0000087171792984, -0.0002470724284649 ]
  - [  -0.0000949464738369,  0.0000060782767832,  0.0002433573827147 ]
  - [  -0.0000173076987267,  0.0017475807107985, -0.0010651350021362 ]
  - [   0.0000871308147907, -0.0001944577088580, -0.0000266404822469 ]
  - [  -0.0000227000564337,  0.0017749203834683,  0.0010760780423880 ]
  - [   0.0000941194593906, -0.0001976535422727,  0.0000280467793345 ]
  - [  -0.0000223172828555,  0.0017744437791407, -0.0010756216943264 ]
  - [   0.0000945916399360, -0.0001976140774786, -0.0000282023102045 ]
  - [  -0.0000167479738593,  0.0017473942134529,  0.0010657303500921 ]
  - [   0.0000880137085915, -0.0001948766876012,  0.0000266265124083 ]
  - [   0.0034947800450027, -0.0004508011043072, -0.0027345614507794 ]
  - [   0.0036729271523654, -0.0004593762569129,  0.0028691422194242 ]
  - [  -0.0000937995500863,  0.0000049374066293, -0.0002432437613606 ]
  - [  -0.0000925892964005,  0.0000089579261839,  0.0002469252794981 ]
  - [  -0.0166051350533962, -0.0012844335287809, -0.0000001024454832 ]
  - [   0.0002874487545341, -0.0000683497637510, -0.0000003632158041 ]
  - [   0.0000955308787525,  0.0000038999132812, -0.0000000814907253 ]
  - [  -0.0002426902938168,  0.0001582968106959, -0.0000006337650120 ]
  - [  -0.0000292566546705,  0.0002877544320654, -0.0000842153094709 ]
  - [   0.0000471801031381, -0.0001301276497543,  0.0000795936211944 ]
  - [   0.0000479173322674, -0.0001305107725784, -0.0000795130617917 ]
  - [  -0.0000296819489449,  0.0002872678451240,  0.0000842791050673 ]

force_constants:
  format: "full"
  shape: [ 32, 32 ]
  elements:
  - # (1, 1)
    - [     1.230560814041510,     0.101455188638758,     0.000000003725025 ]
    - [     0.101455188638758,     1.154022114478605,    -0.000000001264927 ]
    - [     0.000000003725025,    -0.000000001264927,     1.083858534285074 ]
  - # (1, 2)
    - [    -0.044217397624942,    -0.001385695307881,    -0.000000003091179 ]
    - [    -0.001385695978352,    -0.004529062628962,    -0.000000001988838 ]
    - [    -0.000000000740144,    -0.000000003375465,    -0.001145933858279 ]
  - # (1, 3)
    - [    -0.010387826162847,    -0.014146361569988,     0.000000003045068 ]
    - [    -0.014146363397978,    -0.038358636969518,     0.000000001838301 ]
    - [     0.000000002831290,    -0.000000001694397,    -0.001145933801835 ]
  - # (1, 4)
    - [     0.029547880737547,    -0.072908779885980,     0.000000000233547 ]
    - [    -0.072908779706092,     0.084550925775761,    -0.000000002413558 ]
    - [     0.000000001510092,    -0.000000004062691,     0.134972587030337 ]
  - # (1, 5)
    - [    -0.022473167352958,    -0.014749314244883,     0.014868809411724 ]
    - [    -0.014749319133543,    -0.011346145429820,     0.010282856755330 ]
    - [     0.014868810573085,     0.010282852112531,    -0.016073080665441 ]
  - # (1, 6)
    - [     0.034089803322240,     0.026705919075248,    -0.032711777079998 ]
    - [     0.026705917447129,     0.013942625289718,     0.047300609004524 ]
    - [    -0.032711765082955,     0.047300596256621,    -0.004526449919622 ]
  - # (1, 7)
    - [     0.034089803724559,     0.026705918119023,     0.032711773625133 ]
    - [     0.026705917228719,     0.013942626147027,    -0.047300601561333 ]
    - [     0.032711776970811,    -0.047300604701242,    -0.004526441775744 ]
  - # (1, 8)
    - [    -0.022473163265385,    -0.014749318671479,    -0.014868812950737 ]
    - [    -0.014749317268617,    -0.011346149104468,    -0.010282852466957 ]
    - [    -0.014868810221147,    -0.010282854312768,    -0.016073081691926 ]
  - # (1, 9)
    - [    -0.229979836292123,    -0.026150177331195,    -0.127185400520322 ]
    - [    -0.006154883202222,     0.017010284395180,     0.008363467989895 ]
    - [    -0.143631032932748,    -0.003009874202569,    -0.047786448104153 ]
  - # (1, 10)
    - [    -0.229979847762456,    -0.026150167718780,     0.127185388876719 ]
    - [    -0.006154878534220,     0.017010279943916,    -0.008363471759150 ]
    - [     0.143631007639156,     0.003009863788345,    -0.047786414367659 ]
  - # (1, 11)
    - [     0.001875293841975,     0.004273102865035,    -0.006445478440887 ]
    - [     0.005855260019130,    -0.004104444717236,     0.006153300735471 ]
    - [    -0.005144191037680,     0.007053229713954,    -0.006908103731418 ]
  - # (1, 12)
    - [     0.001875293547084,     0.004273105785875,     0.006445475354994 ]
    - [     0.005855264713304,    -0.004104453880679,    -0.006153302588113 ]
    - [     0.005144191816715,    -0.007053233375402,    -0.006908093938168 ]
  - # (1, 13)
    - [    -0.000015021935936,     0.006568294241504,    -0.003482520080414 ]
    - [     0.004986139723935,    -0.002214129572502,     0.008202398998681 ]
    - [    -0.004783804055205,     0.007302463415553,    -0.006908103575118 ]
  - # (1, 14)
    - [    -0.024422671212021,    -0.083691971114662,     0.037062413396350 ]
    - [    -0.103687273908860,    -0.188546901921406,     0.121952666191549 ]
    - [     0.053508046914581,     0.133325992413999,    -0.047786442142689 ]
  - # (1, 15)
    - [    -0.000015028269959,     0.006568299877444,     0.003482524346989 ]
    - [     0.004986144945588,    -0.002214133259958,    -0.008202397324310 ]
    - [     0.004783808832316,    -0.007302464430230,    -0.006908094469827 ]
  - # (1, 16)
    - [    -0.024422669184485,    -0.083691969211320,    -0.037062407015955 ]
    - [    -0.103687264592214,    -0.188546914599667,    -0.121952664579009 ]
    - [    -0.053508032088095,    -0.133325983983832,    -0.047786419953764 ]
  - # (1, 17)
    - [    -0.024422669184485,    -0.083691969211320,    -0.037062407015955 ]
    - [    -0.103687264592214,    -0.188546914599667,    -0.121952664579009 ]
    - [    -0.053508032088095,    -0.133325983983832,    -0.047786419953764 ]
  - # (1, 18)
    - [    -0.000015028269959,     0.006568299877444,     0.003482524346989 ]
    - [     0.004986144945588,    -0.002214133259958,    -0.008202397324310 ]
    - [     0.004783808832316,    -0.007302464430230,    -0.006908094469827 ]
  - # (1, 19)
    - [    -0.024422671212021,    -0.083691971114662,     0.037062413396350 ]
    - [    -0.103687273908860,    -0.188546901921406,     0.121952666191549 ]
    - [     0.053508046914581,     0.133325992413999,    -0.047786442142689 ]
  - # (1, 20)
    - [    -0.000015021935936,     0.006568294241504,    -0.003482520080414 ]
    - [     0.004986139723935,    -0.002214129572502,     0.008202398998681 ]
    - [    -0.004783804055205,     0.007302463415553,    -0.006908103575118 ]
  - # (1, 21)
    - [     0.001875293547084,     0.004273105785875,     0.006445475354994 ]
    - [     0.005855264713304,    -0.004104453880679,    -0.006153302588113 ]
    - [     0.005144191816715,    -0.007053233375402,    -0.006908093938168 ]
  - # (1, 22)
    - [     0.001875293841975,     0.004273102865035,    -0.006445478440887 ]
    - [     0.005855260019130,    -0.004104444717236,     0.006153300735471 ]
    - [    -0.005144191037680,     0.007053229713954,    -0.006908103731418 ]
  - # (1, 23)
    - [    -0.229979847762456,    -0.026150167718780,     0.127185388876719 ]
    - [    -0.006154878534220,     0.017010279943916,    -0.008363471759150 ]
    - [     0.143631007639156,     0.003009863788345,    -0.047786414367659 ]
  - # (1, 24)
    - [    -0.229979836292123,    -0.026150177331195,    -0.127185400520322 ]
    - [    -0.006154883202222,     0.017010284395180,     0.008363467989895 ]
    - [    -0.143631032932748,    -0.003009874202569,    -0.047786448104153 ]
  - # (1, 25)
    - [     0.025369617686899,     0.010730940013932,     0.000000014107131 ]
    - [     0.010730939529215,     0.017274107384589,    -0.000000012466246 ]
    - [     0.000000015081935,    -0.000000013913192,    -0.387428841312088 ]
  - # (1, 26)
    - [     0.003953741176770,    -0.002135694889633,     0.000000002039974 ]
    - [    -0.002135694735116,     0.005564935927592,    -0.000000001849213 ]
    - [     0.000000003023783,    -0.000000003114484,     0.007041910811080 ]
  - # (1, 27)
    - [     0.003953741176770,    -0.002135694889633,     0.000000002039974 ]
    - [    -0.002135694735116,     0.005564935927592,    -0.000000001849213 ]
    - [     0.000000003023783,    -0.000000003114484,     0.007041910811080 ]
  - # (1, 28)
    - [     0.025369617686899,     0.010730940013932,     0.000000014107131 ]
    - [     0.010730939529215,     0.017274107384589,    -0.000000012466246 ]
    - [     0.000000015081935,    -0.000000013913192,    -0.387428841312088 ]
  - # (1, 29)
    - [    -0.035442535104129,    -0.025646677829392,     0.000000000908367 ]
    - [    -0.025646677496857,    -0.016094443571135,    -0.000000001200886 ]
    - [     0.000000003103537,    -0.000000004456786,     0.001642069178813 ]
  - # (1, 30)
    - [    -0.103164710201481,     0.196589137234783,    -0.000000011432238 ]
    - [     0.196589149623306,    -0.251473334907864,     0.000000013900059 ]
    - [    -0.000000026081323,     0.000000038665813,     0.009852881803710 ]
  - # (1, 31)
    - [    -0.103164710201481,     0.196589137234783,    -0.000000011432238 ]
    - [     0.196589149623306,    -0.251473334907864,     0.000000013900059 ]
    - [    -0.000000026081323,     0.000000038665813,     0.009852881803710 ]
  - # (1, 32)
    - [    -0.035442535104129,    -0.025646677829392,     0.000000000908367 ]
    - [    -0.025646677496857,    -0.016094443571135,    -0.000000001200886 ]
    - [     0.000000003103537,    -0.000000004456786,     0.001642069178813 ]
  - # (2, 1)
    - [    -0.044217397624942,    -0.001385695978352,    -0.000000000740144 ]
    - [    -0.001385695307881,    -0.004529062628962,    -0.000000003375465 ]
    - [    -0.000000003091179,    -0.000000001988838,    -0.001145933858279 ]
  - # (2, 2)
    - [     1.230560638066361,     0.101455254996613,     0.000000036228697 ]
    - [     0.101455254996613,     1.154022285158496,     0.000000023865836 ]
    - [     0.000000036228697,     0.000000023865836,     1.083858534040933 ]
  - # (2, 3)
    - [     0.029547876768292,    -0.072908783260365,     0.000000000616910 ]
    - [    -0.072908773114091,     0.084550921918240,    -0.000000000762286 ]
    - [    -0.000000000207971,    -0.000000001290061,     0.134972585006337 ]
  - # (2, 4)
    - [    -0.010387820999011,    -0.014146365545759,     0.000000000464154 ]
    - [    -0.014146364695401,    -0.038358642536979,    -0.000000002523162 ]
    - [    -0.000000000998638,    -0.000000002224191,    -0.001145932021977 ]
  - # (2, 5)
    - [     0.034089803288444,     0.026705922813569,    -0.032711777854211 ]
    - [     0.026705915062635,     0.013942624422675,     0.047300608192734 ]
    - [    -0.032711767275422,     0.047300600066086,    -0.004526446898287 ]
  - # (2, 6)
    - [    -0.022473162991124,    -0.014749318218268,     0.014868808936659 ]
    - [    -0.014749319325272,    -0.011346153843528,     0.010282855927736 ]
    - [     0.014868807821651,     0.010282852744744,    -0.016073083589586 ]
  - # (2, 7)
    - [    -0.022473162630786,    -0.014749321990016,    -0.014868814576386 ]
    - [    -0.014749320998085,    -0.011346149525770,    -0.010282858219468 ]
    - [    -0.014868813174893,    -0.010282861057449,    -0.016073093109193 ]
  - # (2, 8)
    - [     0.034089806928875,     0.026705919494467,     0.032711775008795 ]
    - [     0.026705915662036,     0.013942620852594,    -0.047300604596826 ]
    - [     0.032711761320331,    -0.047300598392580,    -0.004526428091280 ]
  - # (2, 9)
    - [    -0.229979831831025,    -0.026150178185243,     0.127185387489501 ]
    - [    -0.006154875061020,     0.017010279896866,    -0.008363478676042 ]
    - [     0.143631013330139,     0.003009865464894,    -0.047786428850143 ]
  - # (2, 10)
    - [    -0.229979819646273,    -0.026150185427294,    -0.127185406252048 ]
    - [    -0.006154862989865,     0.017010276739792,     0.008363484049782 ]
    - [    -0.143631015705666,    -0.003009875432664,    -0.047786440605623 ]
  - # (2, 11)
    - [     0.001875295774878,     0.004273103469065,     0.006445480859354 ]
    - [     0.005855258716008,    -0.004104450890657,    -0.006153304134084 ]
    - [     0.005144195097785,    -0.007053238483526,    -0.006908102384249 ]
  - # (2, 12)
    - [     0.001875295813392,     0.004273105885428,    -0.006445485951449 ]
    - [     0.005855262655253,    -0.004104458977967,     0.006153302342309 ]
    - [    -0.005144201009169,     0.007053233905654,    -0.006908097139233 ]
  - # (2, 13)
    - [    -0.024422666695301,    -0.083691978928508,     0.037062409651017 ]
    - [    -0.103687271119095,    -0.188546923013746,     0.121952661521078 ]
    - [     0.053508041532390,     0.133326002557436,    -0.047786438864017 ]
  - # (2, 14)
    - [    -0.000015021138109,     0.006568294571033,    -0.003482519104387 ]
    - [     0.004986138353988,    -0.002214134837784,     0.008202398227457 ]
    - [    -0.004783806824510,     0.007302465558675,    -0.006908104828047 ]
  - # (2, 15)
    - [    -0.024422664897793,    -0.083691967269932,    -0.037062400333865 ]
    - [    -0.103687265093986,    -0.188546936445978,    -0.121952667185657 ]
    - [    -0.053508025040478,    -0.133325976598875,    -0.047786415363609 ]
  - # (2, 16)
    - [    -0.000015024690042,     0.006568298496746,     0.003482517582600 ]
    - [     0.004986143423365,    -0.002214138652403,    -0.008202400555986 ]
    - [     0.004783799621228,    -0.007302469042128,    -0.006908093614728 ]
  - # (2, 17)
    - [    -0.000015024690042,     0.006568298496746,     0.003482517582600 ]
    - [     0.004986143423365,    -0.002214138652403,    -0.008202400555986 ]
    - [     0.004783799621228,    -0.007302469042128,    -0.006908093614728 ]
  - # (2, 18)
    - [    -0.024422664897793,    -0.083691967269932,    -0.037062400333865 ]
    - [    -0.103687265093986,    -0.188546936445978,    -0.121952667185657 ]
    - [    -0.053508025040478,    -0.133325976598875,    -0.047786415363609 ]
  - # (2, 19)
    - [    -0.000015021138109,     0.006568294571033,    -0.003482519104387 ]
    - [     0.004986138353988,    -0.002214134837784,     0.008202398227457 ]
    - [    -0.004783806824510,     0.007302465558675,    -0.006908104828047 ]
  - # (2, 20)
    - [    -0.024422666695301,    -0.083691978928508,     0.037062409651017 ]
    - [    -0.103687271119095,    -0.188546923013746,     0.121952661521078 ]
    - [     0.053508041532390,     0.133326002557436,    -0.047786438864017 ]
  - # (2, 21)
    - [     0.001875295813392,     0.004273105885428,    -0.006445485951449 ]
    - [     0.005855262655253,    -0.004104458977967,     0.006153302342309 ]
    - [    -0.005144201009169,     0.007053233905654,    -0.006908097139233 ]
  - # (2, 22)
    - [     0.001875295774878,     0.004273103469065,     0.006445480859354 ]
    - [     0.005855258716008,    -0.004104450890657,    -0.006153304134084 ]
    - [     0.005144195097785,    -0.007053238483526,    -0.006908102384249 ]
  - # (2, 23)
    - [    -0.229979819646273,    -0.026150185427294,    -0.127185406252048 ]
    - [    -0.006154862989865,     0.017010276739792,     0.008363484049782 ]
    - [    -0.143631015705666,    -0.003009875432664,    -0.047786440605623 ]
  - # (2, 24)
    - [    -0.229979831831025,    -0.026150178185243,     0.127185387489501 ]
    - [    -0.006154875061020,     0.017010279896866,    -0.008363478676042 ]
    - [     0.143631013330139,     0.003009865464894,    -0.047786428850143 ]
  - # (2, 25)
    - [     0.003953742236305,    -0.002135695596023,     0.000000000823576 ]
    - [    -0.002135696388361,     0.005564929853728,    -0.000000002292880 ]
    - [    -0.000000001163474,    -0.000000002365430,     0.007041908441107 ]
  - # (2, 26)
    - [     0.025369619789489,     0.010730940930887,     0.000000014314178 ]
    - [     0.010730938544826,     0.017274105001039,    -0.000000013496036 ]
    - [     0.000000005722255,    -0.000000017951258,    -0.387428839186257 ]
  - # (2, 27)
    - [     0.025369619789489,     0.010730940930887,     0.000000014314178 ]
    - [     0.010730938544826,     0.017274105001039,    -0.000000013496036 ]
    - [     0.000000005722255,    -0.000000017951258,    -0.387428839186257 ]
  - # (2, 28)
    - [     0.003953742236305,    -0.002135695596023,     0.000000000823576 ]
    - [    -0.002135696388361,     0.005564929853728,    -0.000000002292880 ]
    - [    -0.000000001163474,    -0.000000002365430,     0.007041908441107 ]
  - # (2, 29)
    - [    -0.103164686459466,     0.196589133791101,    -0.000000007994430 ]
    - [     0.196589099336179,    -0.251473314125906,     0.000000012002089 ]
    - [    -0.000000009189060,     0.000000009824630,     0.009852874192569 ]
  - # (2, 30)
    - [    -0.035442528659110,    -0.025646677893205,    -0.000000005126286 ]
    - [    -0.025646676517570,    -0.016094456455367,    -0.000000001056578 ]
    - [    -0.000000006682728,    -0.000000003299181,     0.001642077462895 ]
  - # (2, 31)
    - [    -0.035442528659110,    -0.025646677893205,    -0.000000005126286 ]
    - [    -0.025646676517570,    -0.016094456455367,    -0.000000001056578 ]
    - [    -0.000000006682728,    -0.000000003299181,     0.001642077462895 ]
  - # (2, 32)
    - [    -0.103164686459466,     0.196589133791101,    -0.000000007994430 ]