phonopy:
  version: "2.37.1"
  frequency_unit_conversion_factor: 15.633302
  symmetry_tolerance: 1.00000e-05

space_group:
  type: "P1"
  number: 1
  Hall_symbol: "P 1"

primitive_matrix:
- [ -1.000000000000000,  0.000000000000000,  0.000000000000000 ]
- [  0.000000000000000,  1.000000000000000,  0.000000000000000 ]
- [  0.000000000000000,  0.000000000000000, -1.000000000000000 ]

supercell_matrix:
- [   3,   0,   0 ]
- [   0,   2,   0 ]
- [   0,   0,   2 ]

primitive_cell:
  lattice:
  - [    -4.842297882255960,     0.000000000000000,     0.000000000000000 ] # a
  - [     0.000029285707990,     5.096555313798405,     0.000000000000000 ] # b
  - [     2.421059962371667,    -0.000021647448492,    -4.721678191983942 ] # c
  points:
  - symbol: Li # 1
    coordinates: [  0.419442036019686,  0.261059346782091,  0.377407274960526 ]
    mass: 6.940000
  - symbol: Li # 2
    coordinates: [  0.586945129359489,  0.761070284243601,  0.711971129405857 ]
    mass: 6.940000
  - symbol: Li # 3
    coordinates: [  0.250696380362329,  0.761051981825377,  0.039435247013480 ]
    mass: 6.940000
  - symbol: Li # 4
    coordinates: [  0.083191618738339,  0.261056461728654,  0.704872226678801 ]
    mass: 6.940000
  - symbol: Sn # 5
    coordinates: [  0.745048890317048,  0.261066556591546,  0.028616181531852 ]
    mass: 118.710000
  - symbol: Sn # 6
    coordinates: [  0.925087357839089,  0.761060910306704,  0.388226333432489 ]
    mass: 118.710000
  reciprocal_lattice: # without 2pi
  - [    -0.206513524016022,     0.000001186663224,    -0.105890660985322 ] # a*
  - [    -0.000000000000000,     0.196210957878275,    -0.000000899567152 ] # b*
  - [    -0.000000000000000,     0.000000000000000,    -0.211789105343459 ] # c*

unit_cell:
  lattice:
  - [     4.842297882255960,     0.000000000000000,     0.000000000000000 ] # a
  - [     0.000029285707990,     5.096555313798406,     0.000000000000000 ] # b
  - [    -2.421059962371667,     0.000021647448492,     4.721678191983942 ] # c
  points:
  - symbol: Li # 1
    coordinates: [  0.580557963980314,  0.261059346782091,  0.622592725039474 ]
    mass: 6.940000
    reduced_to: 1
  - symbol: Li # 2
    coordinates: [  0.413054870640511,  0.761070284243601,  0.288028870594143 ]
    mass: 6.940000
    reduced_to: 2
  - symbol: Li # 3
    coordinates: [  0.749303619637671,  0.761051981825376,  0.960564752986520 ]
    mass: 6.940000
    reduced_to: 3
  - symbol: Li # 4
    coordinates: [  0.916808381261661,  0.261056461728654,  0.295127773321199 ]
    mass: 6.940000
    reduced_to: 4
  - symbol: Sn # 5
    coordinates: [  0.254951109682952,  0.261066556591546,  0.971383818468148 ]
    mass: 118.710000
    reduced_to: 5
  - symbol: Sn # 6
    coordinates: [  0.074912642160911,  0.761060910306703,  0.611773666567511 ]
    mass: 118.710000
    reduced_to: 6

supercell:
  lattice:
  - [    14.526893646767881,     0.000000000000000,     0.000000000000000 ] # a
  - [     0.000058571415981,    10.193110627596813,     0.000000000000000 ] # b
  - [    -4.842119924743335,     0.000043294896983,     9.443356383967885 ] # c
  points:
  - symbol: Li # 1
    coordinates: [  0.193519321326771,  0.130529673391046,  0.311296362519737 ]
    mass: 6.940000
    reduced_to: 1
  - symbol: Li # 2
    coordinates: [  0.526852654660105,  0.130529673391046,  0.311296362519737 ]
    mass: 6.940000
    reduced_to: 1
  - symbol: Li # 3
    coordinates: [  0.860185987993438,  0.130529673391046,  0.311296362519737 ]
    mass: 6.940000
    reduced_to: 1
  - symbol: Li # 4
    coordinates: [  0.193519321326771,  0.630529673391046,  0.311296362519737 ]
    mass: 6.940000
    reduced_to: 1
  - symbol: Li # 5
    coordinates: [  0.526852654660105,  0.630529673391046,  0.311296362519737 ]
    mass: 6.940000
    reduced_to: 1
  - symbol: Li # 6
    coordinates: [  0.860185987993438,  0.630529673391046,  0.311296362519737 ]
    mass: 6.940000
    reduced_to: 1
  - symbol: Li # 7
    coordinates: [  0.193519321326771,  0.130529673391046,  0.811296362519737 ]
    mass: 6.940000
    reduced_to: 1
  - symbol: Li # 8
    coordinates: [  0.526852654660105,  0.130529673391046,  0.811296362519737 ]
    mass: 6.940000
    reduced_to: 1
  - symbol: Li # 9
    coordinates: [  0.860185987993438,  0.130529673391046,  0.811296362519737 ]
    mass: 6.940000
    reduced_to: 1
  - symbol: Li # 10
    coordinates: [  0.193519321326771,  0.630529673391046,  0.811296362519737 ]
    mass: 6.940000
    reduced_to: 1
  - symbol: Li # 11
    coordinates: [  0.526852654660105,  0.630529673391046,  0.811296362519737 ]
    mass: 6.940000
    reduced_to: 1
  - symbol: Li # 12
    coordinates: [  0.860185987993438,  0.630529673391046,  0.811296362519737 ]
    mass: 6.940000
    reduced_to: 1
  - symbol: Li # 13
    coordinates: [  0.137684956880170,  0.380535142121801,  0.144014435297071 ]
    mass: 6.940000
    reduced_to: 13
  - symbol: Li # 14
    coordinates: [  0.471018290213503,  0.380535142121801,  0.144014435297071 ]
    mass: 6.940000
    reduced_to: 13
  - symbol: Li # 15
    coordinates: [  0.804351623546837,  0.380535142121801,  0.144014435297071 ]
    mass: 6.940000
    reduced_to: 13
  - symbol: Li # 16
    coordinates: [  0.137684956880170,  0.880535142121801,  0.144014435297071 ]
    mass: 6.940000
    reduced_to: 13
  - symbol: Li # 17
    coordinates: [  0.471018290213503,  0.880535142121801,  0.144014435297071 ]
    mass: 6.940000
    reduced_to: 13
  - symbol: Li # 18
    coordinates: [  0.804351623546837,  0.880535142121801,  0.144014435297071 ]
    mass: 6.940000
    reduced_to: 13
  - symbol: Li # 19
    coordinates: [  0.137684956880170,  0.380535142121801,  0.644014435297071 ]
    mass: 6.940000
    reduced_to: 13
  - symbol: Li # 20
    coordinates: [  0.471018290213503,  0.380535142121801,  0.644014435297071 ]
    mass: 6.940000
    reduced_to: 13
  - symbol: Li # 21
    coordinates: [  0.804351623546837,  0.380535142121801,  0.644014435297071 ]
    mass: 6.940000
    reduced_to: 13
  - symbol: Li # 22
    coordinates: [  0.137684956880170,  0.880535142121801,  0.644014435297071 ]
    mass: 6.940000
    reduced_to: 13
  - symbol: Li # 23
    coordinates: [  0.471018290213503,  0.880535142121801,  0.644014435297071 ]
    mass: 6.940000
    reduced_to: 13
  - symbol: Li # 24
    coordinates: [  0.804351623546837,  0.880535142121801,  0.644014435297071 ]
    mass: 6.940000
    reduced_to: 13
  - symbol: Li # 25
    coordinates: [  0.249767873212557,  0.380525990912688,  0.480282376493260 ]
    mass: 6.940000
    reduced_to: 25
  - symbol: Li # 26
    coordinates: [  0.583101206545890,  0.380525990912688,  0.480282376493260 ]
    mass: 6.940000
    reduced_to: 25
  - symbol: Li # 27
    coordinates: [  0.916434539879224,  0.380525990912688,  0.480282376493260 ]
    mass: 6.940000
    reduced_to: 25
  - symbol: Li # 28
    coordinates: [  0.249767873212557,  0.880525990912688,  0.480282376493260 ]
    mass: 6.940000
    reduced_to: 25
  - symbol: Li # 29
    coordinates: [  0.583101206545890,  0.880525990912688,  0.480282376493260 ]
    mass: 6.940000
    reduced_to: 25
  - symbol: Li # 30
    coordinates: [  0.916434539879224,  0.880525990912688,  0.480282376493260 ]
    mass: 6.940000
    reduced_to: 25
  - symbol: Li # 31
    coordinates: [  0.249767873212557,  0.380525990912688,  0.980282376493260 ]
    mass: 6.940000
    reduced_to: 25
  - symbol: Li # 32
    coordinates: [  0.583101206545890,  0.380525990912688,  0.980282376493260 ]
    mass: 6.940000
    reduced_to: 25
  - symbol: Li # 33
    coordinates: [  0.916434539879224,  0.380525990912688,  0.980282376493260 ]
    mass: 6.940000
    reduced_to: 25
  - symbol: Li # 34
    coordinates: [  0.249767873212557,  0.880525990912688,  0.980282376493260 ]
    mass: 6.940000
    reduced_to: 25
  - symbol: Li # 35
    coordinates: [  0.583101206545890,  0.880525990912688,  0.980282376493260 ]
    mass: 6.940000
    reduced_to: 25
  - symbol: Li # 36
    coordinates: [  0.916434539879224,  0.880525990912688,  0.980282376493260 ]
    mass: 6.940000
    reduced_to: 25
  - symbol: Li # 37
    coordinates: [  0.305602793753887,  0.130528230864327,  0.147563886660600 ]
    mass: 6.940000
    reduced_to: 37
  - symbol: Li # 38
    coordinates: [  0.638936127087220,  0.130528230864327,  0.147563886660600 ]
    mass: 6.940000
    reduced_to: 37
  - symbol: Li # 39
    coordinates: [  0.972269460420554,  0.130528230864327,  0.147563886660600 ]
    mass: 6.940000
    reduced_to: 37
  - symbol: Li # 40
    coordinates: [  0.305602793753887,  0.630528230864327,  0.147563886660600 ]
    mass: 6.940000
    reduced_to: 37
  - symbol: Li # 41
    coordinates: [  0.638936127087220,  0.630528230864327,  0.147563886660600 ]
    mass: 6.940000
    reduced_to: 37
  - symbol: Li # 42
    coordinates: [  0.972269460420554,  0.630528230864327,  0.147563886660600 ]
    mass: 6.940000
    reduced_to: 37
  - symbol: Li # 43
    coordinates: [  0.305602793753887,  0.130528230864327,  0.647563886660599 ]
    mass: 6.940000
    reduced_to: 37
  - symbol: Li # 44
    coordinates: [  0.638936127087220,  0.130528230864327,  0.647563886660599 ]
    mass: 6.940000
    reduced_to: 37
  - symbol: Li # 45
    coordinates: [  0.972269460420554,  0.130528230864327,  0.647563886660599 ]
    mass: 6.940000
    reduced_to: 37
  - symbol: Li # 46
    coordinates: [  0.305602793753887,  0.630528230864327,  0.647563886660599 ]
    mass: 6.940000
    reduced_to: 37
  - symbol: Li # 47
    coordinates: [  0.638936127087220,  0.630528230864327,  0.647563886660599 ]
    mass: 6.940000
    reduced_to: 37
  - symbol: Li # 48
    coordinates: [  0.972269460420554,  0.630528230864327,  0.647563886660599 ]
    mass: 6.940000
    reduced_to: 37
  - symbol: Sn # 49
    coordinates: [  0.084983703227651,  0.130533278295773,  0.485691909234074 ]
    mass: 118.710000
    reduced_to: 49
  - symbol: Sn # 50
    coordinates: [  0.418317036560984,  0.130533278295773,  0.485691909234074 ]
    mass: 118.710000
    reduced_to: 49
  - symbol: Sn # 51
    coordinates: [  0.751650369894317,  0.130533278295773,  0.485691909234074 ]
    mass: 118.710000
    reduced_to: 49
  - symbol: Sn # 52
    coordinates: [  0.084983703227651,  0.630533278295773,  0.485691909234074 ]
    mass: 118.710000
    reduced_to: 49
  - symbol: Sn # 53
    coordinates: [  0.418317036560984,  0.630533278295773,  0.485691909234074 ]
    mass: 118.710000
    reduced_to: 49
  - symbol: Sn # 54
    coordinates: [  0.751650369894317,  0.630533278295773,  0.485691909234074 ]
    mass: 118.710000
    reduced_to: 49
  - symbol: Sn # 55
    coordinates: [  0.084983703227651,  0.130533278295773,  0.985691909234074 ]
    mass: 118.710000
    reduced_to: 49
  - symbol: Sn # 56
    coordinates: [  0.418317036560984,  0.130533278295773,  0.985691909234074 ]
    mass: 118.710000
    reduced_to: 49
  - symbol: Sn # 57
    coordinates: [  0.751650369894317,  0.130533278295773,  0.985691909234074 ]
    mass: 118.710000
    reduced_to: 49
  - symbol: Sn # 58
    coordinates: [  0.084983703227651,  0.630533278295773,  0.985691909234074 ]
    mass: 118.710000
    reduced_to: 49
  - symbol: Sn # 59
    coordinates: [  0.418317036560984,  0.630533278295773,  0.985691909234074 ]
    mass: 118.710000
    reduced_to: 49
  - symbol: Sn # 60
    coordinates: [  0.751650369894317,  0.630533278295773,  0.985691909234074 ]
    mass: 118.710000
    reduced_to: 49
  - symbol: Sn # 61
    coordinates: [  0.024970880720304,  0.380530455153352,  0.305886833283756 ]
    mass: 118.710000
    reduced_to: 61
  - symbol: Sn # 62
    coordinates: [  0.358304214053637,  0.380530455153352,  0.305886833283756 ]
    mass: 118.710000
    reduced_to: 61
  - symbol: Sn # 63
    coordinates: [  0.691637547386970,  0.380530455153352,  0.305886833283756 ]
    mass: 118.710000
    reduced_to: 61
  - symbol: Sn # 64
    coordinates: [  0.024970880720304,  0.880530455153352,  0.305886833283756 ]
    mass: 118.710000
    reduced_to: 61
  - symbol: Sn # 65
    coordinates: [  0.358304214053637,  0.880530455153352,  0.305886833283756 ]
    mass: 118.710000
    reduced_to: 61
  - symbol: Sn # 66
    coordinates: [  0.691637547386970,  0.880530455153352,  0.305886833283756 ]
    mass: 118.710000
    reduced_to: 61
  - symbol: Sn # 67
    coordinates: [  0.024970880720304,  0.380530455153352,  0.805886833283756 ]
    mass: 118.710000
    reduced_to: 61
  - symbol: Sn # 68
    coordinates: [  0.358304214053637,  0.380530455153352,  0.805886833283756 ]
    mass: 118.710000
    reduced_to: 61
  - symbol: Sn # 69
    coordinates: [  0.691637547386970,  0.380530455153352,  0.805886833283756 ]
    mass: 118.710000
    reduced_to: 61
  - symbol: Sn # 70
    coordinates: [  0.024970880720304,  0.880530455153352,  0.805886833283756 ]
    mass: 118.710000
    reduced_to: 61
  - symbol: Sn # 71
    coordinates: [  0.358304214053637,  0.880530455153352,  0.805886833283756 ]
    mass: 118.710000
    reduced_to: 61
  - symbol: Sn # 72
    coordinates: [  0.691637547386970,  0.880530455153352,  0.805886833283756 ]
    mass: 118.710000
    reduced_to: 61

displacements:
- atom:    1
  displacement:
    [   0.0100000000000000,  0.0000000000000000,  0.0000000000000000 ]
  forces:
  - [  -0.0220078825950623,  0.0000060703605413,  0.0256812069565058 ]
  - [  -0.0002159167779610,  0.0000059691956267,  0.0261692032217979 ]
  - [  -0.0001964420080185,  0.0000060333991314,  0.0255487374961376 ]
  - [  -0.0000786515884101,  0.0000062684994191,  0.0258589964359999 ]
  - [  -0.0000732613261789,  0.0000057169236243,  0.0258641466498375 ]
  - [  -0.0000680834054947,  0.0000059124713516,  0.0258572828024626 ]
  - [   0.0006103630294092,  0.0000062007457018,  0.0262946467846632 ]
  - [   0.0002818169887178,  0.0000063087791204,  0.0252723209559917 ]
  - [   0.0002800746005960,  0.0000059623271227,  0.0260024983435869 ]
  - [   0.0000634752213955,  0.0000059548765421,  0.0258548688143492 ]
  - [   0.0000607634428889,  0.0000063106417656,  0.0258627291768789 ]
  - [   0.0000604619272053,  0.0000059735029936,  0.0258610267192125 ]
  - [  -0.0005657635629177, -0.0000447833808721, -0.0183031782507896 ]
  - [  -0.0001815269497456,  0.0000332520867232, -0.0182663202285767 ]
  - [  -0.0001827540836530, -0.0000988543979474, -0.0183442160487175 ]
  - [  -0.0005647612269968, -0.0000189452475752, -0.0183031558990479 ]
  - [  -0.0001828704553191, -0.0000969730390352, -0.0182671770453453 ]
  - [  -0.0001837775344029,  0.0000354567528120, -0.0183434933423996 ]
  - [  -0.0001266100443900,  0.0000318099409924, -0.0182786062359810 ]
  - [  -0.0001117851934396, -0.0001031735300785, -0.0183463916182518 ]
  - [  -0.0001838845782913, -0.0000381027530238, -0.0182961374521255 ]
  - [  -0.0001266539329663, -0.0000971130793914, -0.0182799175381660 ]
  - [  -0.0001127509749494,  0.0000375409326807, -0.0183472707867622 ]
  - [  -0.0001856142771430, -0.0000268435233011, -0.0182967483997345 ]
  - [  -0.0002638190053403,  0.0000067456903707, -0.0258661881089211 ]
  - [  -0.0000672927126288,  0.0000091136171250, -0.0258791446685791 ]
  - [  -0.0000698444637237,  0.0000199980240723, -0.0258408617228270 ]
  - [  -0.0002633608819451,  0.0000183828997251, -0.0258667543530464 ]
  - [  -0.0000667744752718,  0.0000166891695699, -0.0258789937943220 ]
  - [  -0.0000686361599946,  0.0000056077274166, -0.0258418414741755 ]
  - [  -0.0000603644875810, -0.0000890424562385, -0.0258201435208321 ]
  - [  -0.0000705822603777,  0.0000174425713340, -0.0258417166769505 ]
  - [  -0.0000643738312647,  0.0001046506586135, -0.0259162262082100 ]
  - [  -0.0000607953406870,  0.0001156199214165, -0.0258197318762541 ]
  - [  -0.0000710478052497,  0.0000093600638138, -0.0258422959595919 ]
  - [  -0.0000652596354485, -0.0000776018059696, -0.0259170010685921 ]
  - [   0.0042920261621475, -0.0000023890388547,  0.0157497152686119 ]
  - [   0.0001226566964760, -0.0000021838659450,  0.0183094963431358 ]
  - [   0.0042502596043050, -0.0000024860346457,  0.0208355560898781 ]
  - [   0.0003034874098375, -0.0000036458368413,  0.0182471722364426 ]
  - [   0.0001290478976443, -0.0000042029205360,  0.0183127596974373 ]
  - [   0.0003053596010432, -0.0000043650779844,  0.0183806642889977 ]
  - [   0.0001867183600552, -0.0000030124247132,  0.0183089226484299 ]
  - [  -0.0002722916833591, -0.0000032214993553,  0.0180761367082596 ]
  - [  -0.0003516056749504, -0.0000028919512260,  0.0185589194297791 ]
  - [   0.0000496335196658, -0.0000023569173209,  0.0183127671480179 ]
  - [   0.0002032363263424, -0.0000025267763704,  0.0183301493525505 ]
  - [   0.0002053984499071, -0.0000022801050363,  0.0183006599545479 ]
  - [   0.0076766759157181, -0.0000038590496843, -0.0446358248591423 ]
  - [   0.0079150088131428, -0.0000038875041355, -0.0338932126760483 ]
  - [   0.0001352364197373, -0.0000034958866308, -0.0393921732902527 ]
  - [   0.0000274837948382, -0.0000040084796638, -0.0394530892372131 ]
  - [   0.0000253817997873, -0.0000043443724280, -0.0393240824341774 ]
  - [  -0.0000069704838097, -0.0000040231880121, -0.0393913760781288 ]
  - [   0.0004231961211190, -0.0000053017010941, -0.0394451767206192 ]
  - [  -0.0001490661961725, -0.0000050710514188, -0.0393283553421497 ]
  - [  -0.0001360765600111, -0.0000054566189647, -0.0393790751695633 ]
  - [  -0.0001329241640633, -0.0000047270805226, -0.0393938757479191 ]
  - [   0.0000880848820088, -0.0000046771019697, -0.0394491292536259 ]
  - [   0.0000719658419257, -0.0000043008476496, -0.0393267124891281 ]
  - [   0.0000242134556174,  0.0002828016877174,  0.0396545380353928 ]
  - [   0.0000399854034185, -0.0002371855080128,  0.0391118898987770 ]
  - [  -0.0000219689682126,  0.0000212285667658,  0.0393776372075081 ]
  - [   0.0000224150717258, -0.0002427659928799,  0.0396564044058323 ]
  - [   0.0000368924811482,  0.0002782577648759,  0.0391129888594151 ]
  - [  -0.0000194329768419,  0.0000191992148757,  0.0393788777291775 ]
  - [  -0.0000186976976693, -0.0000573061406612,  0.0393307805061340 ]
  - [  -0.0001189103350043,  0.0000349357724190,  0.0393766053020954 ]
  - [   0.0000054007396102,  0.0000797584652901,  0.0394286438822746 ]
  - [  -0.0000178012996912,  0.0000987779349089,  0.0393311381340027 ]
  - [  -0.0001170993782580,  0.0000064522027969,  0.0393767133355141 ]
  - [   0.0000072633847594, -0.0000383816659451,  0.0394288636744022 ]
- atom:    1
  displacement:
    [  -0.0100000000000000,  0.0000000000000000,  0.0000000000000000 ]
  forces:
  - [   0.0221298057585955,  0.0000061868922785,  0.0256807282567024 ]
  - [   0.0003190882271156,  0.0000060426536947,  0.0255485661327839 ]
  - [   0.0003386307507753,  0.0000059365361267,  0.0261685419827700 ]
  - [   0.0002006316790357,  0.0000062363687903,  0.0258609429001808 ]
  - [   0.0001919055357575,  0.0000058637233451,  0.0258564073592424 ]
  - [   0.0001969076693058,  0.0000059180474636,  0.0258634407073259 ]
  - [  -0.0004868741380051,  0.0000063180923462,  0.0254151560366154 ]
  - [  -0.0001580631942488,  0.0000062137842178,  0.0264357365667820 ]
  - [  -0.0001597739174031,  0.0000059474259615,  0.0257190316915512 ]
  - [   0.0000581134809181,  0.0000059194862843,  0.0258640050888062 ]
  - [   0.0000636065378785,  0.0000063385814428,  0.0258576944470406 ]
  - [   0.0000631993752904,  0.0000058542937040,  0.0258568655699492 ]
  - [   0.0002145456674043, -0.0000445014884463, -0.0183031484484673 ]
  - [  -0.0001676789106568, -0.0000976201044978, -0.0183439329266548 ]
  - [  -0.0001636994566070,  0.0000340266924468, -0.0182679295539856 ]
  - [   0.0002156809350708, -0.0000191322178580, -0.0183032304048538 ]
  - [  -0.0001691889192443,  0.0000338865138474, -0.0183448195457458 ]
  - [  -0.0001646911987336, -0.0000975187940639, -0.0182671919465065 ]
  - [  -0.0002227687800769, -0.0001082520029740, -0.0183372423052788 ]
  - [  -0.0002361776132602,  0.0000266301049123, -0.0182697549462318 ]
  - [  -0.0001637933892198, -0.0000265730996034, -0.0183148831129074 ]
  - [  -0.0002228459925391,  0.0000430550026067, -0.0183383375406265 ]
  - [  -0.0002370490983594, -0.0000918921068660, -0.0182704031467438 ]
  - [  -0.0001654510851949, -0.0000382201687898, -0.0183153972029686 ]
  - [   0.0001865816011559,  0.0000105213593997, -0.0258597936481237 ]
  - [  -0.0000059434969444,  0.0000196563814825, -0.0258444380015135 ]
  - [  -0.0000105496874312,  0.0000084367165982, -0.0258812848478556 ]
  - [   0.0001869013067335,  0.0000143634397318, -0.0258602239191532 ]
  - [  -0.0000054777337937,  0.0000059687922658, -0.0258444044739008 ]
  - [  -0.0000092887785286,  0.0000169838822330, -0.0258821751922369 ]
  - [  -0.0000159505289048,  0.0001094868785003, -0.0258983839303255 ]
  - [  -0.0000047292560339,  0.0000082975257101, -0.0258798748254776 ]
  - [  -0.0000083103077486, -0.0000841091023176, -0.0258007366210222 ]
  - [  -0.0000162947690114, -0.0000827784388093, -0.0258982144296169 ]
  - [  -0.0000053283292800,  0.0000185372337000, -0.0258804466575384 ]
  - [  -0.0000091689871624,  0.0001112588361138, -0.0258015263825655 ]
  - [  -0.0039116828702390, -0.0000022239346436,  0.0208286643028259 ]
  - [   0.0002146764891222, -0.0000020257248252,  0.0183151736855507 ]
  - [  -0.0039621400646865, -0.0000024250821298,  0.0157455727458000 ]
  - [   0.0000347675522789, -0.0000038437701733,  0.0183785781264305 ]
  - [   0.0002072073984891, -0.0000043022018872,  0.0183135196566582 ]
  - [   0.0000307842856273, -0.0000042587917051,  0.0182479470968246 ]
  - [   0.0001496541372035, -0.0000030530809454,  0.0183062404394150 ]
  - [   0.0006224235985428, -0.0000031098243198,  0.0185635238885880 ]
  - [   0.0006748771993443, -0.0000028044323699,  0.0180738940834999 ]
  - [   0.0002880564425141, -0.0000024604505597,  0.0183185040950775 ]
  - [   0.0001335225533694, -0.0000025728750188,  0.0182962119579315 ]
  - [   0.0001334273547400, -0.0000022483054636,  0.0183276534080505 ]
  - [  -0.0078801587224007, -0.0000034134009184, -0.0338994860649109 ]
  - [  -0.0076275216415524, -0.0000045289525588, -0.0446414016187191 ]
  - [  -0.0000929958187044, -0.0000034214808693, -0.0393748842179775 ]
  - [   0.0000118287280202, -0.0000039046972233, -0.0393272303044796 ]
  - [   0.0000192411243916, -0.0000044668468036, -0.0394550412893295 ]
  - [   0.0000445512123406, -0.0000041666135076, -0.0393827632069588 ]
  - [  -0.0003761792322621, -0.0000051297247410, -0.0392920672893524 ]
  - [   0.0002028482849710, -0.0000051120296121, -0.0394540689885616 ]
  - [   0.0001668638142291, -0.0000056698918343, -0.0394040308892727 ]
  - [   0.0001764629851095, -0.0000049130649131, -0.0393893569707870 ]
  - [  -0.0000425870312029, -0.0000047255307436, -0.0393266156315804 ]
  - [  -0.0000372500726371, -0.0000043399631977, -0.0394512638449669 ]
  - [  -0.0001108618453145, -0.0002379799261689,  0.0391082353889942 ]
  - [  -0.0001007989048958,  0.0002838922664523,  0.0396522134542465 ]
  - [  -0.0000569745898247,  0.0000219233334064,  0.0393836162984371 ]
  - [  -0.0001124357804656,  0.0002781264483929,  0.0391103848814964 ]
  - [  -0.0001030564308167, -0.0002426095306873,  0.0396534800529480 ]
  - [  -0.0000544413924217,  0.0000181170180440,  0.0393846705555916 ]
  - [  -0.0000567715615034,  0.0000973604619503,  0.0394253470003605 ]
  - [   0.0000420417636633,  0.0000018570572138,  0.0393807403743267 ]
  - [  -0.0000865184701979, -0.0000419244170189,  0.0393290296196938 ]
  - [  -0.0000563734211028, -0.0000562388449907,  0.0394253619015217 ]
  - [   0.0000436818227172,  0.0000395160168409,  0.0393809750676155 ]
  - [  -0.0000845747999847,  0.0000837575644255,  0.0393292233347893 ]
- atom:    1
  displacement:
    [   0.0000000574617682,  0.0099999999998349,  0.0000000000000000 ]
  forces:
  - [   0.0000603966182098, -0.0085516590625048,  0.0258505083620548 ]
  - [   0.0000598566839471, -0.0000559372128919,  0.0258589349687099 ]
  - [   0.0000628847628832, -0.0000559663603781,  0.0258585680276155 ]
  - [   0.0000608701957390,  0.0005899516399950,  0.0258609969168901 ]
  - [   0.0000585814705119, -0.0000754114007577,  0.0258604101836681 ]
  - [   0.0000649243593216, -0.0000755937871872,  0.0258604492992163 ]
  - [   0.0000637235934846, -0.0001033302396536,  0.0258593838661909 ]
  - [   0.0000605673412792, -0.0000471342355013,  0.0258599985390902 ]
  - [   0.0000594648299739, -0.0000473130494356,  0.0258586164563894 ]
  - [   0.0000608906848356,  0.0000261664390564,  0.0258593074977398 ]
  - [   0.0000622178777121,  0.0000150967389345,  0.0258602611720562 ]
  - [   0.0000615754397586,  0.0000146403908730,  0.0258589033037424 ]
  - [  -0.0001750762748998,  0.0026699234731495, -0.0208229646086693 ]
  - [  -0.0001827199739637,  0.0000316859150189, -0.0182475075125694 ]
  - [  -0.0001669938646955,  0.0000309768001898, -0.0182384401559830 ]
  - [  -0.0001753990218276,  0.0026281480677426, -0.0158450827002525 ]
  - [  -0.0001702211011434,  0.0000315262004733, -0.0183595269918442 ]
  - [  -0.0001784112537280,  0.0000315578363370, -0.0183690115809441 ]
  - [  -0.0000426947080996, -0.0000915426644497, -0.0184041038155556 ]
  - [  -0.0003243786050007, -0.0000925735512283, -0.0184025093913078 ]
  - [  -0.0001554961199872, -0.0000324138964061, -0.0183142051100731 ]
  - [  -0.0003063139156438, -0.0000886297493707, -0.0182081982493401 ]
  - [  -0.0000247865973506, -0.0000896341516636, -0.0182090327143669 ]
  - [  -0.0001939612557180, -0.0000324924076267, -0.0182973667979240 ]
  - [  -0.0000405184400734,  0.0030066133476794, -0.0234981290996075 ]
  - [  -0.0000444700417574,  0.0000698675576132, -0.0259380992501974 ]
  - [  -0.0000320889230352,  0.0000694988339092, -0.0258973520249128 ]
  - [  -0.0000368010951206,  0.0029446701519191, -0.0281641539186239 ]
  - [  -0.0000332588097081,  0.0000679032818880, -0.0257886126637459 ]
  - [  -0.0000424429745181,  0.0000675967967254, -0.0258285254240036 ]
  - [  -0.0001376164145768, -0.0000674351394991, -0.0258771609514952 ]
  - [  -0.0000330158509314,  0.0000134801357490, -0.0258318893611431 ]
  - [   0.0000580518972129, -0.0000670790323056, -0.0258910730481148 ]
  - [   0.0000604502856731, -0.0000658811477479, -0.0258451551198959 ]
  - [  -0.0000425705220550,  0.0000134357942443, -0.0258901156485081 ]
  - [  -0.0001313500106335, -0.0000648611385259, -0.0258305259048939 ]
  - [   0.0001594483619556, -0.0005156295374036,  0.0183160752058029 ]
  - [   0.0001685811439529, -0.0000057003517213,  0.0183128789067268 ]
  - [   0.0001751204254106, -0.0005198083817959,  0.0183173939585686 ]
  - [   0.0001697731204331,  0.0004373717238195,  0.0183120965957642 ]
  - [   0.0001680769491941, -0.0000006913032848,  0.0183131098747253 ]
  - [   0.0001674127997831,  0.0004389110254124,  0.0183135643601418 ]
  - [   0.0001679924753262,  0.0001784875639714,  0.0183035880327225 ]
  - [   0.0001695879618637, -0.0000558887331863,  0.0183146893978119 ]
  - [   0.0001672685757512, -0.0000275763559330,  0.0183112919330597 ]
  - [   0.0001688572519924, -0.0003560398181435,  0.0183171257376671 ]
  - [   0.0001680389104877,  0.0000286237136606,  0.0183130353689194 ]
  - [   0.0001695585378911, -0.0000273227342404,  0.0183134377002716 ]
  - [   0.0000360966660082, -0.0005765279638581, -0.0393919982016087 ]
  - [   0.0000064689666033, -0.0005770053248852, -0.0393915176391602 ]
  - [   0.0000211172737181,  0.0000017458387447, -0.0393848046660423 ]
  - [   0.0000201053917408,  0.0005730330012739, -0.0393857508897781 ]
  - [   0.0000222735106945,  0.0005682422779500, -0.0393848642706871 ]
  - [   0.0000187559053302, -0.0000091117017291, -0.0393870919942856 ]
  - [   0.0000236818632402,  0.0010113052558154, -0.0393687300384045 ]
  - [   0.0000232093880186, -0.0000151460990310, -0.0393877848982811 ]
  - [   0.0000189641505131, -0.0000978251919150, -0.0393883995711803 ]
  - [   0.0000219641897274, -0.0007714870735072, -0.0393934063613415 ]
  - [   0.0000227032542170, -0.0000367304310203, -0.0393883660435677 ]
  - [   0.0000175038439920,  0.0000506760552526, -0.0393892452120781 ]
  - [   0.0008690669201314, -0.0007914183661342,  0.0391402915120125 ]
  - [  -0.0009422213770449, -0.0007916437461972,  0.0391417108476162 ]
  - [  -0.0000392803922296,  0.0000210255384445,  0.0393871217966080 ]
  - [  -0.0009272461757064, -0.0007701367139816,  0.0396277904510498 ]
  - [   0.0008497294038534, -0.0007711220532656,  0.0396264120936394 ]
  - [  -0.0000373143702745,  0.0000189598649740,  0.0393744297325611 ]
  - [  -0.0000475924462080,  0.0003185253590345,  0.0392253026366234 ]
  - [  -0.0000293040648103,  0.0000453740358353,  0.0393820106983185 ]
  - [  -0.0000394913367927,  0.0000202637165785,  0.0393752567470074 ]
  - [  -0.0000280314125121,  0.0003179386258125,  0.0395349003374577 ]
  - [  -0.0000457908026874,  0.0000468213111162,  0.0393772013485432 ]
  - [  -0.0000389833003283,  0.0000216364860535,  0.0393836349248886 ]
- atom:    1
  displacement:
    [  -0.0000000574617682, -0.0099999999998349,  0.0000000000000000 ]
  forces:
  - [   0.0000613451702520,  0.0085638845339417,  0.0258523896336555 ]
  - [   0.0000598761253059,  0.0000680442899466,  0.0258588921278715 ]
  - [   0.0000628624111414,  0.0000679819349898,  0.0258585158735514 ]
  - [   0.0000609246781096, -0.0005771793657914,  0.0258609019219875 ]
  - [   0.0000585854286328,  0.0000871387310326,  0.0258603636175394 ]
  - [   0.0000650528818369,  0.0000870504445629,  0.0258604213595390 ]
  - [   0.0000637762132101,  0.0001158080995083,  0.0258593112230301 ]
  - [   0.0000606884714216,  0.0000596493482590,  0.0258599203079939 ]
  - [   0.0000594661687501,  0.0000593680888414,  0.0258585903793573 ]
  - [   0.0000607857946306, -0.0000141933560371,  0.0258592423051596 ]
  - [   0.0000621117069386, -0.0000025220215321,  0.0258603021502495 ]
  - [   0.0000615853932686, -0.0000028125941753,  0.0258587878197432 ]
  - [  -0.0001757984427968, -0.0026912782341242, -0.0158459693193436 ]
  - [  -0.0001687827316346, -0.0000952411719481, -0.0183588489890099 ]
  - [  -0.0001769684458850, -0.0000949593886617, -0.0183694064617157 ]
  - [  -0.0001743112516124, -0.0027341148816049, -0.0208236426115036 ]