# Thermal properties / unit cell (natom)

unit:
  temperature:   K
  free_energy:   kJ/mol
  entropy:       J/K/mol
  heat_capacity: J/K/mol

natom: 6    
cutoff_frequency: 0.00000
num_modes: 141120
num_integrated_modes: 138646

zero_point_energy:      22.2981397

thermal_properties:
- temperature:         0.0000000
  free_energy:        22.2981397
  entropy:             0.0000000
  heat_capacity:       0.0000000
  energy:             22.2981397

- temperature:        10.0000000
  free_energy:        22.2950095
  entropy:             0.9790359
  heat_capacity:       2.1538516
  energy:             22.3047999

- temperature:        20.0000000
  free_energy:        22.2706466
  entropy:             4.2196279
  heat_capacity:       8.1897195
  energy:             22.3550391

- temperature:        30.0000000
  free_energy:        22.2063672
  entropy:             8.7661830
  heat_capacity:      14.6813972
  energy:             22.4693527

- temperature:        40.0000000
  free_energy:        22.0933219
  entropy:            13.9327216
  heat_capacity:      21.7427140
  energy:             22.6506308

- temperature:        50.0000000
  free_energy:        21.9259087
  entropy:            19.6407678
  heat_capacity:      29.8985349
  energy:             22.9079471

- temperature:        60.0000000
  free_energy:        21.6987308
  entropy:            25.8792314
  heat_capacity:      38.9114736
  energy:             23.2514847

- temperature:        70.0000000
  free_energy:        21.4067811
  entropy:            32.5792140
  heat_capacity:      48.2709064
  energy:             23.6873261

- temperature:        80.0000000
  free_energy:        21.0459738
  entropy:            39.6307136
  heat_capacity:      57.4937014
  energy:             24.2164309

- temperature:        90.0000000
  free_energy:        20.6133985
  entropy:            46.9130626
  heat_capacity:      66.2337457
  energy:             24.8355742

- temperature:       100.0000000
  free_energy:        20.1073160
  entropy:            54.3150289
  heat_capacity:      74.2915839
  energy:             25.5388189

- temperature:       110.0000000
  free_energy:        19.5270104
  entropy:            61.7439409
  heat_capacity:      81.5834008
  energy:             26.3188439

- temperature:       120.0000000
  free_energy:        18.8725900
  entropy:            69.1276390
  heat_capacity:      88.1026172
  energy:             27.1679067

- temperature:       130.0000000
  free_energy:        18.1447880
  entropy:            76.4127652
  heat_capacity:      93.8879109
  energy:             28.0784475

- temperature:       140.0000000
  free_energy:        17.3447902
  entropy:            83.5616591
  heat_capacity:      99.0007312
  energy:             29.0434224

- temperature:       150.0000000
  free_energy:        16.4740941
  entropy:            90.5490642
  heat_capacity:     103.5110495
  energy:             30.0564538

- temperature:       160.0000000
  free_energy:        15.5344006
  entropy:            97.3591810
  heat_capacity:     107.4890625
  energy:             31.1118696

- temperature:       170.0000000
  free_energy:        14.5275313
  entropy:           103.9832362
  heat_capacity:     111.0007903
  energy:             32.2046814

- temperature:       180.0000000
  free_energy:        13.4553687
  entropy:           110.4175700
  heat_capacity:     114.1060653
  energy:             33.3305313

- temperature:       190.0000000
  free_energy:        12.3198126
  entropy:           116.6621725
  heat_capacity:     116.8579041
  energy:             34.4856254

- temperature:       200.0000000
  free_energy:        11.1227494
  entropy:           122.7195848
  heat_capacity:     119.3026326
  energy:             35.6666664

- temperature:       210.0000000
  free_energy:         9.8660307
  entropy:           128.5940856
  heat_capacity:     121.4803848
  energy:             36.8707887

- temperature:       220.0000000
  free_energy:         8.5514594
  entropy:           134.2910936
  heat_capacity:     123.4257556
  energy:             38.0955000

- temperature:       230.0000000
  free_energy:         7.1807801
  entropy:           139.8167335
  heat_capacity:     125.1684870
  energy:             39.3386288

- temperature:       240.0000000
  free_energy:         5.7556743
  entropy:           145.1775232
  heat_capacity:     126.7341236
  energy:             40.5982798

- temperature:       250.0000000
  free_energy:         4.2777569
  entropy:           150.3801504
  heat_capacity:     128.1446086
  energy:             41.8727945

- temperature:       260.0000000
  free_energy:         2.7485761
  entropy:           155.4313150
  heat_capacity:     129.4188103
  energy:             43.1607180

- temperature:       270.0000000
  free_energy:         1.1696134
  entropy:           160.3376200
  heat_capacity:     130.5729783
  energy:             44.4607708

- temperature:       280.0000000
  free_energy:        -0.4577149
  entropy:           165.1054975
  heat_capacity:     131.6211344
  energy:             45.7718244

- temperature:       290.0000000
  free_energy:        -2.1320558
  entropy:           169.7411606
  heat_capacity:     132.5754052
  energy:             47.0928807

- temperature:       300.0000000
  free_energy:        -3.8521173
  entropy:           174.2505735
  heat_capacity:     133.4463034
  energy:             48.4230548

- temperature:       310.0000000
  free_energy:        -5.6166655
  entropy:           178.6394354
  heat_capacity:     134.2429661
  energy:             49.7615595

- temperature:       320.0000000
  free_energy:        -7.4245223
  entropy:           182.9131736
  heat_capacity:     134.9733552
  energy:             51.1076933

- temperature:       330.0000000
  free_energy:        -9.2745624
  entropy:           187.0769436
  heat_capacity:     135.6444269
  energy:             52.4608290

- temperature:       340.0000000
  free_energy:       -11.1657109
  entropy:           191.1356335
  heat_capacity:     136.2622747
  energy:             53.8204045

- temperature:       350.0000000
  free_energy:       -13.0969403
  entropy:           195.0938721
  heat_capacity:     136.8322508
  energy:             55.1859149

- temperature:       360.0000000
  free_energy:       -15.0672682
  entropy:           198.9560385
  heat_capacity:     137.3590676
  energy:             56.5569057

- temperature:       370.0000000
  free_energy:       -17.0757547
  entropy:           202.7262730
  heat_capacity:     137.8468855
  energy:             57.9329664

- temperature:       380.0000000
  free_energy:       -19.1215002
  entropy:           206.4084894
  heat_capacity:     138.2993863
  energy:             59.3137257

- temperature:       390.0000000
  free_energy:       -21.2036434
  entropy:           210.0063864
  heat_capacity:     138.7198364
  energy:             60.6988473

- temperature:       400.0000000
  free_energy:       -23.3213586
  entropy:           213.5234598
  heat_capacity:     139.1111402
  energy:             62.0880253

- temperature:       410.0000000
  free_energy:       -25.4738542
  entropy:           216.9630142
  heat_capacity:     139.4758865
  energy:             63.4809816

- temperature:       420.0000000
  free_energy:       -27.6603709
  entropy:           220.3281742
  heat_capacity:     139.8163880
  energy:             64.8774623

- temperature:       430.0000000
  free_energy:       -29.8801796
  entropy:           223.6218955
  heat_capacity:     140.1347149
  energy:             66.2772355

- temperature:       440.0000000
  free_energy:       -32.1325800
  entropy:           226.8469748
  heat_capacity:     140.4327245
  energy:             67.6800889

- temperature:       450.0000000
  free_energy:       -34.4168991
  entropy:           230.0060599
  heat_capacity:     140.7120866
  energy:             69.0858278

- temperature:       460.0000000
  free_energy:       -36.7324896
  entropy:           233.1016589
  heat_capacity:     140.9743052
  energy:             70.4942735

- temperature:       470.0000000
  free_energy:       -39.0787286
  entropy:           236.1361488
  heat_capacity:     141.2207377
  energy:             71.9052613

- temperature:       480.0000000
  free_energy:       -41.4550164
  entropy:           239.1117836
  heat_capacity:     141.4526115
  energy:             73.3186397

- temperature:       490.0000000
  free_energy:       -43.8607752
  entropy:           242.0307020
  heat_capacity:     141.6710382
  energy:             74.7342687

- temperature:       500.0000000
  free_energy:       -46.2954482
  entropy:           244.8949344
  heat_capacity:     141.8770268
  energy:             76.1520190

- temperature:       510.0000000
  free_energy:       -48.7584981
  entropy:           247.7064097
  heat_capacity:     142.0714943
  energy:             77.5717709

- temperature:       520.0000000
  free_energy:       -51.2494066
  entropy:           250.4669614
  heat_capacity:     142.2552757
  energy:             78.9934133

- temperature:       530.0000000
  free_energy:       -53.7676734
  entropy:           253.1783334
  heat_capacity:     142.4291323
  energy:             80.4168433

- temperature:       540.0000000
  free_energy:       -56.3128149
  entropy:           255.8421854
  heat_capacity:     142.5937596
  energy:             81.8419652

- temperature:       550.0000000
  free_energy:       -58.8843640
  entropy:           258.4600979
  heat_capacity:     142.7497937
  energy:             83.2686899

- temperature:       560.0000000
  free_energy:       -61.4818688
  entropy:           261.0335770
  heat_capacity:     142.8978174
  energy:             84.6969344

- temperature:       570.0000000
  free_energy:       -64.1048922
  entropy:           263.5640588
  heat_capacity:     143.0383653
  energy:             86.1266213

- temperature:       580.0000000
  free_energy:       -66.7530112
  entropy:           266.0529131
  heat_capacity:     143.1719284
  energy:             87.5576784

- temperature:       590.0000000
  free_energy:       -69.4258161
  entropy:           268.5014477
  heat_capacity:     143.2989586
  energy:             88.9900381

- temperature:       600.0000000
  free_energy:       -72.1229099
  entropy:           270.9109118
  heat_capacity:     143.4198719
  energy:             90.4236372

- temperature:       610.0000000
  free_energy:       -74.8439081
  entropy:           273.2824992
  heat_capacity:     143.5350521
  energy:             91.8584164

- temperature:       620.0000000
  free_energy:       -77.5884375
  entropy:           275.6173512
  heat_capacity:     143.6448534
  energy:             93.2943203

- temperature:       630.0000000
  free_energy:       -80.3561363
  entropy:           277.9165602
  heat_capacity:     143.7496034
  energy:             94.7312967

- temperature:       640.0000000
  free_energy:       -83.1466533
  entropy:           280.1811717
  heat_capacity:     143.8496054
  energy:             96.1692965

- temperature:       650.0000000
  free_energy:       -85.9596477
  entropy:           282.4121871
  heat_capacity:     143.9451401
  energy:             97.6082739

- temperature:       660.0000000
  free_energy:       -88.7947883
  entropy:           284.6105661
  heat_capacity:     144.0364681
  energy:             99.0481853

- temperature:       670.0000000
  free_energy:       -91.6517533
  entropy:           286.7772289
  heat_capacity:     144.1238314
  energy:            100.4889900

- temperature:       680.0000000
  free_energy:       -94.5302301
  entropy:           288.9130582
  heat_capacity:     144.2074550
  energy:            101.9306495

- temperature:       690.0000000
  free_energy:       -97.4299145
  entropy:           291.0189013
  heat_capacity:     144.2875480
  energy:            103.3731274

- temperature:       700.0000000
  free_energy:      -100.3505109
  entropy:           293.0955717
  heat_capacity:     144.3643054
  energy:            104.8163893

- temperature:       710.0000000
  free_energy:      -103.2917313
  entropy:           295.1438511
  heat_capacity:     144.4379089
  energy:            106.2604030

- temperature:       720.0000000
  free_energy:      -106.2532958
  entropy:           297.1644908
  heat_capacity:     144.5085281
  energy:            107.7051376

- temperature:       730.0000000
  free_energy:      -109.2349314
  entropy:           299.1582131
  heat_capacity:     144.5763213
  energy:            109.1505641

- temperature:       740.0000000
  free_energy:      -112.2363726
  entropy:           301.1257131
  heat_capacity:     144.6414367
  energy:            110.5966551

- temperature:       750.0000000
  free_energy:      -115.2573605
  entropy:           303.0676599
  heat_capacity:     144.7040128
  energy:            112.0433844

- temperature:       760.0000000
  free_energy:      -118.2976428
  entropy:           304.9846975
  heat_capacity:     144.7641794
  energy:            113.4907273

- temperature:       770.0000000
  free_energy:      -121.3569735
  entropy:           306.8774466
  heat_capacity:     144.8220579
  energy:            114.9386603

- temperature:       780.0000000
  free_energy:      -124.4351128
  entropy:           308.7465051
  heat_capacity:     144.8777626
  energy:            116.3871612

- temperature:       790.0000000
  free_energy:      -127.5318266
  entropy:           310.5924497
  heat_capacity:     144.9314004
  energy:            117.8362087

- temperature:       800.0000000
  free_energy:      -130.6468866
  entropy:           312.4158365
  heat_capacity:     144.9830719
  energy:            119.2857827

- temperature:       810.0000000
  free_energy:      -133.7800699
  entropy:           314.2172022
  heat_capacity:     145.0328717
  energy:            120.7358639

- temperature:       820.0000000
  free_energy:      -136.9311590
  entropy:           315.9970648
  heat_capacity:     145.0808888
  energy:            122.1864341

- temperature:       830.0000000
  free_energy:      -140.0999412
  entropy:           317.7559243
  heat_capacity:     145.1272069
  energy:            123.6374760

- temperature:       840.0000000
  free_energy:      -143.2862090
  entropy:           319.4942642
  heat_capacity:     145.1719049
  energy:            125.0889729

- temperature:       850.0000000
  free_energy:      -146.4897596
  entropy:           321.2125513
  heat_capacity:     145.2150573
  energy:            126.5409090

- temperature:       860.0000000
  free_energy:      -149.7103947
  entropy:           322.9112370
  heat_capacity:     145.2567343
  energy:            127.9932691

- temperature:       870.0000000
  free_energy:      -152.9479205
  entropy:           324.5907580
  heat_capacity:     145.2970021
  energy:            129.4460389

- temperature:       880.0000000
  free_energy:      -156.2021474
  entropy:           326.2515365
  heat_capacity:     145.3359233
  energy:            130.8992047

- temperature:       890.0000000
  free_energy:      -159.4728901
  entropy:           327.8939812
  heat_capacity:     145.3735571
  energy:            132.3527531

- temperature:       900.0000000
  free_energy:      -162.7599672
  entropy:           329.5184877
  heat_capacity:     145.4099596
  energy:            133.8066717

- temperature:       910.0000000
  free_energy:      -166.0632014
  entropy:           331.1254393
  heat_capacity:     145.4451836
  energy:            135.2609484

- temperature:       920.0000000
  free_energy:      -169.3824188
  entropy:           332.7152069
  heat_capacity:     145.4792793
  energy:            136.7155716

- temperature:       930.0000000
  free_energy:      -172.7174494
  entropy:           334.2881503
  heat_capacity:     145.5122943
  energy:            138.1705304

- temperature:       940.0000000
  free_energy:      -176.0681268
  entropy:           335.8446180
  heat_capacity:     145.5442736
  energy:            139.6258140

- temperature:       950.0000000
  free_energy:      -179.4342880
  entropy:           337.3849479
  heat_capacity:     145.5752599
  energy:            141.0814125

- temperature:       960.0000000
  free_energy:      -182.8157731
  entropy:           338.9094679
  heat_capacity:     145.6052940
  energy:            142.5373161

- temperature:       970.0000000
  free_energy:      -186.2124257
  entropy:           340.4184959
  heat_capacity:     145.6344141
  energy:            143.9935154

- temperature:       980.0000000
  free_energy:      -189.6240924
  entropy:           341.9123407
  heat_capacity:     145.6626571
  energy:            145.4500014

- temperature:       990.0000000
  free_energy:      -193.0506229
  entropy:           343.3913016
  heat_capacity:     145.6900576
  energy:            146.9067657

- temperature:      1000.0000000
  free_energy:      -196.4918698
  entropy:           344.8556697
  heat_capacity:     145.7166487
  energy:            148.3637999
