phonopy:
  version: "2.37.1"
  frequency_unit_conversion_factor: 15.633302
  symmetry_tolerance: 1.00000e-05

space_group:
  type: "P1"
  number: 1
  Hall_symbol: "P 1"

primitive_matrix:
- [  1.000000000000000,  0.000000000000000,  0.000000000000000 ]
- [  0.000000000000000,  1.000000000000000,  0.000000000000000 ]
- [  0.000000000000000,  0.000000000000000,  1.000000000000000 ]

supercell_matrix:
- [   2,   0,   0 ]
- [   0,   2,   0 ]
- [   0,   0,   2 ]

primitive_cell:
  lattice:
  - [     5.132297749453605,     0.000000000000000,     0.000000000000000 ] # a
  - [    -2.353739101738714,     7.527873384875203,     0.000000000000000 ] # b
  - [    -1.348679327664912,    -3.645103225624645,     6.869828145334640 ] # c
  points:
  - symbol: Li # 1
    coordinates: [  0.197084621023610,  0.245641964369755,  0.426314906517675 ]
    mass: 6.940000
  - symbol: Li # 2
    coordinates: [  0.196566124947961,  0.745655299843610,  0.926056519043710 ]
    mass: 6.940000
  - symbol: Li # 3
    coordinates: [  0.038256843714431,  0.088936418201180,  0.004008909685618 ]
    mass: 6.940000
  - symbol: Li # 4
    coordinates: [  0.501828454797691,  0.050370937733436,  0.774917052672090 ]
    mass: 6.940000
  - symbol: Li # 5
    coordinates: [  0.501508756553417,  0.549980504864394,  0.274559976860770 ]
    mass: 6.940000
  - symbol: Li # 6
    coordinates: [  0.038363591936303,  0.589137588088830,  0.503656420922640 ]
    mass: 6.940000
  - symbol: Li # 7
    coordinates: [  0.343696357382199,  0.393523298001147,  0.852482431136103 ]
    mass: 6.940000
  - symbol: Li # 8
    coordinates: [  0.343218943050509,  0.893229239224920,  0.352749454892159 ]
    mass: 6.940000
  - symbol: Ga # 9
    coordinates: [  0.769948460509394,  0.819471953653576,  0.139360675564392 ]
    mass: 69.723000
  - symbol: Ga # 10
    coordinates: [  0.770458389798489,  0.319737480464310,  0.639402514856430 ]
    mass: 69.723000
  - symbol: Sn # 11
    coordinates: [  0.928597539003036,  0.962073243929319,  0.576684090075102 ]
    mass: 118.710000
  - symbol: Sn # 12
    coordinates: [  0.928286115173332,  0.461846455288204,  0.076276471344457 ]
    mass: 118.710000
  - symbol: Sn # 13
    coordinates: [  0.611632632213386,  0.677360985008920,  0.702136952849336 ]
    mass: 118.710000
  - symbol: Sn # 14
    coordinates: [  0.611771866150839,  0.177109841296141,  0.202177740461837 ]
    mass: 118.710000
  reciprocal_lattice: # without 2pi
  - [     0.194844502173800,     0.060922002812470,     0.070576691424731 ] # a*
  - [     0.000000000000000,     0.132839641273613,     0.070484180193954 ] # b*
  - [     0.000000000000000,     0.000000000000000,     0.145564048888051 ] # c*

unit_cell:
  lattice:
  - [     5.132297749453605,     0.000000000000000,     0.000000000000000 ] # a
  - [    -2.353739101738714,     7.527873384875203,     0.000000000000000 ] # b
  - [    -1.348679327664912,    -3.645103225624645,     6.869828145334640 ] # c
  points:
  - symbol: Li # 1
    coordinates: [  0.197084621023610,  0.245641964369755,  0.426314906517675 ]
    mass: 6.940000
    reduced_to: 1
  - symbol: Li # 2
    coordinates: [  0.196566124947961,  0.745655299843610,  0.926056519043710 ]
    mass: 6.940000
    reduced_to: 2
  - symbol: Li # 3
    coordinates: [  0.038256843714431,  0.088936418201180,  0.004008909685618 ]
    mass: 6.940000
    reduced_to: 3
  - symbol: Li # 4
    coordinates: [  0.501828454797691,  0.050370937733436,  0.774917052672090 ]
    mass: 6.940000
    reduced_to: 4
  - symbol: Li # 5
    coordinates: [  0.501508756553417,  0.549980504864394,  0.274559976860770 ]
    mass: 6.940000
    reduced_to: 5
  - symbol: Li # 6
    coordinates: [  0.038363591936303,  0.589137588088830,  0.503656420922640 ]
    mass: 6.940000
    reduced_to: 6
  - symbol: Li # 7
    coordinates: [  0.343696357382199,  0.393523298001147,  0.852482431136103 ]
    mass: 6.940000
    reduced_to: 7
  - symbol: Li # 8
    coordinates: [  0.343218943050509,  0.893229239224920,  0.352749454892159 ]
    mass: 6.940000
    reduced_to: 8
  - symbol: Ga # 9
    coordinates: [  0.769948460509394,  0.819471953653576,  0.139360675564392 ]
    mass: 69.723000
    reduced_to: 9
  - symbol: Ga # 10
    coordinates: [  0.770458389798489,  0.319737480464310,  0.639402514856430 ]
    mass: 69.723000
    reduced_to: 10
  - symbol: Sn # 11
    coordinates: [  0.928597539003036,  0.962073243929319,  0.576684090075102 ]
    mass: 118.710000
    reduced_to: 11
  - symbol: Sn # 12
    coordinates: [  0.928286115173332,  0.461846455288204,  0.076276471344457 ]
    mass: 118.710000
    reduced_to: 12
  - symbol: Sn # 13
    coordinates: [  0.611632632213386,  0.677360985008920,  0.702136952849336 ]
    mass: 118.710000
    reduced_to: 13
  - symbol: Sn # 14
    coordinates: [  0.611771866150839,  0.177109841296141,  0.202177740461837 ]
    mass: 118.710000
    reduced_to: 14

supercell:
  lattice:
  - [    10.264595498907211,     0.000000000000000,     0.000000000000000 ] # a
  - [    -4.707478203477429,    15.055746769750407,     0.000000000000000 ] # b
  - [    -2.697358655329824,    -7.290206451249289,    13.739656290669281 ] # c
  points:
  - symbol: Li # 1
    coordinates: [  0.098542310511805,  0.122820982184877,  0.213157453258838 ]
    mass: 6.940000
    reduced_to: 1
  - symbol: Li # 2
    coordinates: [  0.598542310511805,  0.122820982184877,  0.213157453258838 ]
    mass: 6.940000
    reduced_to: 1
  - symbol: Li # 3
    coordinates: [  0.098542310511805,  0.622820982184877,  0.213157453258838 ]
    mass: 6.940000
    reduced_to: 1
  - symbol: Li # 4
    coordinates: [  0.598542310511805,  0.622820982184877,  0.213157453258838 ]
    mass: 6.940000
    reduced_to: 1
  - symbol: Li # 5
    coordinates: [  0.098542310511805,  0.122820982184877,  0.713157453258838 ]
    mass: 6.940000
    reduced_to: 1
  - symbol: Li # 6
    coordinates: [  0.598542310511805,  0.122820982184877,  0.713157453258838 ]
    mass: 6.940000
    reduced_to: 1
  - symbol: Li # 7
    coordinates: [  0.098542310511805,  0.622820982184877,  0.713157453258838 ]
    mass: 6.940000
    reduced_to: 1
  - symbol: Li # 8
    coordinates: [  0.598542310511805,  0.622820982184877,  0.713157453258838 ]
    mass: 6.940000
    reduced_to: 1
  - symbol: Li # 9
    coordinates: [  0.098283062473981,  0.372827649921805,  0.463028259521855 ]
    mass: 6.940000
    reduced_to: 9
  - symbol: Li # 10
    coordinates: [  0.598283062473981,  0.372827649921805,  0.463028259521855 ]
    mass: 6.940000
    reduced_to: 9
  - symbol: Li # 11
    coordinates: [  0.098283062473981,  0.872827649921805,  0.463028259521855 ]
    mass: 6.940000
    reduced_to: 9
  - symbol: Li # 12
    coordinates: [  0.598283062473981,  0.872827649921805,  0.463028259521855 ]
    mass: 6.940000
    reduced_to: 9
  - symbol: Li # 13
    coordinates: [  0.098283062473981,  0.372827649921805,  0.963028259521855 ]
    mass: 6.940000
    reduced_to: 9
  - symbol: Li # 14
    coordinates: [  0.598283062473981,  0.372827649921805,  0.963028259521855 ]
    mass: 6.940000
    reduced_to: 9
  - symbol: Li # 15
    coordinates: [  0.098283062473981,  0.872827649921805,  0.963028259521855 ]
    mass: 6.940000
    reduced_to: 9
  - symbol: Li # 16
    coordinates: [  0.598283062473981,  0.872827649921805,  0.963028259521855 ]
    mass: 6.940000
    reduced_to: 9
  - symbol: Li # 17
    coordinates: [  0.019128421857215,  0.044468209100590,  0.002004454842809 ]
    mass: 6.940000
    reduced_to: 17
  - symbol: Li # 18
    coordinates: [  0.519128421857215,  0.044468209100590,  0.002004454842809 ]
    mass: 6.940000
    reduced_to: 17
  - symbol: Li # 19
    coordinates: [  0.019128421857215,  0.544468209100590,  0.002004454842809 ]
    mass: 6.940000
    reduced_to: 17
  - symbol: Li # 20
    coordinates: [  0.519128421857215,  0.544468209100590,  0.002004454842809 ]
    mass: 6.940000
    reduced_to: 17
  - symbol: Li # 21
    coordinates: [  0.019128421857215,  0.044468209100590,  0.502004454842809 ]
    mass: 6.940000
    reduced_to: 17
  - symbol: Li # 22
    coordinates: [  0.519128421857215,  0.044468209100590,  0.502004454842809 ]
    mass: 6.940000
    reduced_to: 17
  - symbol: Li # 23
    coordinates: [  0.019128421857215,  0.544468209100590,  0.502004454842809 ]
    mass: 6.940000
    reduced_to: 17
  - symbol: Li # 24
    coordinates: [  0.519128421857215,  0.544468209100590,  0.502004454842809 ]
    mass: 6.940000
    reduced_to: 17
  - symbol: Li # 25
    coordinates: [  0.250914227398845,  0.025185468866718,  0.387458526336045 ]
    mass: 6.940000
    reduced_to: 25
  - symbol: Li # 26
    coordinates: [  0.750914227398845,  0.025185468866718,  0.387458526336045 ]
    mass: 6.940000
    reduced_to: 25
  - symbol: Li # 27
    coordinates: [  0.250914227398845,  0.525185468866718,  0.387458526336045 ]
    mass: 6.940000
    reduced_to: 25
  - symbol: Li # 28
    coordinates: [  0.750914227398845,  0.525185468866718,  0.387458526336045 ]
    mass: 6.940000
    reduced_to: 25
  - symbol: Li # 29
    coordinates: [  0.250914227398845,  0.025185468866718,  0.887458526336045 ]
    mass: 6.940000
    reduced_to: 25
  - symbol: Li # 30
    coordinates: [  0.750914227398845,  0.025185468866718,  0.887458526336045 ]
    mass: 6.940000
    reduced_to: 25
  - symbol: Li # 31
    coordinates: [  0.250914227398845,  0.525185468866718,  0.887458526336045 ]
    mass: 6.940000
    reduced_to: 25
  - symbol: Li # 32
    coordinates: [  0.750914227398845,  0.525185468866718,  0.887458526336045 ]
    mass: 6.940000
    reduced_to: 25
  - symbol: Li # 33
    coordinates: [  0.250754378276709,  0.274990252432197,  0.137279988430385 ]
    mass: 6.940000
    reduced_to: 33
  - symbol: Li # 34
    coordinates: [  0.750754378276709,  0.274990252432197,  0.137279988430385 ]
    mass: 6.940000
    reduced_to: 33
  - symbol: Li # 35
    coordinates: [  0.250754378276709,  0.774990252432197,  0.137279988430385 ]
    mass: 6.940000
    reduced_to: 33
  - symbol: Li # 36
    coordinates: [  0.750754378276709,  0.774990252432197,  0.137279988430385 ]
    mass: 6.940000
    reduced_to: 33
  - symbol: Li # 37
    coordinates: [  0.250754378276709,  0.274990252432197,  0.637279988430385 ]
    mass: 6.940000
    reduced_to: 33
  - symbol: Li # 38
    coordinates: [  0.750754378276709,  0.274990252432197,  0.637279988430385 ]
    mass: 6.940000
    reduced_to: 33
  - symbol: Li # 39
    coordinates: [  0.250754378276709,  0.774990252432197,  0.637279988430385 ]
    mass: 6.940000
    reduced_to: 33
  - symbol: Li # 40
    coordinates: [  0.750754378276709,  0.774990252432197,  0.637279988430385 ]
    mass: 6.940000
    reduced_to: 33
  - symbol: Li # 41
    coordinates: [  0.019181795968152,  0.294568794044415,  0.251828210461320 ]
    mass: 6.940000
    reduced_to: 41
  - symbol: Li # 42
    coordinates: [  0.519181795968152,  0.294568794044415,  0.251828210461320 ]
    mass: 6.940000
    reduced_to: 41
  - symbol: Li # 43
    coordinates: [  0.019181795968152,  0.794568794044415,  0.251828210461320 ]
    mass: 6.940000
    reduced_to: 41
  - symbol: Li # 44
    coordinates: [  0.519181795968152,  0.794568794044415,  0.251828210461320 ]
    mass: 6.940000
    reduced_to: 41
  - symbol: Li # 45
    coordinates: [  0.019181795968152,  0.294568794044415,  0.751828210461320 ]
    mass: 6.940000
    reduced_to: 41
  - symbol: Li # 46
    coordinates: [  0.519181795968152,  0.294568794044415,  0.751828210461320 ]
    mass: 6.940000
    reduced_to: 41
  - symbol: Li # 47
    coordinates: [  0.019181795968152,  0.794568794044415,  0.751828210461320 ]
    mass: 6.940000
    reduced_to: 41
  - symbol: Li # 48
    coordinates: [  0.519181795968152,  0.794568794044415,  0.751828210461320 ]
    mass: 6.940000
    reduced_to: 41
  - symbol: Li # 49
    coordinates: [  0.171848178691100,  0.196761649000574,  0.426241215568052 ]
    mass: 6.940000
    reduced_to: 49
  - symbol: Li # 50
    coordinates: [  0.671848178691099,  0.196761649000574,  0.426241215568052 ]
    mass: 6.940000
    reduced_to: 49
  - symbol: Li # 51
    coordinates: [  0.171848178691100,  0.696761649000574,  0.426241215568052 ]
    mass: 6.940000
    reduced_to: 49
  - symbol: Li # 52
    coordinates: [  0.671848178691099,  0.696761649000574,  0.426241215568052 ]
    mass: 6.940000
    reduced_to: 49
  - symbol: Li # 53
    coordinates: [  0.171848178691100,  0.196761649000574,  0.926241215568052 ]
    mass: 6.940000
    reduced_to: 49
  - symbol: Li # 54
    coordinates: [  0.671848178691099,  0.196761649000574,  0.926241215568052 ]
    mass: 6.940000
    reduced_to: 49
  - symbol: Li # 55
    coordinates: [  0.171848178691100,  0.696761649000574,  0.926241215568052 ]
    mass: 6.940000
    reduced_to: 49
  - symbol: Li # 56
    coordinates: [  0.671848178691099,  0.696761649000574,  0.926241215568052 ]
    mass: 6.940000
    reduced_to: 49
  - symbol: Li # 57
    coordinates: [  0.171609471525255,  0.446614619612460,  0.176374727446080 ]
    mass: 6.940000
    reduced_to: 57
  - symbol: Li # 58
    coordinates: [  0.671609471525255,  0.446614619612460,  0.176374727446080 ]
    mass: 6.940000
    reduced_to: 57
  - symbol: Li # 59
    coordinates: [  0.171609471525255,  0.946614619612460,  0.176374727446080 ]
    mass: 6.940000
    reduced_to: 57
  - symbol: Li # 60
    coordinates: [  0.671609471525255,  0.946614619612460,  0.176374727446080 ]
    mass: 6.940000
    reduced_to: 57
  - symbol: Li # 61
    coordinates: [  0.171609471525255,  0.446614619612460,  0.676374727446080 ]
    mass: 6.940000
    reduced_to: 57
  - symbol: Li # 62
    coordinates: [  0.671609471525255,  0.446614619612460,  0.676374727446080 ]
    mass: 6.940000
    reduced_to: 57
  - symbol: Li # 63
    coordinates: [  0.171609471525255,  0.946614619612460,  0.676374727446080 ]
    mass: 6.940000
    reduced_to: 57
  - symbol: Li # 64
    coordinates: [  0.671609471525255,  0.946614619612460,  0.676374727446080 ]
    mass: 6.940000
    reduced_to: 57
  - symbol: Ga # 65
    coordinates: [  0.384974230254697,  0.409735976826788,  0.069680337782196 ]
    mass: 69.723000
    reduced_to: 65
  - symbol: Ga # 66
    coordinates: [  0.884974230254697,  0.409735976826788,  0.069680337782196 ]
    mass: 69.723000
    reduced_to: 65
  - symbol: Ga # 67
    coordinates: [  0.384974230254697,  0.909735976826788,  0.069680337782196 ]
    mass: 69.723000
    reduced_to: 65
  - symbol: Ga # 68
    coordinates: [  0.884974230254697,  0.909735976826788,  0.069680337782196 ]
    mass: 69.723000
    reduced_to: 65
  - symbol: Ga # 69
    coordinates: [  0.384974230254697,  0.409735976826788,  0.569680337782196 ]
    mass: 69.723000
    reduced_to: 65
  - symbol: Ga # 70
    coordinates: [  0.884974230254697,  0.409735976826788,  0.569680337782196 ]
    mass: 69.723000
    reduced_to: 65
  - symbol: Ga # 71
    coordinates: [  0.384974230254697,  0.909735976826788,  0.569680337782196 ]
    mass: 69.723000
    reduced_to: 65
  - symbol: Ga # 72
    coordinates: [  0.884974230254697,  0.909735976826788,  0.569680337782196 ]
    mass: 69.723000
    reduced_to: 65
  - symbol: Ga # 73
    coordinates: [  0.385229194899244,  0.159868740232155,  0.319701257428215 ]
    mass: 69.723000
    reduced_to: 73
  - symbol: Ga # 74
    coordinates: [  0.885229194899244,  0.159868740232155,  0.319701257428215 ]
    mass: 69.723000
    reduced_to: 73
  - symbol: Ga # 75
    coordinates: [  0.385229194899244,  0.659868740232155,  0.319701257428215 ]
    mass: 69.723000
    reduced_to: 73
  - symbol: Ga # 76
    coordinates: [  0.885229194899244,  0.659868740232155,  0.319701257428215 ]
    mass: 69.723000
    reduced_to: 73
  - symbol: Ga # 77
    coordinates: [  0.385229194899244,  0.159868740232155,  0.819701257428215 ]
    mass: 69.723000
    reduced_to: 73
  - symbol: Ga # 78
    coordinates: [  0.885229194899244,  0.159868740232155,  0.819701257428215 ]
    mass: 69.723000
    reduced_to: 73
  - symbol: Ga # 79
    coordinates: [  0.385229194899244,  0.659868740232155,  0.819701257428215 ]
    mass: 69.723000
    reduced_to: 73
  - symbol: Ga # 80
    coordinates: [  0.885229194899244,  0.659868740232155,  0.819701257428215 ]
    mass: 69.723000
    reduced_to: 73
  - symbol: Sn # 81
    coordinates: [  0.464298769501518,  0.481036621964659,  0.288342045037551 ]
    mass: 118.710000
    reduced_to: 81
  - symbol: Sn # 82
    coordinates: [  0.964298769501518,  0.481036621964659,  0.288342045037551 ]
    mass: 118.710000
    reduced_to: 81
  - symbol: Sn # 83
    coordinates: [  0.464298769501518,  0.981036621964659,  0.288342045037551 ]
    mass: 118.710000
    reduced_to: 81
  - symbol: Sn # 84
    coordinates: [  0.964298769501518,  0.981036621964659,  0.288342045037551 ]
    mass: 118.710000
    reduced_to: 81
  - symbol: Sn # 85
    coordinates: [  0.464298769501518,  0.481036621964659,  0.788342045037551 ]
    mass: 118.710000
    reduced_to: 81
  - symbol: Sn # 86
    coordinates: [  0.964298769501518,  0.481036621964659,  0.788342045037551 ]
    mass: 118.710000
    reduced_to: 81
  - symbol: Sn # 87
    coordinates: [  0.464298769501518,  0.981036621964659,  0.788342045037551 ]
    mass: 118.710000
    reduced_to: 81
  - symbol: Sn # 88
    coordinates: [  0.964298769501518,  0.981036621964659,  0.788342045037551 ]
    mass: 118.710000
    reduced_to: 81
  - symbol: Sn # 89
    coordinates: [  0.464143057586666,  0.230923227644102,  0.038138235672229 ]
    mass: 118.710000
    reduced_to: 89
  - symbol: Sn # 90
    coordinates: [  0.964143057586666,  0.230923227644102,  0.038138235672229 ]
    mass: 118.710000
    reduced_to: 89
  - symbol: Sn # 91
    coordinates: [  0.464143057586666,  0.730923227644102,  0.038138235672229 ]
    mass: 118.710000
    reduced_to: 89
  - symbol: Sn # 92
    coordinates: [  0.964143057586666,  0.730923227644102,  0.038138235672229 ]
    mass: 118.710000
    reduced_to: 89
  - symbol: Sn # 93
    coordinates: [  0.464143057586666,  0.230923227644102,  0.538138235672229 ]
    mass: 118.710000
    reduced_to: 89
  - symbol: Sn # 94
    coordinates: [  0.964143057586666,  0.230923227644102,  0.538138235672229 ]
    mass: 118.710000
    reduced_to: 89
  - symbol: Sn # 95
    coordinates: [  0.464143057586666,  0.730923227644102,  0.538138235672229 ]
    mass: 118.710000
    reduced_to: 89
  - symbol: Sn # 96
    coordinates: [  0.964143057586666,  0.730923227644102,  0.538138235672229 ]
    mass: 118.710000
    reduced_to: 89
  - symbol: Sn # 97
    coordinates: [  0.305816316106693,  0.338680492504460,  0.351068476424668 ]
    mass: 118.710000
    reduced_to: 97
  - symbol: Sn # 98
    coordinates: [  0.805816316106693,  0.338680492504460,  0.351068476424668 ]
    mass: 118.710000
    reduced_to: 97
  - symbol: Sn # 99
    coordinates: [  0.305816316106693,  0.838680492504460,  0.351068476424668 ]
    mass: 118.710000
    reduced_to: 97
  - symbol: Sn # 100
    coordinates: [  0.805816316106693,  0.838680492504460,  0.351068476424668 ]
    mass: 118.710000
    reduced_to: 97
  - symbol: Sn # 101
    coordinates: [  0.305816316106693,  0.338680492504460,  0.851068476424668 ]
    mass: 118.710000
    reduced_to: 97
  - symbol: Sn # 102
    coordinates: [  0.805816316106693,  0.338680492504460,  0.851068476424668 ]
    mass: 118.710000
    reduced_to: 97
  - symbol: Sn # 103
    coordinates: [  0.305816316106693,  0.838680492504460,  0.851068476424668 ]
    mass: 118.710000
    reduced_to: 97
  - symbol: Sn # 104
    coordinates: [  0.805816316106693,  0.838680492504460,  0.851068476424668 ]
    mass: 118.710000
    reduced_to: 97
  - symbol: Sn # 105
    coordinates: [  0.305885933075420,  0.088554920648071,  0.101088870230918 ]
    mass: 118.710000
    reduced_to: 105
  - symbol: Sn # 106
    coordinates: [  0.805885933075420,  0.088554920648071,  0.101088870230918 ]
    mass: 118.710000
    reduced_to: 105
  - symbol: Sn # 107
    coordinates: [  0.305885933075420,  0.588554920648071,  0.101088870230918 ]
    mass: 118.710000
    reduced_to: 105
  - symbol: Sn # 108
    coordinates: [  0.805885933075420,  0.588554920648071,  0.101088870230918 ]
    mass: 118.710000
    reduced_to: 105
  - symbol: Sn # 109
    coordinates: [  0.305885933075420,  0.088554920648071,  0.601088870230918 ]
    mass: 118.710000
    reduced_to: 105
  - symbol: Sn # 110
    coordinates: [  0.805885933075420,  0.088554920648071,  0.601088870230918 ]
    mass: 118.710000
    reduced_to: 105
  - symbol: Sn # 111
    coordinates: [  0.305885933075420,  0.588554920648071,  0.601088870230918 ]
    mass: 118.710000
    reduced_to: 105
  - symbol: Sn # 112
    coordinates: [  0.805885933075420,  0.588554920648071,  0.601088870230918 ]
    mass: 118.710000
    reduced_to: 105

displacements:
- atom:    1
  displacement:
    [   0.0100000000000000,  0.0000000000000000,  0.0000000000000000 ]
  forces:
  - [   0.0106942802667618, -0.0298654697835445,  0.0342667810618877 ]
  - [   0.0276323966681957, -0.0311122853308916,  0.0357592515647411 ]
  - [   0.0279919393360615, -0.0309194866567850,  0.0358773022890091 ]
  - [   0.0279826130717993, -0.0309507250785828,  0.0358676500618458 ]
  - [   0.0280052013695240, -0.0309197902679443,  0.0358611829578876 ]
  - [   0.0279762763530016, -0.0309205353260040,  0.0358606316149235 ]
  - [   0.0279912389814854, -0.0309251826256514,  0.0358547344803810 ]
  - [   0.0279985666275024, -0.0309124477207661,  0.0358726717531681 ]
  - [   0.0314375720918179, -0.0310368351638317,  0.0378271639347076 ]
  - [   0.0310070831328630, -0.0315968394279480,  0.0375068560242653 ]
  - [   0.0311356540769339, -0.0313841067254543,  0.0376010052859783 ]
  - [   0.0310850273817778, -0.0313948728144169,  0.0375927314162254 ]
  - [   0.0311335846781731, -0.0312857069075108,  0.0375455468893051 ]
  - [   0.0310872439295053, -0.0314301699399948,  0.0375974439084530 ]
  - [   0.0314383208751678, -0.0312590375542641,  0.0377440527081490 ]
  - [   0.0310064218938351, -0.0315304249525070,  0.0375216342508793 ]
  - [   0.0226555429399014,  0.0750023275613785, -0.0291451103985310 ]
  - [   0.0221660248935223,  0.0748685002326965, -0.0287456996738911 ]
  - [   0.0229108296334743,  0.0749194920063019, -0.0288316998630762 ]
  - [   0.0229200944304466,  0.0748736783862114, -0.0288349092006683 ]
  - [   0.0229118056595325,  0.0749050676822662, -0.0288413949310780 ]
  - [   0.0229272358119488,  0.0748805776238441, -0.0288512762635946 ]
  - [   0.0229193009436131,  0.0748432278633118, -0.0288681015372276 ]
  - [   0.0228771269321442,  0.0747370123863220, -0.0289809480309486 ]
  - [  -0.0201697424054146, -0.0749623924493790,  0.0280990973114967 ]
  - [  -0.0205599479377270, -0.0755940750241280,  0.0282512865960598 ]
  - [  -0.0204570665955544, -0.0754458308219910,  0.0283006615936756 ]
  - [  -0.0204867273569107, -0.0753863006830215,  0.0282901804894209 ]
  - [  -0.0204459726810455, -0.0753656774759293,  0.0284642167389393 ]
  - [  -0.0204125270247459, -0.0753512382507324,  0.0281031578779221 ]
  - [  -0.0205234363675117, -0.0753867700695992,  0.0282820034772158 ]
  - [  -0.0205142647027969, -0.0753768309950829,  0.0282780639827251 ]
  - [  -0.0198345854878426, -0.0735562667250633,  0.0311865415424109 ]
  - [  -0.0203957259654999, -0.0737349539995193,  0.0312207825481892 ]
  - [  -0.0203700587153435, -0.0737764090299606,  0.0312578007578850 ]
  - [  -0.0203612707555294, -0.0739391371607780,  0.0312223769724369 ]
  - [  -0.0203065574169159, -0.0738737136125565,  0.0312563329935074 ]
  - [  -0.0202406942844391, -0.0738805383443832,  0.0312533080577850 ]
  - [  -0.0202607139945030, -0.0738769024610519,  0.0312465671449900 ]
  - [  -0.0202586017549038, -0.0738827288150787,  0.0312816575169563 ]
  - [   0.0228890404105186,  0.0691982209682465, -0.0282393395900726 ]
  - [   0.0213735029101372,  0.0709160268306732, -0.0279484130442142 ]
  - [   0.0215500816702843,  0.0708433017134666, -0.0277910530567169 ]
  - [   0.0215284153819084,  0.0708469375967979, -0.0277787595987320 ]
  - [   0.0215273536741734,  0.0708730295300484, -0.0277906041592360 ]
  - [   0.0215100869536400,  0.0708393976092339, -0.0277078505605459 ]
  - [   0.0215095579624176,  0.0708542391657829, -0.0277754366397858 ]
  - [   0.0215355865657330,  0.0708633363246918, -0.0277468301355839 ]
  - [  -0.0314868167042732,  0.0325831137597561, -0.0369887053966522 ]
  - [  -0.0330377332866192,  0.0325325839221478, -0.0369659513235092 ]
  - [  -0.0319846794009209,  0.0326464027166367, -0.0368958339095116 ]
  - [  -0.0319688767194748,  0.0326880067586899, -0.0369166880846024 ]
  - [  -0.0319042503833771,  0.0326442010700703, -0.0368699058890343 ]
  - [  -0.0320484004914761,  0.0326358824968338, -0.0368973091244698 ]
  - [  -0.0319937765598297,  0.0326287150382996, -0.0369154922664165 ]
  - [  -0.0320230498909950,  0.0324890688061714, -0.0370236933231354 ]
  - [  -0.0284125097095966,  0.0343961529433727, -0.0387498214840889 ]
  - [  -0.0284591596573591,  0.0343763157725334, -0.0387792438268661 ]
  - [  -0.0271811839193106,  0.0326786525547504, -0.0387006849050522 ]
  - [  -0.0283331461250782,  0.0345312729477882, -0.0388653166592121 ]
  - [  -0.0284914914518595,  0.0343535095453262, -0.0387851037085056 ]
  - [  -0.0284673869609833,  0.0343621820211411, -0.0387501567602158 ]
  - [  -0.0284849628806114,  0.0343540385365486, -0.0387573651969433 ]
  - [  -0.0284779239445925,  0.0343659929931164, -0.0387651175260544 ]
  - [   0.0000414224341512,  0.0005087335593998,  0.0009167460957542 ]
  - [  -0.0000339302932844,  0.0007388038793579,  0.0008636087877676 ]
  - [   0.0001242966391146,  0.0005683368071914,  0.0008886320283636 ]
  - [   0.0001525892876089,  0.0013502701185644,  0.0017382195219398 ]
  - [   0.0000325032597175,  0.0006848645862192,  0.0007478048792109 ]
  - [  -0.0000096826115623,  0.0007147418800741,  0.0009329384192824 ]
  - [   0.0000220846268348,  0.0006795394001529,  0.0008508284226991 ]
  - [   0.0000107775849756,  0.0006930120289326,  0.0008237999281846 ]
  - [   0.0028540415223688, -0.0009426354663447,  0.0007088715210557 ]
  - [   0.0008471240871586, -0.0002636004355736, -0.0034864870831370 ]
  - [  -0.0007870992412791,  0.0000840509310365, -0.0020485399290919 ]
  - [  -0.0008341760840267,  0.0001539986988064, -0.0020378232002258 ]
  - [  -0.0008168077911250,  0.0001315939007327, -0.0019357589771971 ]
  - [  -0.0008071370539255,  0.0001335376000497, -0.0021242685616016 ]
  - [  -0.0008229041704908,  0.0001374422572553, -0.0020296946167946 ]
  - [  -0.0007999130757526,  0.0001140958629549, -0.0020391345024109 ]
  - [   0.0148685611784458,  0.3012987375259399, -0.1677157282829285 ]
  - [   0.0150039903819561,  0.3015136122703552, -0.1677692234516144 ]
  - [   0.0153105687350035,  0.3009312450885773, -0.1677323579788208 ]
  - [   0.0153626427054405,  0.3039557933807373, -0.1687818914651871 ]
  - [   0.0149898100644350,  0.3013272881507874, -0.1677369326353073 ]
  - [   0.0149783436208963,  0.3013197779655457, -0.1677193790674210 ]
  - [   0.0150132924318314,  0.3013166189193726, -0.1677040755748749 ]
  - [   0.0149178300052881,  0.3013495504856110, -0.1678200662136078 ]
  - [   0.0167282745242119,  0.3025945127010345, -0.1609909385442734 ]
  - [   0.0168076045811176,  0.3028668165206909, -0.1609653532505035 ]
  - [   0.0167367532849312,  0.3026159405708313, -0.1608771681785583 ]
  - [   0.0165717899799347,  0.3026749491691589, -0.1609502136707306 ]
  - [   0.0167288705706596,  0.3024651110172272, -0.1604305505752563 ]
  - [   0.0169029720127583,  0.3027495741844177, -0.1613174527883530 ]
  - [   0.0167606342583895,  0.3026277720928192, -0.1608682870864868 ]
  - [   0.0167591273784637,  0.3026145100593567, -0.1608837693929672 ]
  - [  -0.0158237628638744, -0.3021188378334045,  0.1633830517530441 ]
  - [  -0.0156088545918465, -0.3043514192104340,  0.1621018052101135 ]
  - [  -0.0159023646265268, -0.3037419319152832,  0.1621352136135101 ]
  - [  -0.0162062607705593, -0.3046546578407288,  0.1624734401702881 ]
  - [  -0.0159854032099247, -0.3039709329605103,  0.1622200608253479 ]
  - [  -0.0159464608877897, -0.3039516210556030,  0.1622177064418793 ]
  - [  -0.0159423854202032, -0.3039894104003906,  0.1622644364833832 ]
  - [  -0.0159800499677658, -0.3039757013320923,  0.1624107062816620 ]
  - [  -0.0134167484939098, -0.3012809157371521,  0.1636384129524231 ]
  - [  -0.0121634826064110, -0.3035935759544373,  0.1708765029907227 ]
  - [  -0.0172716174274683, -0.3019841909408569,  0.1668440252542496 ]
  - [  -0.0172288287431002, -0.3019360601902008,  0.1668544411659241 ]
  - [  -0.0172270499169827, -0.3018473386764526,  0.1668099462985992 ]
  - [  -0.0173118487000465, -0.3020597696304321,  0.1668886244297028 ]
  - [  -0.0172942504286766, -0.3019929826259613,  0.1668672263622284 ]
  - [  -0.0172667019069195, -0.3019559979438782,  0.1668611764907837 ]
- atom:    1
  displacement:
    [  -0.0100000000000000,  0.0000000000000000,  0.0000000000000000 ]
  forces:
  - [   0.0452392138540745, -0.0319761335849762,  0.0375305972993374 ]
  - [   0.0283478647470474, -0.0307212918996811,  0.0359696298837662 ]
  - [   0.0279916562139988, -0.0309144053608179,  0.0358551368117332 ]
  - [   0.0279992315918207, -0.0308852680027485,  0.0358636006712914 ]
  - [   0.0279778316617012, -0.0309145115315914,  0.0358694009482861 ]
  - [   0.0280067492276430, -0.0309137944132090,  0.0358703732490540 ]
  - [   0.0279913470149040, -0.0309091396629810,  0.0358753390610218 ]
  - [   0.0279835611581802, -0.0309228412806988,  0.0358570851385593 ]
  - [   0.0307718403637409, -0.0317469090223312,  0.0373431220650673 ]
  - [   0.0312078073620796, -0.0311810281127691,  0.0376638583838940 ]
  - [   0.0310785043984652, -0.0313887074589729,  0.0375700592994690 ]
  - [   0.0311229322105646, -0.0313851460814476,  0.0375832021236420 ]
  - [   0.0310774222016335, -0.0314911007881165,  0.0376279652118683 ]
  - [   0.0311245918273926, -0.0313461907207966,  0.0375733748078346 ]
  - [   0.0307749770581722, -0.0315083637833595,  0.0374360829591751 ]