phonopy:
  version: "2.37.1"
  frequency_unit_conversion_factor: 15.633302
  symmetry_tolerance: 1.00000e-05

space_group:
  type: "P2_1/m"
  number: 11
  Hall_symbol: "-P 2yb"

primitive_matrix:
- [  0.000000000000000,  1.000000000000000,  0.000000000000000 ]
- [ -1.000000000000000,  0.000000000000000,  0.000000000000000 ]
- [  0.000000000000000,  0.000000000000000,  1.000000000000000 ]

supercell_matrix:
- [   3,   0,   0 ]
- [   0,   4,   0 ]
- [   0,   0,   2 ]

primitive_cell:
  lattice:
  - [    -0.000000165915912,    -2.769483740577696,     0.000000000000000 ] # a
  - [     4.492690287923041,     0.000000000000000,     0.000000000000000 ] # b
  - [     0.000000273843105,     0.005604143938250,     5.094537669884692 ] # c
  points:
  - symbol: Li # 1
    coordinates: [  0.001746597626148,  0.750000006700830,  0.846039385101415 ]
    mass: 6.940000
  - symbol: Li # 2
    coordinates: [  0.998253429737248,  0.250000009507252,  0.153960624028233 ]
    mass: 6.940000
  - symbol: Ga # 3
    coordinates: [  0.499411527533466,  0.749999983262208,  0.351821831952428 ]
    mass: 69.723000
  - symbol: Ga # 4
    coordinates: [  0.500588444089000,  0.249999999955706,  0.648178159102494 ]
    mass: 69.723000
  reciprocal_lattice: # without 2pi
  - [     0.000000000000000,    -0.361078126348345,     0.000397196747601 ] # a*
  - [     0.222583782970336,    -0.000000013334684,    -0.000000011949721 ] # b*
  - [     0.000000000000000,    -0.000000000000000,     0.196288665389853 ] # c*

unit_cell:
  lattice:
  - [     4.492690287923040,     0.000000000000000,     0.000000000000000 ] # a
  - [     0.000000165915912,     2.769483740577696,     0.000000000000000 ] # b
  - [     0.000000273843105,     0.005604143938250,     5.094537669884691 ] # c
  points:
  - symbol: Li # 1
    coordinates: [  0.750000006700830,  0.998253402373852,  0.846039385101415 ]
    mass: 6.940000
    reduced_to: 1
  - symbol: Li # 2
    coordinates: [  0.250000009507252,  0.001746570262752,  0.153960624028233 ]
    mass: 6.940000
    reduced_to: 2
  - symbol: Ga # 3
    coordinates: [  0.749999983262208,  0.500588472466534,  0.351821831952428 ]
    mass: 69.723000
    reduced_to: 3
  - symbol: Ga # 4
    coordinates: [  0.249999999955706,  0.499411555911000,  0.648178159102494 ]
    mass: 69.723000
    reduced_to: 4

supercell:
  lattice:
  - [    13.478070863769119,     0.000000000000000,     0.000000000000000 ] # a
  - [     0.000000663663650,    11.077934962310785,     0.000000000000000 ] # b
  - [     0.000000547686211,     0.011208287876500,    10.189075339769381 ] # c
  points:
  - symbol: Li # 1
    coordinates: [  0.250000002233610,  0.249563350593463,  0.423019692550708 ]
    mass: 6.940000
    reduced_to: 1
  - symbol: Li # 2
    coordinates: [  0.583333335566943,  0.249563350593463,  0.423019692550708 ]
    mass: 6.940000
    reduced_to: 1
  - symbol: Li # 3
    coordinates: [  0.916666668900276,  0.249563350593463,  0.423019692550708 ]
    mass: 6.940000
    reduced_to: 1
  - symbol: Li # 4
    coordinates: [  0.250000002233610,  0.499563350593463,  0.423019692550708 ]
    mass: 6.940000
    reduced_to: 1
  - symbol: Li # 5
    coordinates: [  0.583333335566943,  0.499563350593463,  0.423019692550708 ]
    mass: 6.940000
    reduced_to: 1
  - symbol: Li # 6
    coordinates: [  0.916666668900276,  0.499563350593463,  0.423019692550708 ]
    mass: 6.940000
    reduced_to: 1
  - symbol: Li # 7
    coordinates: [  0.250000002233610,  0.749563350593463,  0.423019692550708 ]
    mass: 6.940000
    reduced_to: 1
  - symbol: Li # 8
    coordinates: [  0.583333335566943,  0.749563350593463,  0.423019692550708 ]
    mass: 6.940000
    reduced_to: 1
  - symbol: Li # 9
    coordinates: [  0.916666668900276,  0.749563350593463,  0.423019692550708 ]
    mass: 6.940000
    reduced_to: 1
  - symbol: Li # 10
    coordinates: [  0.250000002233610,  0.999563350593463,  0.423019692550708 ]
    mass: 6.940000
    reduced_to: 1
  - symbol: Li # 11
    coordinates: [  0.583333335566943,  0.999563350593463,  0.423019692550708 ]
    mass: 6.940000
    reduced_to: 1
  - symbol: Li # 12
    coordinates: [  0.916666668900276,  0.999563350593463,  0.423019692550708 ]
    mass: 6.940000
    reduced_to: 1
  - symbol: Li # 13
    coordinates: [  0.250000002233610,  0.249563350593463,  0.923019692550707 ]
    mass: 6.940000
    reduced_to: 1
  - symbol: Li # 14
    coordinates: [  0.583333335566943,  0.249563350593463,  0.923019692550707 ]
    mass: 6.940000
    reduced_to: 1
  - symbol: Li # 15
    coordinates: [  0.916666668900276,  0.249563350593463,  0.923019692550707 ]
    mass: 6.940000
    reduced_to: 1
  - symbol: Li # 16
    coordinates: [  0.250000002233610,  0.499563350593463,  0.923019692550707 ]
    mass: 6.940000
    reduced_to: 1
  - symbol: Li # 17
    coordinates: [  0.583333335566943,  0.499563350593463,  0.923019692550707 ]
    mass: 6.940000
    reduced_to: 1
  - symbol: Li # 18
    coordinates: [  0.916666668900276,  0.499563350593463,  0.923019692550707 ]
    mass: 6.940000
    reduced_to: 1
  - symbol: Li # 19
    coordinates: [  0.250000002233610,  0.749563350593463,  0.923019692550707 ]
    mass: 6.940000
    reduced_to: 1
  - symbol: Li # 20
    coordinates: [  0.583333335566943,  0.749563350593463,  0.923019692550707 ]
    mass: 6.940000
    reduced_to: 1
  - symbol: Li # 21
    coordinates: [  0.916666668900276,  0.749563350593463,  0.923019692550707 ]
    mass: 6.940000
    reduced_to: 1
  - symbol: Li # 22
    coordinates: [  0.250000002233610,  0.999563350593463,  0.923019692550707 ]
    mass: 6.940000
    reduced_to: 1
  - symbol: Li # 23
    coordinates: [  0.583333335566943,  0.999563350593463,  0.923019692550707 ]
    mass: 6.940000
    reduced_to: 1
  - symbol: Li # 24
    coordinates: [  0.916666668900276,  0.999563350593463,  0.923019692550707 ]
    mass: 6.940000
    reduced_to: 1
  - symbol: Li # 25
    coordinates: [  0.083333336502417,  0.000436642565688,  0.076980312014116 ]
    mass: 6.940000
    reduced_to: 25
  - symbol: Li # 26
    coordinates: [  0.416666669835751,  0.000436642565688,  0.076980312014116 ]
    mass: 6.940000
    reduced_to: 25
  - symbol: Li # 27
    coordinates: [  0.750000003169084,  0.000436642565688,  0.076980312014116 ]
    mass: 6.940000
    reduced_to: 25
  - symbol: Li # 28
    coordinates: [  0.083333336502417,  0.250436642565688,  0.076980312014116 ]
    mass: 6.940000
    reduced_to: 25
  - symbol: Li # 29
    coordinates: [  0.416666669835751,  0.250436642565688,  0.076980312014116 ]
    mass: 6.940000
    reduced_to: 25
  - symbol: Li # 30
    coordinates: [  0.750000003169084,  0.250436642565688,  0.076980312014116 ]
    mass: 6.940000
    reduced_to: 25
  - symbol: Li # 31
    coordinates: [  0.083333336502417,  0.500436642565688,  0.076980312014116 ]
    mass: 6.940000
    reduced_to: 25
  - symbol: Li # 32
    coordinates: [  0.416666669835751,  0.500436642565688,  0.076980312014116 ]
    mass: 6.940000
    reduced_to: 25
  - symbol: Li # 33
    coordinates: [  0.750000003169084,  0.500436642565688,  0.076980312014116 ]
    mass: 6.940000
    reduced_to: 25
  - symbol: Li # 34
    coordinates: [  0.083333336502417,  0.750436642565688,  0.076980312014116 ]
    mass: 6.940000
    reduced_to: 25
  - symbol: Li # 35
    coordinates: [  0.416666669835751,  0.750436642565688,  0.076980312014116 ]
    mass: 6.940000
    reduced_to: 25
  - symbol: Li # 36
    coordinates: [  0.750000003169084,  0.750436642565688,  0.076980312014116 ]
    mass: 6.940000
    reduced_to: 25
  - symbol: Li # 37
    coordinates: [  0.083333336502417,  0.000436642565688,  0.576980312014116 ]
    mass: 6.940000
    reduced_to: 25
  - symbol: Li # 38
    coordinates: [  0.416666669835751,  0.000436642565688,  0.576980312014116 ]
    mass: 6.940000
    reduced_to: 25
  - symbol: Li # 39
    coordinates: [  0.750000003169084,  0.000436642565688,  0.576980312014116 ]
    mass: 6.940000
    reduced_to: 25
  - symbol: Li # 40
    coordinates: [  0.083333336502417,  0.250436642565688,  0.576980312014116 ]
    mass: 6.940000
    reduced_to: 25
  - symbol: Li # 41
    coordinates: [  0.416666669835751,  0.250436642565688,  0.576980312014116 ]
    mass: 6.940000
    reduced_to: 25
  - symbol: Li # 42
    coordinates: [  0.750000003169084,  0.250436642565688,  0.576980312014116 ]
    mass: 6.940000
    reduced_to: 25
  - symbol: Li # 43
    coordinates: [  0.083333336502417,  0.500436642565688,  0.576980312014116 ]
    mass: 6.940000
    reduced_to: 25
  - symbol: Li # 44
    coordinates: [  0.416666669835751,  0.500436642565688,  0.576980312014116 ]
    mass: 6.940000
    reduced_to: 25
  - symbol: Li # 45
    coordinates: [  0.750000003169084,  0.500436642565688,  0.576980312014116 ]
    mass: 6.940000
    reduced_to: 25
  - symbol: Li # 46
    coordinates: [  0.083333336502417,  0.750436642565688,  0.576980312014116 ]
    mass: 6.940000
    reduced_to: 25
  - symbol: Li # 47
    coordinates: [  0.416666669835751,  0.750436642565688,  0.576980312014116 ]
    mass: 6.940000
    reduced_to: 25
  - symbol: Li # 48
    coordinates: [  0.750000003169084,  0.750436642565688,  0.576980312014116 ]
    mass: 6.940000
    reduced_to: 25
  - symbol: Ga # 49
    coordinates: [  0.249999994420736,  0.125147118116634,  0.175910915976214 ]
    mass: 69.723000
    reduced_to: 49
  - symbol: Ga # 50
    coordinates: [  0.583333327754069,  0.125147118116634,  0.175910915976214 ]
    mass: 69.723000
    reduced_to: 49
  - symbol: Ga # 51
    coordinates: [  0.916666661087403,  0.125147118116634,  0.175910915976214 ]
    mass: 69.723000
    reduced_to: 49
  - symbol: Ga # 52
    coordinates: [  0.249999994420736,  0.375147118116634,  0.175910915976214 ]
    mass: 69.723000
    reduced_to: 49
  - symbol: Ga # 53
    coordinates: [  0.583333327754069,  0.375147118116634,  0.175910915976214 ]
    mass: 69.723000
    reduced_to: 49
  - symbol: Ga # 54
    coordinates: [  0.916666661087403,  0.375147118116634,  0.175910915976214 ]
    mass: 69.723000
    reduced_to: 49
  - symbol: Ga # 55
    coordinates: [  0.249999994420736,  0.625147118116634,  0.175910915976214 ]
    mass: 69.723000
    reduced_to: 49
  - symbol: Ga # 56
    coordinates: [  0.583333327754069,  0.625147118116634,  0.175910915976214 ]
    mass: 69.723000
    reduced_to: 49
  - symbol: Ga # 57
    coordinates: [  0.916666661087403,  0.625147118116634,  0.175910915976214 ]
    mass: 69.723000
    reduced_to: 49
  - symbol: Ga # 58
    coordinates: [  0.249999994420736,  0.875147118116634,  0.175910915976214 ]
    mass: 69.723000
    reduced_to: 49
  - symbol: Ga # 59
    coordinates: [  0.583333327754069,  0.875147118116634,  0.175910915976214 ]
    mass: 69.723000
    reduced_to: 49
  - symbol: Ga # 60
    coordinates: [  0.916666661087403,  0.875147118116634,  0.175910915976214 ]
    mass: 69.723000
    reduced_to: 49
  - symbol: Ga # 61
    coordinates: [  0.249999994420736,  0.125147118116634,  0.675910915976214 ]
    mass: 69.723000
    reduced_to: 49
  - symbol: Ga # 62
    coordinates: [  0.583333327754069,  0.125147118116634,  0.675910915976214 ]
    mass: 69.723000
    reduced_to: 49
  - symbol: Ga # 63
    coordinates: [  0.916666661087403,  0.125147118116634,  0.675910915976214 ]
    mass: 69.723000
    reduced_to: 49
  - symbol: Ga # 64
    coordinates: [  0.249999994420736,  0.375147118116634,  0.675910915976214 ]
    mass: 69.723000
    reduced_to: 49
  - symbol: Ga # 65
    coordinates: [  0.583333327754069,  0.375147118116634,  0.675910915976214 ]
    mass: 69.723000
    reduced_to: 49
  - symbol: Ga # 66
    coordinates: [  0.916666661087403,  0.375147118116634,  0.675910915976214 ]
    mass: 69.723000
    reduced_to: 49
  - symbol: Ga # 67
    coordinates: [  0.249999994420736,  0.625147118116634,  0.675910915976214 ]
    mass: 69.723000
    reduced_to: 49
  - symbol: Ga # 68
    coordinates: [  0.583333327754069,  0.625147118116634,  0.675910915976214 ]
    mass: 69.723000
    reduced_to: 49
  - symbol: Ga # 69
    coordinates: [  0.916666661087403,  0.625147118116634,  0.675910915976214 ]
    mass: 69.723000
    reduced_to: 49
  - symbol: Ga # 70
    coordinates: [  0.249999994420736,  0.875147118116634,  0.675910915976214 ]
    mass: 69.723000
    reduced_to: 49
  - symbol: Ga # 71
    coordinates: [  0.583333327754069,  0.875147118116634,  0.675910915976214 ]
    mass: 69.723000
    reduced_to: 49
  - symbol: Ga # 72
    coordinates: [  0.916666661087403,  0.875147118116634,  0.675910915976214 ]
    mass: 69.723000
    reduced_to: 49
  - symbol: Ga # 73
    coordinates: [  0.083333333318569,  0.124852888977750,  0.324089079551247 ]
    mass: 69.723000
    reduced_to: 73
  - symbol: Ga # 74
    coordinates: [  0.416666666651902,  0.124852888977750,  0.324089079551247 ]
    mass: 69.723000
    reduced_to: 73
  - symbol: Ga # 75
    coordinates: [  0.749999999985235,  0.124852888977750,  0.324089079551247 ]
    mass: 69.723000
    reduced_to: 73
  - symbol: Ga # 76
    coordinates: [  0.083333333318569,  0.374852888977750,  0.324089079551247 ]
    mass: 69.723000
    reduced_to: 73
  - symbol: Ga # 77
    coordinates: [  0.416666666651902,  0.374852888977750,  0.324089079551247 ]
    mass: 69.723000
    reduced_to: 73
  - symbol: Ga # 78
    coordinates: [  0.749999999985235,  0.374852888977750,  0.324089079551247 ]
    mass: 69.723000
    reduced_to: 73
  - symbol: Ga # 79
    coordinates: [  0.083333333318569,  0.624852888977750,  0.324089079551247 ]
    mass: 69.723000
    reduced_to: 73
  - symbol: Ga # 80
    coordinates: [  0.416666666651902,  0.624852888977750,  0.324089079551247 ]
    mass: 69.723000
    reduced_to: 73
  - symbol: Ga # 81
    coordinates: [  0.749999999985235,  0.624852888977750,  0.324089079551247 ]
    mass: 69.723000
    reduced_to: 73
  - symbol: Ga # 82
    coordinates: [  0.083333333318569,  0.874852888977750,  0.324089079551247 ]
    mass: 69.723000
    reduced_to: 73
  - symbol: Ga # 83
    coordinates: [  0.416666666651902,  0.874852888977750,  0.324089079551247 ]
    mass: 69.723000
    reduced_to: 73
  - symbol: Ga # 84
    coordinates: [  0.749999999985235,  0.874852888977750,  0.324089079551247 ]
    mass: 69.723000
    reduced_to: 73
  - symbol: Ga # 85
    coordinates: [  0.083333333318569,  0.124852888977750,  0.824089079551247 ]
    mass: 69.723000
    reduced_to: 73
  - symbol: Ga # 86
    coordinates: [  0.416666666651902,  0.124852888977750,  0.824089079551247 ]
    mass: 69.723000
    reduced_to: 73
  - symbol: Ga # 87
    coordinates: [  0.749999999985235,  0.124852888977750,  0.824089079551247 ]
    mass: 69.723000
    reduced_to: 73
  - symbol: Ga # 88
    coordinates: [  0.083333333318569,  0.374852888977750,  0.824089079551247 ]
    mass: 69.723000
    reduced_to: 73
  - symbol: Ga # 89
    coordinates: [  0.416666666651902,  0.374852888977750,  0.824089079551247 ]
    mass: 69.723000
    reduced_to: 73
  - symbol: Ga # 90
    coordinates: [  0.749999999985235,  0.374852888977750,  0.824089079551247 ]
    mass: 69.723000
    reduced_to: 73
  - symbol: Ga # 91
    coordinates: [  0.083333333318569,  0.624852888977750,  0.824089079551247 ]
    mass: 69.723000
    reduced_to: 73
  - symbol: Ga # 92
    coordinates: [  0.416666666651902,  0.624852888977750,  0.824089079551247 ]
    mass: 69.723000
    reduced_to: 73
  - symbol: Ga # 93
    coordinates: [  0.749999999985235,  0.624852888977750,  0.824089079551247 ]
    mass: 69.723000
    reduced_to: 73
  - symbol: Ga # 94
    coordinates: [  0.083333333318569,  0.874852888977750,  0.824089079551247 ]
    mass: 69.723000
    reduced_to: 73
  - symbol: Ga # 95
    coordinates: [  0.416666666651902,  0.874852888977750,  0.824089079551247 ]
    mass: 69.723000
    reduced_to: 73
  - symbol: Ga # 96
    coordinates: [  0.749999999985235,  0.874852888977750,  0.824089079551247 ]
    mass: 69.723000
    reduced_to: 73

displacements:
- atom:    1
  displacement:
    [   0.0077253893144448,  0.0063496740026762,  0.0000000000000000 ]
  forces:
  - [  -0.0201324038207531, -0.0106010856106877, -0.0073826536536217 ]
  - [   0.0002615923876874,  0.0059489384293556, -0.0073153153061867 ]
  - [   0.0002495968365110,  0.0059543186798692, -0.0075916647911072 ]
  - [   0.0000817960826680,  0.0100661627948284, -0.0075360909104347 ]
  - [  -0.0002473570639268,  0.0058627706021070, -0.0077440664172173 ]
  - [  -0.0001306800404564,  0.0060066469013691, -0.0073426067829132 ]
  - [  -0.0000874426914379,  0.0052686035633087, -0.0074551403522491 ]
  - [   0.0000063905026764,  0.0059457365423441, -0.0074624493718147 ]
  - [   0.0000060676829889,  0.0059482664801180, -0.0074472799897194 ]
  - [   0.0000906503410079,  0.0100056603550911, -0.0073781311511993 ]
  - [  -0.0001297060516663,  0.0060082403942943, -0.0075678676366806 ]
  - [  -0.0002509354380891,  0.0058615226298571, -0.0071698427200317 ]
  - [  -0.0000382019206882,  0.0060190074145794, -0.0074512213468552 ]
  - [   0.0000172664294951,  0.0059165917336941, -0.0074625834822655 ]
  - [   0.0000169009435922,  0.0059174969792366, -0.0074452459812164 ]
  - [   0.0001125046401285,  0.0057890778407454, -0.0074380263686180 ]
  - [   0.0000110894907266,  0.0059769377112389, -0.0074607208371162 ]
  - [   0.0000012109521776,  0.0059653101488948, -0.0074503347277641 ]
  - [   0.0000100200995803,  0.0059770415537059, -0.0074547529220581 ]
  - [  -0.0000049523077905,  0.0059326468035579, -0.0074435919523239 ]
  - [  -0.0000037485733628,  0.0059334244579077, -0.0074658989906311 ]
  - [   0.0001109479926527,  0.0057852840982378, -0.0074688121676445 ]
  - [  -0.0000001722946763,  0.0059645706787705, -0.0074599087238312 ]
  - [   0.0000110003165901,  0.0059754266403615, -0.0074488595128059 ]
  - [   0.0001644026342547, -0.0058189593255520,  0.0075165107846260 ]
  - [   0.0000840267530293, -0.0059177260845900,  0.0075771361589432 ]
  - [   0.0000530962315679, -0.0059063057415187,  0.0074743181467056 ]
  - [   0.0000934226409299, -0.0059980871155858,  0.0078225806355476 ]
  - [   0.0000922092731344, -0.0059974770992994,  0.0070838555693626 ]
  - [   0.0001588926388649, -0.0060232058167458,  0.0074541270732880 ]
  - [   0.0000811053760117, -0.0059189614839852,  0.0073359683156013 ]
  - [   0.0001657971442910, -0.0058162966743112,  0.0073911845684052 ]
  - [   0.0000509878409503, -0.0059059550985694,  0.0074343681335449 ]
  - [   0.0000087375765361, -0.0059577617794275,  0.0074610486626625 ]
  - [   0.0000104602122519, -0.0059574320912361,  0.0074485018849373 ]
  - [  -0.0000207907378353, -0.0059544448740780,  0.0074550062417984 ]
  - [   0.0001128151925514, -0.0057424679398537,  0.0072929412126541 ]
  - [   0.0000758338283049, -0.0057833613827825,  0.0074557885527611 ]
  - [   0.0000122555347843, -0.0059467745013535,  0.0074602067470551 ]
  - [   0.0036963145248592, -0.0063552577048540,  0.0049264058470726 ]
  - [   0.0037728562019765, -0.0063299811445177,  0.0100339651107788 ]
  - [   0.0000897735735634, -0.0059429490938783,  0.0074542537331581 ]
  - [   0.0000756849767640, -0.0057925451546907,  0.0074531212449074 ]
  - [   0.0000979988981271, -0.0057601206935942,  0.0076019167900085 ]
  - [   0.0000118451107483, -0.0059466427192092,  0.0074488893151283 ]
  - [   0.0000019833892111, -0.0059386640787125,  0.0074594020843506 ]
  - [   0.0000044397088459, -0.0059371595270932,  0.0074509382247925 ]
  - [  -0.0000097420243037, -0.0059543661773205,  0.0074554607272148 ]
  - [  -0.0006426987238228, -0.0022837952710688, -0.0324429497122765 ]
  - [  -0.0001823933562264, -0.0032722658943385, -0.0336496680974960 ]
  - [  -0.0006406400352716, -0.0030611972324550, -0.0342679657042027 ]
  - [  -0.0006448036292568, -0.0022920477204025, -0.0351914726197720 ]
  - [  -0.0006417019758373, -0.0030583967454731, -0.0333779081702232 ]
  - [  -0.0001831097761169, -0.0032682619057596, -0.0340036824345589 ]
  - [  -0.0000139402691275, -0.0029230895452201, -0.0341224931180477 ]
  - [   0.0000066547654569, -0.0031141564249992, -0.0338213630020618 ]
  - [   0.0000016159610823, -0.0031561567448080, -0.0338298603892326 ]
  - [  -0.0000130042899400, -0.0029159993864596, -0.0335262157022953 ]
  - [  -0.0000005979090929, -0.0031552738510072, -0.0338215529918671 ]
  - [   0.0000101684127003, -0.0031126171816140, -0.0338276773691177 ]
  - [   0.0004168382729404, -0.0025843819603324, -0.0345182232558727 ]
  - [  -0.0001223687431775, -0.0030920931603760, -0.0338239297270775 ]
  - [  -0.0000221001100726, -0.0031488444656134, -0.0338835716247559 ]
  - [   0.0004136067582294, -0.0025962132494897, -0.0331952683627605 ]
  - [  -0.0000235600164160, -0.0031486200168729, -0.0337676890194416 ]
  - [  -0.0001215131487697, -0.0030895650852472, -0.0338250473141670 ]
  - [  -0.0000045212218538, -0.0028972211293876, -0.0334629341959953 ]
  - [  -0.0000069080851972, -0.0031988928094506, -0.0338202081620693 ]
  - [  -0.0000070498790592, -0.0031515760347247, -0.0338223874568939 ]
  - [  -0.0000049239024520, -0.0028751036152244, -0.0341999530792236 ]
  - [  -0.0000048270449042, -0.0031510640401393, -0.0338259749114513 ]
  - [  -0.0000076596625149, -0.0031978283077478, -0.0338280498981476 ]
  - [   0.0042289164848626,  0.0062324982136488,  0.0348719954490662 ]
  - [   0.0018403483554721,  0.0016782573657110,  0.0330804586410522 ]
  - [   0.0000121862776723,  0.0031671700999141,  0.0337978750467300 ]
  - [   0.0018176641315222,  0.0017035417258739,  0.0345462784171104 ]
  - [   0.0043471050448716,  0.0063088708557189,  0.0327417440712452 ]
  - [   0.0000098634045571,  0.0031671570613980,  0.0338536575436592 ]
  - [  -0.0001289293868467,  0.0034429498482496,  0.0337275564670563 ]
  - [   0.0005725076189265,  0.0036531970836222,  0.0335189551115036 ]
  - [  -0.0000103757483885,  0.0031653591431677,  0.0338191725313663 ]
  - [   0.0005678912275471,  0.0036512427031994,  0.0341283008456230 ]
  - [  -0.0001325467601418,  0.0034496616572142,  0.0339249856770039 ]
  - [  -0.0000081341713667,  0.0031652064062655,  0.0338316336274147 ]
  - [   0.0001695602259133,  0.0032929300796241,  0.0334447547793388 ]
  - [   0.0001066920813173,  0.0030938619747758,  0.0339843705296516 ]
  - [  -0.0000325981527567,  0.0031686590518802,  0.0338226556777954 ]
  - [   0.0001053190353559,  0.0030940324068069,  0.0336690321564674 ]
  - [   0.0001693499361863,  0.0032936534844339,  0.0342044979333878 ]
  - [  -0.0000323904678226,  0.0031695920042694,  0.0338296592235565 ]
  - [  -0.0000173479875230,  0.0032070605084300,  0.0338160507380962 ]
  - [   0.0000137349707074,  0.0031395959667861,  0.0337931737303734 ]
  - [  -0.0000010043149814,  0.0031634820625186,  0.0338203832507133 ]
  - [   0.0000132283121275,  0.0031403303146362,  0.0338585563004017 ]
  - [  -0.0000170087441802,  0.0032066330313683,  0.0338359773159027 ]
  - [  -0.0000005234032869,  0.0031640899833292,  0.0338295437395573 ]
- atom:    1
  displacement:
    [  -0.0077253893144448, -0.0063496740026762,  0.0000000000000000 ]
  forces:
  - [   0.0201275926083326,  0.0224859677255154, -0.0074234679341316 ]
  - [  -0.0002535003004596,  0.0059459712356329, -0.0075920373201370 ]
  - [  -0.0002562991576269,  0.0059405458159745, -0.0073168724775314 ]
  - [  -0.0000905226916075,  0.0018906961195171, -0.0073743760585785 ]
  - [   0.0002528079203330,  0.0060346522368491, -0.0071696862578392 ]
  - [   0.0001318966969848,  0.0058867065235972, -0.0075683295726776 ]
  - [   0.0000895254779607,  0.0066269640810788, -0.0074561089277267 ]
  - [  -0.0000050779781304,  0.0059483703225851, -0.0074474886059761 ]
  - [  -0.0000044075422920,  0.0059494804590940, -0.0074629262089729 ]
  - [  -0.0000818795524538,  0.0018303024116904, -0.0075331702828407 ]
  - [   0.0001321272575296,  0.0058894287794828, -0.0073418542742729 ]
  - [   0.0002502868883312,  0.0060319094918668, -0.0077452063560486 ]
  - [   0.0000376641401090,  0.0058769392780960, -0.0074540153145790 ]
  - [  -0.0000188735430129,  0.0059791458770633, -0.0074473321437836 ]
  - [  -0.0000179805210792,  0.0059783430770040, -0.0074630454182625 ]
  - [  -0.0001100825029425,  0.0061101270839572, -0.0074692890048027 ]
  - [  -0.0000098634045571,  0.0059188036248088, -0.0074491798877716 ]
  - [   0.0000001247390173,  0.0059300959110260, -0.0074596330523491 ]
  - [  -0.0000104820355773,  0.0059191654436290, -0.0074564144015312 ]
  - [   0.0000052247196436,  0.0059643574059010, -0.0074645057320595 ]
  - [   0.0000067730434239,  0.0059646377339959, -0.0074462145566940 ]
  - [  -0.0001117959618568,  0.0061063482426107, -0.0074407458305359 ]
  - [  -0.0000017834827304,  0.0059299943968654, -0.0074494853615761 ]
  - [  -0.0000093714334071,  0.0059166033752263, -0.0074620246887207 ]
  - [  -0.0001735841942718, -0.0060825794935226,  0.0073860213160515 ]
  - [  -0.0000847618284752, -0.0059759565629065,  0.0073346421122551 ]
  - [  -0.0000534632526978, -0.0059892791323364,  0.0074343308806419 ]
  - [  -0.0000918595833355, -0.0058946581557393,  0.0070876106619835 ]
  - [  -0.0000990972475847, -0.0059013282880187,  0.0078256875276566 ]
  - [  -0.0001585063437233, -0.0058724512346089,  0.0074542686343193 ]
  - [  -0.0000836516992422, -0.0059777414426208,  0.0075747445225716 ]
  - [  -0.0001630154292798, -0.0060741738416255,  0.0075124278664589 ]
  - [  -0.0000541431145393, -0.0059882430359721,  0.0074741840362549 ]
  - [  -0.0000098793134384, -0.0059344023466110,  0.0074473693966866 ]
  - [  -0.0000093824855867, -0.0059356559067965,  0.0074622109532356 ]
  - [   0.0000177113615791, -0.0059397378936410,  0.0074552968144417 ]
  - [  -0.0001308791979682, -0.0061763096600771,  0.0076320171356201 ]
  - [  -0.0000772634957684, -0.0061071421951056,  0.0074514895677567 ]
  - [  -0.0000142173103086, -0.0059483409859240,  0.0074497461318970 ]
  - [  -0.0037333380896598, -0.0055156741291285,  0.0100130811333656 ]
  - [  -0.0037391278892756, -0.0055894488468766,  0.0049069896340370 ]
  - [  -0.0000930415553739, -0.0059521645307541,  0.0074543282389641 ]
  - [  -0.0000738972885301, -0.0061061261221766,  0.0074523985385895 ]
  - [  -0.0000770264159655, -0.0061051296070218,  0.0073272362351418 ]
  - [  -0.0000147697601278, -0.0059480923227966,  0.0074601992964745 ]
  - [  -0.0000048373403843, -0.0059561561793089,  0.0074501782655716 ]
  - [  -0.0000063502484409, -0.0059598032385111,  0.0074584633111954 ]
  - [   0.0000078704497355, -0.0059416191652417,  0.0074556097388268 ]
  - [   0.0006527424557135, -0.0040388274937868, -0.0352071486413479 ]
  - [   0.0001878946786746, -0.0030642859637737, -0.0340038388967514 ]
  - [   0.0006457101553679, -0.0032763071358204, -0.0333762466907501 ]
  - [   0.0006357975071296, -0.0040493221022189, -0.0324579104781151 ]
  - [   0.0006390477064997, -0.0032686062622815, -0.0342643149197102 ]
  - [   0.0001841401681304, -0.0030626864172518, -0.0336504541337490 ]
  - [   0.0000135325826705, -0.0034062659833580, -0.0335321314632893 ]
  - [  -0.0000039968872443, -0.0032190196216106, -0.0338279046118259 ]
  - [   0.0000014617107809, -0.0031782626174390, -0.0338205210864544 ]
  - [   0.0000159366754815, -0.0034214965999126, -0.0341274291276932 ]
  - [  -0.0000010655494407, -0.0031764691229910, -0.0338301658630371 ]
  - [  -0.0000029539223760, -0.0032209670171142, -0.0338214561343193 ]
  - [  -0.0004153737681918, -0.0037388550117612, -0.0331579037010670 ]
  - [   0.0001247003092431, -0.0032434840686619, -0.0338258370757103 ]
  - [   0.0000260474625975, -0.0031915840227157, -0.0337668284773827 ]
  - [  -0.0004139953525737, -0.0037509058602154, -0.0344811156392097 ]
  - [   0.0000255280174315, -0.0031810295768082, -0.0338825732469559 ]
  - [   0.0001273443922400, -0.0032442214433104, -0.0338247492909431 ]
  - [   0.0000049987575039, -0.0034277571830899, -0.0341825708746910 ]
  - [   0.0000038587022573, -0.0031358413398266, -0.0338315926492214 ]
  - [   0.0000052807154134, -0.0031800251454115, -0.0338244289159775 ]
  - [   0.0000045411288738, -0.0034603201784194, -0.0334454551339149 ]
  - [   0.0000061900354922, -0.0031786891631782, -0.0338235720992088 ]
  - [   0.0000111209228635, -0.0031304822769016, -0.0338207557797432 ]
  - [  -0.0044047227129340,  0.0000007648486644,  0.0327008813619614 ]
  - [  -0.0018481648294255,  0.0046591972932220,  0.0345711708068848 ]
  - [  -0.0000115490602184,  0.0031654778867960,  0.0338520519435406 ]
  - [  -0.0018124599009752,  0.0046217460185289,  0.0331042632460594 ]
  - [  -0.0041733360849321,  0.0001210058107972,  0.0348308682441711 ]
  - [  -0.0000131293199956,  0.0031660285312682,  0.0337982848286629 ]
  - [   0.0001304768375121,  0.0028872224502265,  0.0339249148964882 ]
  - [  -0.0005656117573380,  0.0026837042532861,  0.0341308154165745 ]
  - [   0.0000060391030274,  0.0031675889622420,  0.0338300727307796 ]
  - [  -0.0005766997928731,  0.0026801135390997,  0.0335209816694260 ]
  - [   0.0001270300708711,  0.0028852163814008,  0.0337271764874458 ]
  - [   0.0000079921446741,  0.0031669628806412,  0.0338196977972984 ]
  - [  -0.0001754772674758,  0.0030361237004399,  0.0342133492231369 ]
  - [  -0.0001046402030624,  0.0032400724012405,  0.0336649864912033 ]
  - [   0.0000292922468361,  0.0031637549400330,  0.0338288843631744 ]
  - [  -0.0001074432366295,  0.0032375436276197,  0.0339780710637569 ]
  - [  -0.0001621401315788,  0.0030421619303524,  0.0334530994296074 ]
  - [   0.0000307722948492,  0.0031651279423386,  0.0338229686021805 ]
  - [   0.0000163323038578,  0.0031263069249690,  0.0338358208537102 ]
  - [  -0.0000138140167110,  0.0031915060244501,  0.0338567122817039 ]
  - [   0.0000046850764193,  0.0031673770863563,  0.0338301286101341 ]
  - [  -0.0000141954124047,  0.0031931791454554,  0.0337896831333637 ]
  - [   0.0000165742821991,  0.0031252002809197,  0.0338147990405560 ]
  - [   0.0000041928142309,  0.0031689237803221,  0.0338201150298119 ]
- atom:    1
  displacement:
    [   0.0000000005375227,  0.0000110002926874,  0.0099999939496762 ]
  forces:
  - [   0.0000008948263712,  0.0059502744115889, -0.0308508723974228 ]
  - [  -0.0001801058533601,  0.0059481807984412, -0.0073627308011055 ]