# Thermal properties / unit cell (natom)

unit:
  temperature:   K
  free_energy:   kJ/mol
  entropy:       J/K/mol
  heat_capacity: J/K/mol

natom: 4    
cutoff_frequency: 0.00000
num_modes: 190080
num_integrated_modes: 190077

zero_point_energy:      15.2467573

thermal_properties:
- temperature:         0.0000000
  free_energy:        15.2467573
  entropy:             0.0000000
  heat_capacity:       0.0000000
  energy:             15.2467573

- temperature:        10.0000000
  free_energy:        15.2465885
  entropy:             0.0728999
  heat_capacity:       0.2421069
  energy:             15.2473175

- temperature:        20.0000000
  free_energy:        15.2431231
  entropy:             0.8238521
  heat_capacity:       2.8939162
  energy:             15.2596002

- temperature:        30.0000000
  free_energy:        15.2248618
  entropy:             3.1002104
  heat_capacity:       9.1866295
  energy:             15.3178681

- temperature:        40.0000000
  free_energy:        15.1764332
  entropy:             6.7719010
  heat_capacity:      16.7278825
  energy:             15.4473093

- temperature:        50.0000000
  free_energy:        15.0866148
  entropy:            11.2929266
  heat_capacity:      23.9627614
  energy:             15.6512611

- temperature:        60.0000000
  free_energy:        14.9491226
  entropy:            16.2558020
  heat_capacity:      30.5797805
  energy:             15.9244707

- temperature:        70.0000000
  free_energy:        14.7607978
  entropy:            21.4323136
  heat_capacity:      36.6566732
  energy:             16.2610597

- temperature:        80.0000000
  free_energy:        14.5201816
  entropy:            26.6988159
  heat_capacity:      42.2763801
  energy:             16.6560868

- temperature:        90.0000000
  free_energy:        14.2267677
  entropy:            31.9822083
  heat_capacity:      47.4689785
  energy:             17.1051664

- temperature:       100.0000000
  free_energy:        13.8806439
  entropy:            37.2340990
  heat_capacity:      52.2377877
  energy:             17.6040538

- temperature:       110.0000000
  free_energy:        13.4823065
  entropy:            42.4200567
  heat_capacity:      56.5840836
  energy:             18.1485128

- temperature:       120.0000000
  free_energy:        13.0325466
  entropy:            47.5151000
  heat_capacity:      60.5176588
  energy:             18.7343586

- temperature:       130.0000000
  free_energy:        12.5323675
  entropy:            52.5014410
  heat_capacity:      64.0581481
  energy:             19.3575548

- temperature:       140.0000000
  free_energy:        11.9829209
  entropy:            57.3669993
  heat_capacity:      67.2325434
  energy:             20.0143008

- temperature:       150.0000000
  free_energy:        11.3854557
  entropy:            62.1042215
  heat_capacity:      70.0719464
  energy:             20.7010889

- temperature:       160.0000000
  free_energy:        10.7412779
  entropy:            66.7090836
  heat_capacity:      72.6088101
  energy:             21.4147313

- temperature:       170.0000000
  free_energy:        10.0517199
  entropy:            71.1802539
  heat_capacity:      74.8749885
  energy:             22.1523630

- temperature:       180.0000000
  free_energy:         9.3181164
  entropy:            75.5184046
  heat_capacity:      76.9005302
  energy:             22.9114293

- temperature:       190.0000000
  free_energy:         8.5417882
  entropy:            79.7256611
  heat_capacity:      78.7130353
  energy:             23.6896638

- temperature:       200.0000000
  free_energy:         7.7240291
  entropy:            83.8051701
  heat_capacity:      80.3374004
  energy:             24.4850631

- temperature:       210.0000000
  free_energy:         6.8660979
  entropy:            87.7607668
  heat_capacity:      81.7958066
  energy:             25.2958589

- temperature:       220.0000000
  free_energy:         5.9692126
  entropy:            91.5967230
  heat_capacity:      83.1078514
  energy:             26.1204917

- temperature:       230.0000000
  free_energy:         5.0345472
  entropy:            95.3175588
  heat_capacity:      84.2907537
  energy:             26.9575857

- temperature:       240.0000000
  free_energy:         4.0632297
  entropy:            98.9279041
  heat_capacity:      85.3595897
  energy:             27.8059267

- temperature:       250.0000000
  free_energy:         3.0563419
  entropy:           102.4323978
  heat_capacity:      86.3275339
  energy:             28.6644414

- temperature:       260.0000000
  free_energy:         2.0149193
  entropy:           105.8356164
  heat_capacity:      87.2060884
  energy:             29.5321796

- temperature:       270.0000000
  free_energy:         0.9399523
  entropy:           109.1420241
  heat_capacity:      88.0052953
  energy:             30.4082988

- temperature:       280.0000000
  free_energy:        -0.1676129
  entropy:           112.3559401
  heat_capacity:      88.7339264
  energy:             31.2920504

- temperature:       290.0000000
  free_energy:        -1.3068721
  entropy:           115.4815166
  heat_capacity:      89.3996520
  energy:             32.1827677

- temperature:       300.0000000
  free_energy:        -2.4769620
  entropy:           118.5227273
  heat_capacity:      90.0091883
  energy:             33.0798562

- temperature:       310.0000000
  free_energy:        -3.6770580
  entropy:           121.4833612
  heat_capacity:      90.5684256
  energy:             33.9827839

- temperature:       320.0000000
  free_energy:        -4.9063727
  entropy:           124.3670220
  heat_capacity:      91.0825386
  energy:             34.8910744

- temperature:       330.0000000
  free_energy:        -6.1641533
  entropy:           127.1771299
  heat_capacity:      91.5560825
  energy:             35.8042995

- temperature:       340.0000000
  free_energy:        -7.4496809
  entropy:           129.9169269
  heat_capacity:      91.9930751
  energy:             36.7220742

- temperature:       350.0000000
  free_energy:        -8.7622677
  entropy:           132.5894824
  heat_capacity:      92.3970671
  energy:             37.6440511

- temperature:       360.0000000
  free_energy:       -10.1012561
  entropy:           135.1977006
  heat_capacity:      92.7712031
  energy:             38.5699161

- temperature:       370.0000000
  free_energy:       -11.4660165
  entropy:           137.7443282
  heat_capacity:      93.1182740
  energy:             39.4993850

- temperature:       380.0000000
  free_energy:       -12.8559460
  entropy:           140.2319624
  heat_capacity:      93.4407616
  energy:             40.4321997

- temperature:       390.0000000
  free_energy:       -14.2704673
  entropy:           142.6630588
  heat_capacity:      93.7408777
  energy:             41.3681256

- temperature:       400.0000000
  free_energy:       -15.7090265
  entropy:           145.0399394
  heat_capacity:      94.0205974
  energy:             42.3069492

- temperature:       410.0000000
  free_energy:       -17.1710927
  entropy:           147.3648005
  heat_capacity:      94.2816876
  energy:             43.2484755

- temperature:       420.0000000
  free_energy:       -18.6561561
  entropy:           149.6397197
  heat_capacity:      94.5257327
  energy:             44.1925262

- temperature:       430.0000000
  free_energy:       -20.1637272
  entropy:           151.8666634
  heat_capacity:      94.7541557
  energy:             45.1389381

- temperature:       440.0000000
  free_energy:       -21.6933356
  entropy:           154.0474935
  heat_capacity:      94.9682372
  energy:             46.0875615

- temperature:       450.0000000
  free_energy:       -23.2445292
  entropy:           156.1839736
  heat_capacity:      95.1691320
  energy:             47.0382589

- temperature:       460.0000000
  free_energy:       -24.8168729
  entropy:           158.2777751
  heat_capacity:      95.3578827
  energy:             47.9909037

- temperature:       470.0000000
  free_energy:       -26.4099477
  entropy:           160.3304830
  heat_capacity:      95.5354332
  energy:             48.9453792

- temperature:       480.0000000
  free_energy:       -28.0233506
  entropy:           162.3436009
  heat_capacity:      95.7026387
  energy:             49.9015779

- temperature:       490.0000000
  free_energy:       -29.6566926
  entropy:           164.3185565
  heat_capacity:      95.8602755
  energy:             50.8594001

- temperature:       500.0000000
  free_energy:       -31.3095990
  entropy:           166.2567057
  heat_capacity:      96.0090499
  energy:             51.8187539

- temperature:       510.0000000
  free_energy:       -32.9817083
  entropy:           168.1593373
  heat_capacity:      96.1496049
  energy:             52.7795537

- temperature:       520.0000000
  free_energy:       -34.6726714
  entropy:           170.0276769
  heat_capacity:      96.2825270
  energy:             53.7417205

- temperature:       530.0000000
  free_energy:       -36.3821514
  entropy:           171.8628906
  heat_capacity:      96.4083523
  energy:             54.7051806

- temperature:       540.0000000
  free_energy:       -38.1098225
  entropy:           173.6660891
  heat_capacity:      96.5275710
  energy:             55.6698655

- temperature:       550.0000000
  free_energy:       -39.8553700
  entropy:           175.4383301
  heat_capacity:      96.6406323
  energy:             56.6357115

- temperature:       560.0000000
  free_energy:       -41.6184893
  entropy:           177.1806221
  heat_capacity:      96.7479484
  energy:             57.6026590

- temperature:       570.0000000
  free_energy:       -43.3988858
  entropy:           178.8939271
  heat_capacity:      96.8498977
  energy:             58.5706526

- temperature:       580.0000000
  free_energy:       -45.1962743
  entropy:           180.5791631
  heat_capacity:      96.9468285
  energy:             59.5396403

- temperature:       590.0000000
  free_energy:       -47.0103785
  entropy:           182.2372067
  heat_capacity:      97.0390617
  energy:             60.5095735

- temperature:       600.0000000
  free_energy:       -48.8409306
  entropy:           183.8688957
  heat_capacity:      97.1268930
  energy:             61.4804068

- temperature:       610.0000000
  free_energy:       -50.6876712
  entropy:           185.4750309
  heat_capacity:      97.2105955
  energy:             62.4520976

- temperature:       620.0000000
  free_energy:       -52.5503486
  entropy:           187.0563781
  heat_capacity:      97.2904217
  energy:             63.4246058

- temperature:       630.0000000
  free_energy:       -54.4287186
  entropy:           188.6136706
  heat_capacity:      97.3666052
  energy:             64.3978939

- temperature:       640.0000000
  free_energy:       -56.3225442
  entropy:           190.1476104
  heat_capacity:      97.4393624
  energy:             65.3719265

- temperature:       650.0000000
  free_energy:       -58.2315952
  entropy:           191.6588702
  heat_capacity:      97.5088940
  energy:             66.3466704

- temperature:       660.0000000
  free_energy:       -60.1556481
  entropy:           193.1480945
  heat_capacity:      97.5753865
  energy:             67.3220943

- temperature:       670.0000000
  free_energy:       -62.0944857
  entropy:           194.6159019
  heat_capacity:      97.6390130
  energy:             68.2981686

- temperature:       680.0000000
  free_energy:       -64.0478968
  entropy:           196.0628857
  heat_capacity:      97.6999347
  energy:             69.2748655

- temperature:       690.0000000
  free_energy:       -66.0156759
  entropy:           197.4896155
  heat_capacity:      97.7583017
  energy:             70.2521588

- temperature:       700.0000000
  free_energy:       -67.9976234
  entropy:           198.8966384
  heat_capacity:      97.8142538
  energy:             71.2300235

- temperature:       710.0000000
  free_energy:       -69.9935447
  entropy:           200.2844802
  heat_capacity:      97.8679214
  energy:             72.2084362

- temperature:       720.0000000
  free_energy:       -72.0032507
  entropy:           201.6536465
  heat_capacity:      97.9194266
  energy:             73.1873747

- temperature:       730.0000000
  free_energy:       -74.0265570
  entropy:           203.0046232
  heat_capacity:      97.9688831
  energy:             74.1668179

- temperature:       740.0000000
  free_energy:       -76.0632841
  entropy:           204.3378784
  heat_capacity:      98.0163975
  energy:             75.1467459

- temperature:       750.0000000
  free_energy:       -78.1132570
  entropy:           205.6538624
  heat_capacity:      98.0620695
  energy:             76.1271397

- temperature:       760.0000000
  free_energy:       -80.1763052
  entropy:           206.9530088
  heat_capacity:      98.1059927
  energy:             77.1079815

- temperature:       770.0000000
  free_energy:       -82.2522625
  entropy:           208.2357358
  heat_capacity:      98.1482546
  energy:             78.0892541

- temperature:       780.0000000
  free_energy:       -84.3409666
  entropy:           209.5024460
  heat_capacity:      98.1889375
  energy:             79.0709413

- temperature:       790.0000000
  free_energy:       -86.4422593
  entropy:           210.7535280
  heat_capacity:      98.2281188
  energy:             80.0530278

- temperature:       800.0000000
  free_energy:       -88.5559863
  entropy:           211.9893565
  heat_capacity:      98.2658709
  energy:             81.0354989

- temperature:       810.0000000
  free_energy:       -90.6819968
  entropy:           213.2102932
  heat_capacity:      98.3022622
  energy:             82.0183407

- temperature:       820.0000000
  free_energy:       -92.8201437
  entropy:           214.4166872
  heat_capacity:      98.3373570
  energy:             83.0015398

- temperature:       830.0000000
  free_energy:       -94.9702832
  entropy:           215.6088758
  heat_capacity:      98.3712159
  energy:             83.9850837

- temperature:       840.0000000
  free_energy:       -97.1322749
  entropy:           216.7871847
  heat_capacity:      98.4038958
  energy:             84.9689602

- temperature:       850.0000000
  free_energy:       -99.3059817
  entropy:           217.9519289
  heat_capacity:      98.4354508
  energy:             85.9531579

- temperature:       860.0000000
  free_energy:      -101.4912693
  entropy:           219.1034128
  heat_capacity:      98.4659315
  energy:             86.9376657

- temperature:       870.0000000
  free_energy:      -103.6880067
  entropy:           220.2419308
  heat_capacity:      98.4953860
  energy:             87.9224731

- temperature:       880.0000000
  free_energy:      -105.8960657
  entropy:           221.3677679
  heat_capacity:      98.5238596
  energy:             88.9075701

- temperature:       890.0000000
  free_energy:      -108.1153207
  entropy:           222.4811999
  heat_capacity:      98.5513953
  energy:             89.8929471

- temperature:       900.0000000
  free_energy:      -110.3456492
  entropy:           223.5824936
  heat_capacity:      98.5780335
  energy:             90.8785950

- temperature:       910.0000000
  free_energy:      -112.5869310
  entropy:           224.6719076
  heat_capacity:      98.6038127
  energy:             91.8645050

- temperature:       920.0000000
  free_energy:      -114.8390486
  entropy:           225.7496925
  heat_capacity:      98.6287694
  energy:             92.8506685

- temperature:       930.0000000
  free_energy:      -117.1018869
  entropy:           226.8160910
  heat_capacity:      98.6529379
  energy:             93.8370777

- temperature:       940.0000000
  free_energy:      -119.3753332
  entropy:           227.8713383
  heat_capacity:      98.6763510
  energy:             94.8237248

- temperature:       950.0000000
  free_energy:      -121.6592772
  entropy:           228.9156627
  heat_capacity:      98.6990398
  energy:             95.8106023

- temperature:       960.0000000
  free_energy:      -123.9536108
  entropy:           229.9492855
  heat_capacity:      98.7210336
  energy:             96.7977033

- temperature:       970.0000000
  free_energy:      -126.2582280
  entropy:           230.9724214
  heat_capacity:      98.7423605
  energy:             97.7850208

- temperature:       980.0000000
  free_energy:      -128.5730250
  entropy:           231.9852789
  heat_capacity:      98.7630472
  energy:             98.7725483

- temperature:       990.0000000
  free_energy:      -130.8979000
  entropy:           232.9880603
  heat_capacity:      98.7831188
  energy:             99.7602797

- temperature:      1000.0000000
  free_energy:      -133.2327533
  entropy:           233.9809620
  heat_capacity:      98.8025994
  energy:            100.7482087
