6
Lattice="5.489324622825064 2.1283367448765436e-07 -1.2674142310488246 1.3325560736533716e-07 2.9434353945239136 -1.4257006927375053e-08 0.0985260477605773 -3.452417458298536e-08 7.514336988482393" Properties=species:S:1:pos:R:3:forces:R:3 structure_index=0 total_energy=-19.450672149658203 stress="0.005033092573285103 2.8328363441687543e-06 -0.02539590746164322 2.861788289010292e-06 0.044579632580280304 -1.93519372260198e-06 -0.025395868346095085 -1.9604403860284947e-06 0.01896839775145054" pbc="T T T"
Li       1.75404868       1.47171777       2.13095330      -0.00743321       0.00000046      -0.00851645
Li       3.83380216       1.47171783       4.11596938       0.00743049       0.00000044       0.00851654
Li       2.74466243       1.47171780      -0.63370715       0.00000034       0.00000002      -0.00000056
Sn       1.20591215      -0.00000003       4.74587597      -0.01246232      -0.00000082      -0.02707649
Sn       4.38193844       0.00000017       1.50104676       0.01246266      -0.00000033       0.02708078
Sn      -0.00000000       0.00000001       0.00000012       0.00000204       0.00000024      -0.00000386
36
Lattice="10.691972675358883 5.250714239309946e-07 1.929773945429255e-07 7.386042901754091e-07 13.07070836584308 -2.2757262597346485e-08 9.261884693632005e-08 -7.76460787113933e-09 4.536576070299119" Properties=species:S:1:pos:R:3:forces:R:3 structure_index=1 total_energy=-97.09291076660156 stress="0.0008690361282788217 5.31716341356514e-06 4.4341075522424944e-07 5.524276730284328e-06 0.011637311428785324 -5.2719748566687485e-08 3.2974730856949463e-07 -1.609085842346758e-07 0.009334303438663483" pbc="T T T"
Li       1.64763153       4.36825578       2.26828802      -0.01618497      -0.02655085      -0.00000025
Li       9.04434210       8.70245297       2.26828818       0.01618580       0.02655289       0.00000009
Li       1.64763176       8.70245258       2.26828805      -0.01618571       0.02655151       0.00000007
Li       9.04434176       4.36825619       2.26828820       0.01618444      -0.02655172      -0.00000027
Li       6.99361819      10.90361032       2.26828814      -0.01618437      -0.02655209      -0.00000006
Li       3.69835534       2.16709858       2.26828808       0.01618455       0.02655218       0.00000002
Li       6.99361771       2.16709880       2.26828818      -0.01618548       0.02655192       0.00000001
Li       3.69835575      10.90361017       2.26828808       0.01618464      -0.02655186       0.00000005
Li       1.96536431       1.97360752       0.00000005       0.01326984      -0.01263762       0.00000007
Li       8.72660902      11.09710149       0.00000014      -0.01326960       0.01263691       0.00000007
Li       1.96536493      11.09710101       0.00000002       0.01326978       0.01263717       0.00000002
Li       8.72660858       1.97360775       0.00000015      -0.01326971      -0.01263677       0.00000018
Li       7.31135103       8.50896197       0.00000011       0.01326897      -0.01263503       0.00000011
Li       3.38062241       4.56174704       0.00000009      -0.01326895       0.01263548      -0.00000001
Li       7.31135072       4.56174717       0.00000013       0.01326947       0.01263538      -0.00000001
Li       3.38062263       8.50896169       0.00000004      -0.01326950      -0.01263507       0.00000009
Li       0.00000026       2.12868904       2.26828802       0.00000027      -0.05045257      -0.00000013
Li       0.00000061      10.94201930       2.26828798      -0.00000024       0.05045309      -0.00000008
Li       5.34598677       8.66404351       2.26828812      -0.00000023      -0.05045588      -0.00000003
Li       5.34598667       4.40666542       2.26828812      -0.00000085       0.05045540      -0.00000015
Li       1.59201722       6.53535425       0.00000004      -0.02491608       0.00000071       0.00000012
Li       9.09995618       6.53535463       0.00000012       0.02491586       0.00000015       0.00000019
Li       6.93800323       0.00000032       0.00000007      -0.02491486      -0.00000004       0.00000031
Li       3.75396940       0.00000023       0.00000009       0.02491489      -0.00000007      -0.00000012
Li       0.00000007      -0.00000002      -0.00000002       0.00000013      -0.00000050       0.00000115
Li       5.34598671       6.53535446       0.00000007      -0.00000051       0.00000008       0.00000003
Li       0.00000043       6.53535417       2.26828804       0.00000056      -0.00000073       0.00000000
Li       5.34598637       0.00000021       2.26828812       0.00000029       0.00000041       0.00000001
Sn       0.00000021       4.12124028      -0.00000003       0.00000106      -0.03466201       0.00000025
Sn       0.00000057       8.94946815       0.00000004      -0.00000141       0.03465909      -0.00000028
Sn       5.34598692      10.65659471       0.00000007       0.00000239      -0.03466187       0.00000002
Sn       5.34598644       2.41411408       0.00000011       0.00000150       0.03466410       0.00000019
Sn       1.92344796       0.00000013       2.26828808       0.01755575       0.00000022      -0.00000042
Sn       8.76852489       0.00000047       2.26828826      -0.01755920      -0.00000040      -0.00000109
Sn       7.26943434       6.53535455       2.26828815       0.01755564       0.00000014      -0.00000008
Sn       3.42253902       6.53535440       2.26828808      -0.01755425      -0.00000173      -0.00000009
18
Lattice="4.619382920880761 -2.044893126400515e-07 8.62019192656198e-09 -2.309691637533319 4.000503063551525 -9.003677721092202e-08 3.1471885814307735e-08 -3.6140256236419915e-07 16.957625923916133" Properties=species:S:1:pos:R:3:forces:R:3 structure_index=2 total_energy=-50.67572784423828 stress="-0.0016244676662608981 -2.0167603906884324e-06 -9.042186093211058e-07 -2.0830577796004945e-06 -0.0016207605367526412 -1.1859871165142977e-06 -8.113654530461645e-07 -1.2341896535872365e-06 -0.018925178796052933" pbc="T T T"
Li       0.00000002      -0.00000007       2.77575197       0.00000021      -0.00000016      -0.02442552
Li       0.00000002      -0.00000028      14.18187389       0.00000007      -0.00000051       0.02442520
Li       0.00000000      -0.00000010       5.54542782       0.00000021      -0.00000063       0.00405121
Li       0.00000002      -0.00000023      11.41219812      -0.00000018      -0.00000039      -0.00405050
Li      -0.00000013       2.66700193       1.90116790      -0.00000043      -0.00000001       0.00302339
Li       2.30969143       1.33350056      15.05645795       0.00000018       0.00000078      -0.00302314
Li      -0.00000013       2.66700187       4.81415013       0.00000023      -0.00000035      -0.01230760
Li       2.30969145       1.33350064      12.14347565       0.00000011       0.00000049       0.01230694
Li      -0.00000012       2.66700182       7.56033390       0.00000017       0.00000012      -0.02618739
Li       2.30969144       1.33350069       9.39729203      -0.00000054      -0.00000029       0.02618649
Li      -0.00000009       2.66700163      16.05286065      -0.00000026      -0.00000049      -0.00930565
Li       2.30969139       1.33350086       0.90476527       0.00000018       0.00000057       0.00930593
Li       0.00000002      -0.00000018       8.47881296       0.00000020       0.00000003      -0.00000025
Sn      -0.00000013       2.66700174      10.28979708       0.00000027       0.00000067       0.03016286
Sn       2.30969145       1.33350072       6.66782871      -0.00000022       0.00000065      -0.03016166
Sn      -0.00000011       2.66700167      13.23028484      -0.00000007      -0.00000053      -0.00415520
Sn       2.30969141       1.33350081       3.72734092      -0.00000039       0.00000025       0.00415526
Sn       0.00000002       0.00000000       0.00000005       0.00000027      -0.00000022      -0.00000038
26
Lattice="18.561473312530467 1.3111536429785981e-07 -4.411717797822131 4.8693775550026486e-08 4.621699705225047 7.05854095693332e-08 -0.16247467517189654 9.122054753028056e-08 5.5014587758704625" Properties=species:S:1:pos:R:3:forces:R:3 structure_index=3 total_energy=-73.96381378173828 stress="0.004875230137258768 -1.4264473691127932e-07 -0.0010976104531437159 -3.3793813258853334e-07 0.007761390879750252 2.3832061657458325e-08 -0.0010979161597788334 0.0 0.0010234607616439462" pbc="T T T"
Li       0.82534824       2.31084993       1.56350832      -0.03031504       0.00000012       0.03013987
Li      17.57365028       2.31085004      -0.47376731       0.03031514       0.00000018      -0.03013942
Li      10.10608478       0.00000012      -0.64235068      -0.03031499      -0.00000011       0.03014042
Li       8.29291369       0.00000017       1.73209166       0.03031689      -0.00000029      -0.03014051
Li       1.37590130      -0.00000001       3.04944886      -0.00519234      -0.00000038       0.00950860
Li      17.02309714       0.00000023      -1.95970768       0.00519154      -0.00000044      -0.00950806
Li      10.65663778       2.31085003       0.84358997      -0.00519289      -0.00000068       0.00950837
Li       7.74236081       2.31084996       0.24615110       0.00519228       0.00000017      -0.00950873
Li       3.53155328       2.31084995       2.08623530      -0.01770090       0.00000028       0.02676122
Li      14.86744549       2.31084996      -0.99649430       0.01770030       0.00000103      -0.02676049
Li      12.81229001       0.00000010      -0.11962343      -0.01770223       0.00000016       0.02676110
Li       5.58670880       0.00000010       1.20936452       0.01770091      -0.00000043      -0.02676149
Li       4.17143942       0.00000008       3.58826923      -0.01607011      -0.00000001      -0.00709247
Li      14.22755932       0.00000008      -2.49852824       0.01606925      -0.00000055       0.00709234
Li      13.45217590       2.31085010       1.38241029      -0.01606779       0.00000018      -0.00709222
Li       4.94682267       2.31084991      -0.29266936       0.01606948       0.00000020       0.00709194
Li      -0.00000001      -0.00000001      -0.00000001       0.00000120      -0.00000021      -0.00000048
Li       9.28073653       2.31084985      -2.20585890      -0.00000127       0.00000030      -0.00000014
Sn       1.87844349       2.31085002       4.41173465       0.00006405       0.00000087       0.03715256
Sn      16.52055537       2.31084986      -3.32199360      -0.00006440       0.00000178      -0.03715286
Sn      11.15917987       0.00000010       2.20587564       0.00006416       0.00000142       0.03715111
Sn       7.23981866       0.00000008      -1.11613479      -0.00006395      -0.00000054      -0.03715040
Sn       2.83723180       0.00000003       0.64826466      -0.00613396      -0.00000108       0.04997870
Sn      15.56176709       0.00000021       0.44147635       0.00613446      -0.00000178      -0.04997951
Sn      12.11796858       2.31085004      -1.55759433      -0.00613335      -0.00000124       0.04997940
Sn       6.28103031       2.31084991       2.64733538       0.00613354       0.00000106      -0.04997887
18
Lattice="4.478117175572098 2.7227142504562986e-09 -6.605397318885086e-08 -2.2390585854281086 3.878162830440792 -3.991792580977769e-08 -2.4028603607799893e-07 -3.0640367031838324e-07 16.14318397519142" Properties=species:S:1:pos:R:3:forces:R:3 structure_index=4 total_energy=-43.78048324584961 stress="0.005485694855451584 5.109698690830555e-07 -2.3399040571803198e-07 -5.163838068256155e-07 0.005483435932546854 -1.543114876767504e-06 -1.5328241431689094e-07 -1.694622369541321e-06 0.012295259162783623" pbc="T T T"
Li      -0.00000004      -0.00000004       2.67687137       0.00000029      -0.00000008      -0.01140845
Li      -0.00000020      -0.00000026      13.46631259      -0.00000000      -0.00000024       0.01140917
Li      -0.00000007      -0.00000009       5.33535693      -0.00000028      -0.00000010       0.04922929
Li      -0.00000017      -0.00000021      10.80782703      -0.00000037      -0.00000042      -0.04922839
Li      -0.00000001       2.58544185       0.92097173      -0.00000013       0.00000069       0.00479776
Li       2.23905834       1.29272065      15.22221215       0.00000013       0.00000012      -0.00479689
Li      -0.00000012       2.58544171       8.90253751       0.00000019      -0.00000023      -0.04157616
Li       2.23905849       1.29272082       7.24064639       0.00000013      -0.00000003       0.04157628
Li      -0.00000017       2.58544166      11.56620436       0.00000038       0.00000050       0.04101783
Li       2.23905852       1.29272085       4.57697951       0.00000024      -0.00000005      -0.04101809
Li      -0.00000020       2.58544162      14.30115803       0.00000008       0.00000032      -0.00678105
Li       2.23905856       1.29272092       1.84202586       0.00000011      -0.00000015       0.00678021
Li      -0.00000013      -0.00000015       8.07159199      -0.00000004       0.00000017      -0.00000055
Ga      -0.00000005       2.58544182       3.63366501      -0.00000019       0.00000008       0.01113449
Ga       2.23905840       1.29272072      12.50951882      -0.00000033      -0.00000023      -0.01113465
Ga      -0.00000009       2.58544175       6.21775341      -0.00000003       0.00000011       0.01051207
Ga       2.23905844       1.29272077       9.92543047      -0.00000008       0.00000023      -0.01051244
Ga       0.00000001       0.00000001      -0.00000001      -0.00000013      -0.00000071      -0.00000056
16
Lattice="7.059189366694144 8.444357997736258e-08 1.3594846172244579e-08 8.444358111256676e-08 7.059189707345556 6.42225975303987e-08 1.3594845739993872e-08 6.422259709814798e-08 7.059189759341441" Properties=species:S:1:pos:R:3:forces:R:3 structure_index=5 total_energy=-47.21577835083008 stress="-0.02138858661055565 -7.870109470786701e-07 -6.032300348124409e-07 -7.84744486281852e-07 -0.02138996683061123 1.94415989085428e-07 -5.269298526400235e-07 2.784772732411511e-07 -0.021389558911323547" pbc="T T T"
Li       0.00000001       0.00000005       3.52959488       0.00000078      -0.00000237      -0.00000034
Li       3.52959469       0.00000004       0.00000002      -0.00000145       0.00000285       0.00000038
Li       0.00000005       3.52959485       0.00000004      -0.00000116      -0.00000168      -0.00000004
Li       3.52959473       3.52959494       3.52959492       0.00000048       0.00000160       0.00000003
Ga       1.76479736       1.76479747       1.76479745       0.00000099       0.00000031      -0.00000176
Ga       5.29439208       5.29439238       5.29439236       0.00000095      -0.00000087      -0.00000153
Ga       5.29439205       1.76479751       1.76479746      -0.00000037       0.00000020      -0.00000165
Ga       1.76479742       5.29439233       5.29439236      -0.00000058       0.00000020      -0.00000130
Ga       5.29439208       5.29439234       1.76479750       0.00000073       0.00000064       0.00000190
Ga       1.76479737       1.76479750       5.29439233       0.00000044      -0.00000096       0.00000138
Ga       1.76479740       5.29439230       1.76479749       0.00000033      -0.00000042       0.00000171
Ga       5.29439206       1.76479755       5.29439234      -0.00000008      -0.00000029       0.00000146
Sn       0.00000000       0.00000001       0.00000000       0.00000116       0.00000274       0.00000018
Sn       3.52959474       3.52959492       0.00000004       0.00000099      -0.00000413      -0.00000056
Sn       3.52959470       0.00000006       3.52959490      -0.00000183      -0.00000193      -0.00000033
Sn       0.00000005       3.52959489       3.52959492      -0.00000131       0.00000414       0.00000045
12
Lattice="6.466675845992672 -6.826507730198725e-08 -6.0005491844909e-08 -6.826507626206646e-08 6.466675780935065 -1.802945069837695e-07 -6.000549224087869e-08 -1.802945073797392e-07 6.466675784979722" Properties=species:S:1:pos:R:3:forces:R:3 structure_index=6 total_energy=-37.03832244873047 stress="0.006238942034542561 9.754689926921856e-07 1.0829877510332153e-06 9.426009910384892e-07 0.006238817702978849 -2.2507927042170195e-06 1.1371296295692446e-06 -2.206031467721914e-06 0.006237812340259552" pbc="T T T"
Li       1.61666893       1.61666888       1.61666889       0.00000044      -0.00000019      -0.00000016
Li       1.61666886       4.85000668       4.85000669      -0.00000014       0.00000037       0.00000019
Li       4.85000682       4.85000674       1.61666876       0.00000049      -0.00000011      -0.00000004
Li       4.85000683       1.61666875       4.85000675      -0.00000042       0.00000030       0.00000012
Ga       1.61666890       1.61666878       4.85000677      -0.00000008      -0.00000085       0.00000139
Ga       1.61666889       4.85000678       1.61666879       0.00000030       0.00000181      -0.00000020
Ga       4.85000680       4.85000668       4.85000667       0.00000040       0.00000164       0.00000146
Ga       4.85000686       1.61666884       1.61666885      -0.00000257       0.00000053       0.00000025
Sn       0.00000000      -0.00000001      -0.00000000      -0.00000026      -0.00000165      -0.00000107
Sn       3.23333788       3.23333785      -0.00000012       0.00000194      -0.00000105      -0.00000004
Sn       3.23333788      -0.00000012       3.23333786       0.00000122      -0.00000056      -0.00000136
Sn      -0.00000005       3.23333780       3.23333780      -0.00000131      -0.00000024      -0.00000054
8
Lattice="5.543209269832845 2.9987423917962495e-08 -1.807731505175181e-07 2.998742480937846e-08 5.543209780594059 9.262292257096332e-07 -1.8077315085694177e-07 9.262292253702097e-07 5.5432094440430095" Properties=species:S:1:pos:R:3:forces:R:3 structure_index=7 total_energy=-18.937545776367188 stress="0.031556565314531326 -4.02665705223626e-07 3.577699317247607e-06 -5.383873258324456e-07 0.03156517818570137 -8.697817065694835e-06 3.5031530387641396e-06 -8.69684481585864e-06 0.03154828026890755" pbc="T T T"
Li      -0.00000009       0.00000043       2.77160472       0.00000205      -0.00000917      -0.00000448
Li       2.77160464       0.00000000      -0.00000009      -0.00000232       0.00000023       0.00000695
Li       0.00000002       2.77160490       0.00000046       0.00000032       0.00000802       0.00000154
Li       2.77160456       2.77160539       2.77160509      -0.00000007       0.00000522      -0.00000174
Ga       0.00000002      -0.00000003       0.00000006       0.00000098      -0.00000559       0.00000025
Ga       2.77160461       2.77160489       0.00000045       0.00000043      -0.00000018       0.00000073
Ga       2.77160454       0.00000050       2.77160454      -0.00000134      -0.00000141      -0.00000292
Ga      -0.00000006       2.77160539       2.77160516      -0.00000007       0.00000292      -0.00000033
2
Lattice="2.955822512314547 -3.9327809760276804e-08 9.958865099529796e-09 -1.4779112902161549 2.5598174644686305 -3.883514876224444e-09 1.5275700902879147e-08 1.941057936393566e-09 4.432602112138086" Properties=species:S:1:pos:R:3:forces:R:3 structure_index=8 total_energy=-5.2824811935424805 stress="-0.051986463367938995 1.993711066461401e-06 -1.1849958525544935e-07 1.9661636088130763e-06 -0.05197880417108536 1.2816256855785468e-07 -1.1008972222725788e-07 2.059511388097235e-07 0.013321182690560818" pbc="T T T"
Li      -0.00000002       1.70654495       0.00000000       0.00000017       0.00000019       0.00000009
Ga       1.47791125       0.85327247       2.21630106      -0.00000016      -0.00000019      -0.00000010
24
Lattice="11.464497057084387 -1.9885850860882138e-07 5.448502529418474e-08 -1.9885850676518971e-07 11.464496360601146 -1.398737074923647e-07 5.448502459218676e-08 -1.3987370819436283e-07 11.464496953648386" Properties=species:S:1:pos:R:3:forces:R:3 structure_index=9 total_energy=-43.328575134277344 stress="0.004575914237648249 1.308555681589496e-07 6.471341293945443e-07 1.2461272547170665e-07 0.004576138220727444 9.014727453404703e-08 6.161749865896127e-07 1.501649080637435e-07 0.004576120525598526" pbc="T T T"
Li       0.00000001      -0.00000003      -0.00000001       0.00000197      -0.00000057       0.00000145
Li       2.86612429       2.86612407       2.86612428      -0.00000066      -0.00000002      -0.00000085
Li      -0.00000015       5.73224820       5.73224847       0.00000078       0.00000034      -0.00000031
Li       8.59837279       2.86612374       8.59837272       0.00000224       0.00000216       0.00000210
Li       2.86612405       8.59837212       8.59837263      -0.00000080      -0.00000191       0.00000076
Li       8.59837264       8.59837209       2.86612407       0.00000133      -0.00000092      -0.00000029
Li       5.73224863      -0.00000027       5.73224856       0.00000065       0.00000334       0.00000062
Li       5.73224850       5.73224817      -0.00000014      -0.00000140       0.00000051       0.00000085
Ga       1.43306214       1.43306203       1.43306214      -0.00000011      -0.00000025      -0.00000003
Ga       1.43306217       4.29918601       4.29918628      -0.00000001       0.00000016       0.00000016
Ga      10.03143482       4.29918601       7.16531051      -0.00000154      -0.00000157       0.00000134
Ga      10.03143493       1.43306166      10.03143488      -0.00000227       0.00000209      -0.00000221
Ga       1.43306192      10.03143417      10.03143469       0.00000003      -0.00000030      -0.00000004
Ga       1.43306210       7.16531010       7.16531053       0.00000095       0.00000086       0.00000089
Ga      10.03143475       7.16530993       4.29918646      -0.00000098       0.00000099      -0.00000107
Ga      10.03143475      10.03143414       1.43306197      -0.00000021      -0.00000063       0.00000035
Ga       4.29918633       1.43306201       4.29918631       0.00000135      -0.00000143       0.00000129
Ga       7.16531044      10.03143406       4.29918640      -0.00000024       0.00000005       0.00000001
Ga       7.16531070       1.43306190       7.16531062      -0.00000269      -0.00000281      -0.00000272
Ga       4.29918638      10.03143409       7.16531042       0.00000019       0.00000019      -0.00000019
Ga       4.29918626       4.29918600       1.43306218       0.00000050       0.00000055      -0.00000049
Ga       4.29918644       7.16530995      10.03143472      -0.00000063       0.00000055      -0.00000051
Ga       7.16531054       7.16531010       1.43306215       0.00000010       0.00000029       0.00000033
Ga       7.16531060       4.29918598      10.03143474       0.00000147      -0.00000166      -0.00000154
10
Lattice="3.731383601170435 4.847381744125343e-08 -1.6086981738346352e-07 4.847381804130568e-08 3.7314060373387794 -8.47466966169079e-08 -4.892001144229062e-07 -2.577120706816396e-07 14.184103147890495" Properties=species:S:1:pos:R:3:forces:R:3 structure_index=10 total_energy=-28.571205139160156 stress="-0.0029781446792185307 4.643495969958167e-07 6.725146590724762e-07 4.847116201744939e-07 -0.003065043594688177 -2.1571797788055846e-06 9.311215194429678e-07 -2.1490411654667696e-06 0.00851987861096859" pbc="T T T"
Li      -0.00000013      -0.00000005       5.75733646      -0.00000053       0.00000066       0.00114384
Li      -0.00000023      -0.00000008       8.42676687       0.00000003       0.00000004      -0.00114308
Li       1.86569136       1.86570280      12.84938801      -0.00000011       0.00000033       0.00114300
Li       1.86569179       1.86570304       1.33471488       0.00000024      -0.00000071      -0.00114291
Ga      -0.00000012       1.86570298       3.54602707      -0.00000142      -0.00000348       0.00000756
Ga      -0.00000035       1.86570281      10.63807594       0.00000175       0.00000010      -0.00000833
Ga       1.86569170      -0.00000008       3.54602442       0.00000157       0.00000297      -0.00000786
Ga       1.86569147      -0.00000015      10.63807853      -0.00000155      -0.00000023       0.00000817
Sn       0.00000001       0.00000000      -0.00000009      -0.00000037       0.00000042      -0.00000160
Sn       1.86569141       1.86570279       7.09205146       0.00000042      -0.00000008       0.00000120
4
Lattice="3.2697102175360997 -3.975640253857178e-09 7.972272173292091e-09 -1.6348551122110562 2.8316519323435414 -2.5284101521945813e-09 2.294144132077526e-08 4.8437726773708594e-09 9.333789226856718" Properties=species:S:1:pos:R:3:forces:R:3 structure_index=11 total_energy=-10.074759483337402 stress="-0.023450735956430435 -2.0469266814870934e-07 -1.2778319558037765e-07 -2.8216928171787004e-07 -0.02345571666955948 -1.9795731276417428e-08 -1.685417885255447e-07 3.895103262152588e-08 0.057961173355579376" pbc="T T T"
Li       0.00000001       1.88776795       7.11464553      -0.00000002      -0.00000059       0.03694433
Li       0.00000000       1.88776794       2.21914368       0.00000001      -0.00000050      -0.03694472
Li       0.00000001       0.00000000       4.66689462       0.00000002       0.00000004      -0.00000005
Sn       0.00000000       0.00000002       0.00000002      -0.00000001       0.00000105       0.00000045
16
Lattice="6.707193682258991 -3.114692751399454e-08 -2.184516447635057e-08 -3.114692643539552e-08 6.7071940047598035 -1.7265332069127645e-07 -2.184516488704775e-08 -1.7265332110197364e-07 6.707193950921144" Properties=species:S:1:pos:R:3:forces:R:3 structure_index=12 total_energy=-45.99090576171875 stress="0.0018663074588403106 3.341146737056988e-07 7.91131981259241e-07 4.508106883349683e-07 0.0018671759171411395 5.599426913249772e-07 7.773024890411762e-07 4.72578960852843e-07 0.0018665115348994732" pbc="T T T"
Li      -0.00000001      -0.00000008       3.35359698      -0.00000048       0.00000010       0.00000020
Li       3.35359684      -0.00000001      -0.00000001      -0.00000048       0.00000014       0.00000017
Li      -0.00000001       3.35359700      -0.00000008      -0.00000096       0.00000029      -0.00000016
Li       3.35359681       3.35359690       3.35359688       0.00000065      -0.00000004      -0.00000019
Li       1.67679840       1.67679845       1.67679844      -0.00000019       0.00000009      -0.00000021
Li       1.67679838       5.03039537       5.03039533       0.00000023      -0.00000006       0.00000018
Li       5.03039523       5.03039543       1.67679834       0.00000065      -0.00000015       0.00000027
Li       5.03039523       1.67679835       5.03039540       0.00000099       0.00000055      -0.00000051
Ga       1.67679840       1.67679837       5.03039541      -0.00000006       0.00000043       0.00000043
Ga       1.67679840       5.03039544       1.67679836       0.00000047      -0.00000061      -0.00000007
Ga       5.03039522       5.03039535       5.03039532       0.00000088      -0.00000099      -0.00000047
Ga       5.03039524       1.67679844       1.67679844       0.00000084      -0.00000006      -0.00000010
Sn      -0.00000001      -0.00000001      -0.00000001      -0.00000076       0.00000012       0.00000024
Sn       3.35359683       3.35359699      -0.00000010      -0.00000094      -0.00000004       0.00000003
Sn       3.35359683      -0.00000011       3.35359697       0.00000007      -0.00000038      -0.00000016
Sn      -0.00000003       3.35359692       3.35359689      -0.00000090       0.00000060       0.00000034
14
Lattice="10.391819325845349 4.47847622926299e-07 1.5332998788919654e-07 4.4784762459743117e-07 10.391820669162017 5.155603921977986e-08 4.6199933903786575e-08 1.553437535453461e-08 3.099851552605255" Properties=species:S:1:pos:R:3:forces:R:3 structure_index=13 total_energy=-48.5974006652832 stress="0.005028940737247467 -2.503303676348878e-06 1.1090133966717985e-06 -2.4676439807080897e-06 0.005041058175265789 5.562897058553062e-07 1.1203936765014078e-06 4.950055085828353e-07 -0.018110014498233795" pbc="T T T"
Li       1.80896880       7.00487909       1.54992584       0.01821482       0.01821722       0.00000013
Li       8.58285102       3.38694201       1.54992592      -0.01822150      -0.01822004      -0.00000008
Li       3.38694129       1.80896886       1.54992583      -0.01821360       0.01821556      -0.00000009
Li       7.00487853       8.58285226       1.54992592       0.01821851      -0.01821345      -0.00000003
Sn       0.71555338       2.12805117       0.00000003      -0.01159887      -0.04792548       0.00000029
Sn       9.67626636       8.26376996       0.00000018       0.01159564       0.04792210      -0.00000073
Sn       8.26376850       0.71555376       0.00000012       0.04792152      -0.01159705      -0.00000002
Sn       2.12805128       9.67626738       0.00000008      -0.04792568       0.01160074       0.00000001
Sn       5.91146313       3.06785949       0.00000010      -0.01159474       0.04792412       0.00000015
Sn       4.48035668       7.32396160       0.00000010       0.01159818      -0.04792509      -0.00000007
Sn       3.06785900       4.48035712       0.00000007       0.04792448       0.01159978       0.00000003
Sn       7.32396076       5.91146402       0.00000013      -0.04792017      -0.01160035       0.00000048
Sn       0.00000023       5.19591033       0.00000003      -0.00000070       0.00000188      -0.00000003
Sn       5.19590967       0.00000023       0.00000009       0.00000211       0.00000003      -0.00000004
12
Lattice="6.466702946421159 -8.779188452693104e-08 -8.014642279841886e-08 -8.779188348700589e-08 6.466702832433829 -4.889210895065657e-08 -8.01464231943902e-08 -4.8892109346627895e-08 6.466702754283916" Properties=species:S:1:pos:R:3:forces:R:3 structure_index=14 total_energy=-37.038330078125 stress="0.00673478189855814 -3.145359244172141e-07 -1.3552607924793847e-06 -2.6102313199771743e-07 0.006736660376191139 -1.163808178716863e-06 -1.40394502068375e-06 -1.0950451496682945e-06 0.006737260613590479" pbc="T T T"
Li      -0.00000004      -0.00000002       3.23335137      -0.00000017      -0.00000005       0.00000014
Li       3.23335147      -0.00000004      -0.00000004      -0.00000041      -0.00000004       0.00000006