# Thermal properties / unit cell (natom)

unit:
  temperature:   K
  free_energy:   kJ/mol
  entropy:       J/K/mol
  heat_capacity: J/K/mol

natom: 16   
cutoff_frequency: 0.00000
num_modes: 159744
num_integrated_modes: 159739

zero_point_energy:      61.2691860

thermal_properties:
- temperature:         0.0000000
  free_energy:        61.2691860
  entropy:             0.0000000
  heat_capacity:       0.0000000
  energy:             61.2691860

- temperature:        10.0000000
  free_energy:        61.2656365
  entropy:             1.2057853
  heat_capacity:       3.5385422
  energy:             61.2776943

- temperature:        20.0000000
  free_energy:        61.2213338
  entropy:             9.1112821
  heat_capacity:      24.0931343
  energy:             61.4035594

- temperature:        30.0000000
  free_energy:        61.0605447
  entropy:            23.8010826
  heat_capacity:      49.8712175
  energy:             61.7745772

- temperature:        40.0000000
  free_energy:        60.7358274
  entropy:            41.4267235
  heat_capacity:      73.4418114
  energy:             62.3928963

- temperature:        50.0000000
  free_energy:        60.2282493
  entropy:            60.2175911
  heat_capacity:      95.7116517
  energy:             63.2391288

- temperature:        60.0000000
  free_energy:        59.5294682
  entropy:            79.6207141
  heat_capacity:     117.8212733
  energy:             64.3067111

- temperature:        70.0000000
  free_energy:        58.6344249
  entropy:            99.4480712
  heat_capacity:     139.9821790
  energy:             65.5957899

- temperature:        80.0000000
  free_energy:        57.5395154
  entropy:           119.5722493
  heat_capacity:     161.8211938
  energy:             67.1052953

- temperature:        90.0000000
  free_energy:        56.2424510
  entropy:           139.8548098
  heat_capacity:     182.8150575
  energy:             68.8293839

- temperature:       100.0000000
  free_energy:        54.7423799
  entropy:           160.1494766
  heat_capacity:     202.5341829
  energy:             70.7573275

- temperature:       110.0000000
  free_energy:        53.0398822
  entropy:           180.3186192
  heat_capacity:     220.7174310
  energy:             72.8749303

- temperature:       120.0000000
  free_energy:        51.1368203
  entropy:           200.2447666
  heat_capacity:     237.2593008
  energy:             75.1661923

- temperature:       130.0000000
  free_energy:        49.0361092
  entropy:           219.8350474
  heat_capacity:     252.1682135
  energy:             77.6146653

- temperature:       140.0000000
  free_energy:        46.7414703
  entropy:           239.0207583
  heat_capacity:     265.5243450
  energy:             80.2043764

- temperature:       150.0000000
  free_energy:        44.2572027
  entropy:           257.7544577
  heat_capacity:     277.4467078
  energy:             82.9203713

- temperature:       160.0000000
  free_energy:        41.5879891
  entropy:           276.0062059
  heat_capacity:     288.0705661
  energy:             85.7489821

- temperature:       170.0000000
  free_energy:        38.7387401
  entropy:           293.7598399
  heat_capacity:     297.5332752
  energy:             88.6779129

- temperature:       180.0000000
  free_energy:        35.7144725
  entropy:           311.0096857
  heat_capacity:     305.9661322
  energy:             91.6962159

- temperature:       190.0000000
  free_energy:        32.5202193
  entropy:           327.7578328
  heat_capacity:     313.4901957
  energy:             94.7942075

- temperature:       200.0000000
  free_energy:        29.1609630
  entropy:           344.0119630
  heat_capacity:     320.2145779
  energy:             97.9633556

- temperature:       210.0000000
  free_energy:        25.6415884
  entropy:           359.7836639
  heat_capacity:     326.2361932
  energy:            101.1961578

- temperature:       220.0000000
  free_energy:        21.9668506
  entropy:           375.0871441
  heat_capacity:     331.6403122
  energy:            104.4860223

- temperature:       230.0000000
  free_energy:        18.1413535
  entropy:           389.9382692
  heat_capacity:     336.5015124
  energy:            107.8271554

- temperature:       240.0000000
  free_energy:        14.1695371
  entropy:           404.3538471
  heat_capacity:     340.8847866
  energy:            111.2144604

- temperature:       250.0000000
  free_energy:        10.0556710
  entropy:           418.3511055
  heat_capacity:     344.8466670
  energy:            114.6434473

- temperature:       260.0000000
  free_energy:         5.8038518
  entropy:           431.9473147
  heat_capacity:     348.4362935
  energy:            118.1101536

- temperature:       270.0000000
  free_energy:         1.4180046
  entropy:           445.1595213
  heat_capacity:     351.6963883
  energy:            121.6110754

- temperature:       280.0000000
  free_energy:        -3.0981141
  entropy:           458.0043626
  heat_capacity:     354.6641244
  energy:            125.1431074

- temperature:       290.0000000
  free_energy:        -7.7409118
  entropy:           470.4979433
  heat_capacity:     357.3718883
  energy:            128.7034917

- temperature:       300.0000000
  free_energy:       -12.5069538
  entropy:           482.6557568
  heat_capacity:     359.8479410
  energy:            132.2897732

- temperature:       310.0000000
  free_energy:       -17.3929573
  entropy:           494.4926392
  heat_capacity:     362.1169898
  energy:            135.8997609

- temperature:       320.0000000
  free_energy:       -22.3957841
  entropy:           506.0227486
  heat_capacity:     364.2006780
  energy:            139.5314954

- temperature:       330.0000000
  free_energy:       -27.5124346
  entropy:           517.2595601
  heat_capacity:     366.1180053
  energy:            143.1832202

- temperature:       340.0000000
  free_energy:       -32.7400404
  entropy:           528.2158745
  heat_capacity:     367.8856869
  energy:            146.8533569

- temperature:       350.0000000
  free_energy:       -38.0758577
  entropy:           538.9038346
  heat_capacity:     369.5184613
  energy:            150.5404844

- temperature:       360.0000000
  free_energy:       -43.5172610
  entropy:           549.3349473
  heat_capacity:     371.0293526
  energy:            154.2433200

- temperature:       370.0000000
  free_energy:       -49.0617369
  entropy:           559.5201099
  heat_capacity:     372.4298961
  energy:            157.9607038

- temperature:       380.0000000
  free_energy:       -54.7068778
  entropy:           569.4696374
  heat_capacity:     373.7303310
  energy:            161.6915844

- temperature:       390.0000000
  free_energy:       -60.4503768
  entropy:           579.1932922
  heat_capacity:     374.9397658
  energy:            165.4350072

- temperature:       400.0000000
  free_energy:       -66.2900216
  entropy:           588.7003128
  heat_capacity:     376.0663206
  energy:            169.1901035

- temperature:       410.0000000
  free_energy:       -72.2236901
  entropy:           597.9994432
  heat_capacity:     377.1172498
  energy:            172.9560816

- temperature:       420.0000000
  free_energy:       -78.2493451
  entropy:           607.0989602
  heat_capacity:     378.0990480
  energy:            176.7322182

- temperature:       430.0000000
  free_energy:       -84.3650301
  entropy:           616.0067016
  heat_capacity:     379.0175406
  energy:            180.5178516

- temperature:       440.0000000
  free_energy:       -90.5688647
  entropy:           624.7300913
  heat_capacity:     379.8779640
  energy:            184.3123755

- temperature:       450.0000000
  free_energy:       -96.8590409
  entropy:           633.2761644
  heat_capacity:     380.6850335
  energy:            188.1152331

- temperature:       460.0000000
  free_energy:      -103.2338192
  entropy:           641.6515907
  heat_capacity:     381.4430034
  energy:            191.9259125

- temperature:       470.0000000
  free_energy:      -109.6915250
  entropy:           649.8626965
  heat_capacity:     382.1557192
  energy:            195.7439423

- temperature:       480.0000000
  free_energy:      -116.2305455
  entropy:           657.9154857
  heat_capacity:     382.8266627
  energy:            199.5688877

- temperature:       490.0000000
  free_energy:      -122.8493261
  entropy:           665.8156591
  heat_capacity:     383.4589921
  energy:            203.4003469

- temperature:       500.0000000
  free_energy:      -129.5463680
  entropy:           673.5686328
  heat_capacity:     384.0555768
  energy:            207.2379484

- temperature:       510.0000000
  free_energy:      -136.3202252
  entropy:           681.1795554
  heat_capacity:     384.6190280
  energy:            211.0813480

- temperature:       520.0000000
  free_energy:      -143.1695020
  entropy:           688.6533239
  heat_capacity:     385.1517258
  energy:            214.9302265

- temperature:       530.0000000
  free_energy:      -150.0928501
  entropy:           695.9945989
  heat_capacity:     385.6558430
  energy:            218.7842873

- temperature:       540.0000000
  free_energy:      -157.0889671
  entropy:           703.2078182
  heat_capacity:     386.1333660
  energy:            222.6432547

- temperature:       550.0000000
  free_energy:      -164.1565937
  entropy:           710.2972105
  heat_capacity:     386.5861135
  energy:            226.5068720

- temperature:       560.0000000
  free_energy:      -171.2945120
  entropy:           717.2668071
  heat_capacity:     387.0157530
  energy:            230.3749000

- temperature:       570.0000000
  free_energy:      -178.5015434
  entropy:           724.1204537
  heat_capacity:     387.4238155
  energy:            234.2471152

- temperature:       580.0000000
  free_energy:      -185.7765468
  entropy:           730.8618205
  heat_capacity:     387.8117085
  energy:            238.1233091

- temperature:       590.0000000
  free_energy:      -193.1184172
  entropy:           737.4944131
  heat_capacity:     388.1807278
  energy:            242.0032865

- temperature:       600.0000000
  free_energy:      -200.5260837
  entropy:           744.0215807
  heat_capacity:     388.5320675
  energy:            245.8868647

- temperature:       610.0000000
  free_energy:      -207.9985081
  entropy:           750.4465257
  heat_capacity:     388.8668298
  energy:            249.7738726

- temperature:       620.0000000
  free_energy:      -215.5346837
  entropy:           756.7723115
  heat_capacity:     389.1860329
  energy:            253.6641494

- temperature:       630.0000000
  free_energy:      -223.1336336
  entropy:           763.0018700
  heat_capacity:     389.4906187
  energy:            257.5575445

- temperature:       640.0000000
  free_energy:      -230.7944097
  entropy:           769.1380089
  heat_capacity:     389.7814595
  energy:            261.4539160

- temperature:       650.0000000
  free_energy:      -238.5160914
  entropy:           775.1834184
  heat_capacity:     390.0593640
  energy:            265.3531306

- temperature:       660.0000000
  free_energy:      -246.2977843
  entropy:           781.1406772
  heat_capacity:     390.3250827
  energy:            269.2550627

- temperature:       670.0000000
  free_energy:      -254.1386193
  entropy:           787.0122586
  heat_capacity:     390.5793128
  energy:            273.1595939

- temperature:       680.0000000
  free_energy:      -262.0377518
  entropy:           792.8005361
  heat_capacity:     390.8227027
  energy:            277.0666128

- temperature:       690.0000000
  free_energy:      -269.9943600
  entropy:           798.5077882
  heat_capacity:     391.0558561
  energy:            280.9760139

- temperature:       700.0000000
  free_energy:      -278.0076448
  entropy:           804.1362035
  heat_capacity:     391.2793354
  energy:            284.8876977

- temperature:       710.0000000
  free_energy:      -286.0768283
  entropy:           809.6878850
  heat_capacity:     391.4936653
  energy:            288.8015701

- temperature:       720.0000000
  free_energy:      -294.2011534
  entropy:           815.1648549
  heat_capacity:     391.6993354
  energy:            292.7175421

- temperature:       730.0000000
  free_energy:      -302.3798828
  entropy:           820.5690580
  heat_capacity:     391.8968034
  energy:            296.6355295

- temperature:       740.0000000
  free_energy:      -310.6122983
  entropy:           825.9023656
  heat_capacity:     392.0864973
  energy:            300.5554523

- temperature:       750.0000000
  free_energy:      -318.8976998
  entropy:           831.1665796
  heat_capacity:     392.2688175
  energy:            304.4772348

- temperature:       760.0000000
  free_energy:      -327.2354053
  entropy:           836.3634351
  heat_capacity:     392.4441393
  energy:            308.4008053

- temperature:       770.0000000
  free_energy:      -335.6247496
  entropy:           841.4946040
  heat_capacity:     392.6128145
  energy:            312.3260955

- temperature:       780.0000000
  free_energy:      -344.0650838
  entropy:           846.5616979
  heat_capacity:     392.7751732
  energy:            316.2530405

- temperature:       790.0000000
  free_energy:      -352.5557752
  entropy:           851.5662710
  heat_capacity:     392.9315253
  energy:            320.1815789

- temperature:       800.0000000
  free_energy:      -361.0962059
  entropy:           856.5098223
  heat_capacity:     393.0821620
  energy:            324.1116520

- temperature:       810.0000000
  free_energy:      -369.6857730
  entropy:           861.3937988
  heat_capacity:     393.2273573
  energy:            328.0432040

- temperature:       820.0000000
  free_energy:      -378.3238879
  entropy:           866.2195973
  heat_capacity:     393.3673689
  energy:            331.9761819

- temperature:       830.0000000
  free_energy:      -387.0099755
  entropy:           870.9885668
  heat_capacity:     393.5024396
  energy:            335.9105349

- temperature:       840.0000000
  free_energy:      -395.7434742
  entropy:           875.7020109
  heat_capacity:     393.6327981
  energy:            339.8462150

- temperature:       850.0000000
  free_energy:      -404.5238349
  entropy:           880.3611892
  heat_capacity:     393.7586602
  energy:            343.7831759

- temperature:       860.0000000
  free_energy:      -413.3505211
  entropy:           884.9673197
  heat_capacity:     393.8802294
  energy:            347.7213738

- temperature:       870.0000000
  free_energy:      -422.2230084
  entropy:           889.5215807
  heat_capacity:     393.9976980
  energy:            351.6607668

- temperature:       880.0000000
  free_energy:      -431.1407837
  entropy:           894.0251118
  heat_capacity:     394.1112476
  energy:            355.6013147

- temperature:       890.0000000
  free_energy:      -440.1033452
  entropy:           898.4790163
  heat_capacity:     394.2210500
  energy:            359.5429793

- temperature:       900.0000000
  free_energy:      -449.1102021
  entropy:           902.8843621
  heat_capacity:     394.3272676
  energy:            363.4857238

- temperature:       910.0000000
  free_energy:      -458.1608740
  entropy:           907.2421838
  heat_capacity:     394.4300542
  energy:            367.4295132

- temperature:       920.0000000
  free_energy:      -467.2548907
  entropy:           911.5534833
  heat_capacity:     394.5295555
  energy:            371.3743139

- temperature:       930.0000000
  free_energy:      -476.3917919
  entropy:           915.8192319
  heat_capacity:     394.6259095
  energy:            375.3200938

- temperature:       940.0000000
  free_energy:      -485.5711267
  entropy:           920.0403710
  heat_capacity:     394.7192471
  energy:            379.2668221

- temperature:       950.0000000
  free_energy:      -494.7924536
  entropy:           924.2178134
  heat_capacity:     394.8096924
  energy:            383.2144691

- temperature:       960.0000000
  free_energy:      -504.0553402
  entropy:           928.3524447
  heat_capacity:     394.8973634
  energy:            387.1630067

- temperature:       970.0000000
  free_energy:      -513.3593627
  entropy:           932.4451239
  heat_capacity:     394.9823720
  energy:            391.1124075

- temperature:       980.0000000
  free_energy:      -522.7041057
  entropy:           936.4966849
  heat_capacity:     395.0648245
  energy:            395.0626456

- temperature:       990.0000000
  free_energy:      -532.0891620
  entropy:           940.5079372
  heat_capacity:     395.1448222
  energy:            399.0136958

- temperature:      1000.0000000
  free_energy:      -541.5141327
  entropy:           944.4796668
  heat_capacity:     395.2224611
  energy:            402.9655342
