phonopy:
  version: "2.37.1"
  frequency_unit_conversion_factor: 15.633302
  symmetry_tolerance: 1.00000e-05

space_group:
  type: "C2/m"
  number: 12
  Hall_symbol: "-C 2y"

primitive_matrix:
- [  0.000000000000000,  1.000000000000000,  0.000000000000000 ]
- [  1.000000000000000,  1.000000000000000, -1.000000000000000 ]
- [  0.000000000000000,  1.000000000000000, -1.000000000000000 ]

supercell_matrix:
- [   2,   0,   0 ]
- [   0,   2,   0 ]
- [   0,   0,   2 ]

primitive_cell:
  lattice:
  - [     2.821163608982780,     4.365899903818582,     0.000000000000000 ] # a
  - [     4.009666705645227,     2.182047863787855,     2.486218904529896 ] # b
  - [     1.191426903731134,    -2.182047863787855,    -2.486218904529896 ] # c
  points:
  - symbol: Li # 1
    coordinates: [  0.329079689742948,  0.329079698960798,  0.331018561404670 ]
    mass: 6.940000
  - symbol: Li # 2
    coordinates: [  0.670920304826115,  0.670920312686762,  0.668981448416666 ]
    mass: 6.940000
  - symbol: Sn # 3
    coordinates: [  0.000000005493480,  0.999999988268411,  0.999999990342659 ]
    mass: 118.710000
  reciprocal_lattice: # without 2pi
  - [     0.000000000000000,     0.229047853141425,    -0.201025492060179 ] # a*
  - [     0.192267256677948,    -0.124239538168147,     0.201176573896680 ] # b*
  - [     0.192267256677948,    -0.124239538168147,    -0.201040623542370 ] # c*

unit_cell:
  lattice:
  - [     5.201093609376361,     0.000000000000000,     0.000000000000000 ] # a
  - [     2.821163608982780,     4.365899903818582,     0.000000000000000 ] # b
  - [    -4.012590512713913,    -2.183852040030727,     2.486218904529896 ] # c
  points:
  - symbol: Li # 1
    coordinates: [  0.329079698960798,  0.327140827299076,  0.998061137556127 ]
    mass: 6.940000
    reduced_to: 1
  - symbol: Li # 2
    coordinates: [  0.670920312686762,  0.672859169096211,  0.001938864270096 ]
    mass: 6.940000
    reduced_to: 2
  - symbol: Sn # 3
    coordinates: [  0.999999988268411,  0.000000003419232,  0.999999997925752 ]
    mass: 118.710000
    reduced_to: 3

supercell:
  lattice:
  - [    10.402187218752722,     0.000000000000000,     0.000000000000000 ] # a
  - [     5.642327217965559,     8.731799807637165,     0.000000000000000 ] # b
  - [    -8.025181025427827,    -4.367704080061454,     4.972437809059793 ] # c
  points:
  - symbol: Li # 1
    coordinates: [  0.164539849480399,  0.163570413649538,  0.499030568778064 ]
    mass: 6.940000
    reduced_to: 1
  - symbol: Li # 2
    coordinates: [  0.664539849480399,  0.163570413649538,  0.499030568778064 ]
    mass: 6.940000
    reduced_to: 1
  - symbol: Li # 3
    coordinates: [  0.164539849480399,  0.663570413649538,  0.499030568778064 ]
    mass: 6.940000
    reduced_to: 1
  - symbol: Li # 4
    coordinates: [  0.664539849480399,  0.663570413649538,  0.499030568778064 ]
    mass: 6.940000
    reduced_to: 1
  - symbol: Li # 5
    coordinates: [  0.164539849480399,  0.163570413649538,  0.999030568778064 ]
    mass: 6.940000
    reduced_to: 1
  - symbol: Li # 6
    coordinates: [  0.664539849480399,  0.163570413649538,  0.999030568778064 ]
    mass: 6.940000
    reduced_to: 1
  - symbol: Li # 7
    coordinates: [  0.164539849480399,  0.663570413649538,  0.999030568778064 ]
    mass: 6.940000
    reduced_to: 1
  - symbol: Li # 8
    coordinates: [  0.664539849480399,  0.663570413649538,  0.999030568778064 ]
    mass: 6.940000
    reduced_to: 1
  - symbol: Li # 9
    coordinates: [  0.335460156343381,  0.336429584548105,  0.000969432135048 ]
    mass: 6.940000
    reduced_to: 9
  - symbol: Li # 10
    coordinates: [  0.835460156343381,  0.336429584548105,  0.000969432135048 ]
    mass: 6.940000
    reduced_to: 9
  - symbol: Li # 11
    coordinates: [  0.335460156343381,  0.836429584548105,  0.000969432135048 ]
    mass: 6.940000
    reduced_to: 9
  - symbol: Li # 12
    coordinates: [  0.835460156343381,  0.836429584548105,  0.000969432135048 ]
    mass: 6.940000
    reduced_to: 9
  - symbol: Li # 13
    coordinates: [  0.335460156343381,  0.336429584548105,  0.500969432135048 ]
    mass: 6.940000
    reduced_to: 9
  - symbol: Li # 14
    coordinates: [  0.835460156343381,  0.336429584548105,  0.500969432135048 ]
    mass: 6.940000
    reduced_to: 9
  - symbol: Li # 15
    coordinates: [  0.335460156343381,  0.836429584548105,  0.500969432135048 ]
    mass: 6.940000
    reduced_to: 9
  - symbol: Li # 16
    coordinates: [  0.835460156343381,  0.836429584548105,  0.500969432135048 ]
    mass: 6.940000
    reduced_to: 9
  - symbol: Sn # 17
    coordinates: [  0.499999994134206,  0.000000001709616,  0.499999998962876 ]
    mass: 118.710000
    reduced_to: 17
  - symbol: Sn # 18
    coordinates: [  0.999999994134206,  0.000000001709616,  0.499999998962876 ]
    mass: 118.710000
    reduced_to: 17
  - symbol: Sn # 19
    coordinates: [  0.499999994134206,  0.500000001709616,  0.499999998962876 ]
    mass: 118.710000
    reduced_to: 17
  - symbol: Sn # 20
    coordinates: [  0.999999994134206,  0.500000001709616,  0.499999998962876 ]
    mass: 118.710000
    reduced_to: 17
  - symbol: Sn # 21
    coordinates: [  0.499999994134206,  0.000000001709616,  0.999999998962876 ]
    mass: 118.710000
    reduced_to: 17
  - symbol: Sn # 22
    coordinates: [  0.999999994134206,  0.000000001709616,  0.999999998962876 ]
    mass: 118.710000
    reduced_to: 17
  - symbol: Sn # 23
    coordinates: [  0.499999994134206,  0.500000001709616,  0.999999998962876 ]
    mass: 118.710000
    reduced_to: 17
  - symbol: Sn # 24
    coordinates: [  0.999999994134206,  0.500000001709616,  0.999999998962876 ]
    mass: 118.710000
    reduced_to: 17

displacements:
- atom:    1
  displacement:
    [   0.0100000000000000,  0.0000000000000000,  0.0000000000000000 ]
  forces:
  - [  -0.0384916029870510,  0.0022040829062462,  0.0106048705056310 ]
  - [  -0.0135813951492310,  0.0045143365859985,  0.0105792498216033 ]
  - [  -0.0133566781878471,  0.0043861418962479,  0.0105766784399748 ]
  - [  -0.0129021890461445,  0.0046006552875042,  0.0105782840400934 ]
  - [  -0.0136048309504986,  0.0046879984438419,  0.0106919398531318 ]
  - [  -0.0134916193783283,  0.0044692531228065,  0.0107580032199621 ]
  - [  -0.0134879946708679,  0.0044705085456371,  0.0103756664320827 ]
  - [  -0.0135924443602562,  0.0046951957046986,  0.0104697681963444 ]
  - [   0.0146493241190910, -0.0039306804537773, -0.0131219560280442 ]
  - [   0.0138590224087238, -0.0046769753098488, -0.0105419307947159 ]
  - [   0.0138529352843761, -0.0046745836734772, -0.0105965817347169 ]
  - [   0.0146757885813713, -0.0038980059325695, -0.0079193748533726 ]
  - [   0.0151909403502941, -0.0037758350372314, -0.0105727370828390 ]
  - [   0.0178924389183521, -0.0070326998829842, -0.0105917910113931 ]
  - [   0.0130117498338223, -0.0038728117942810, -0.0105761084705591 ]
  - [   0.0115501843392849, -0.0046470351517200, -0.0105867022648454 ]
  - [   0.0082868989557028, -0.0039628134109080,  0.0000106130682980 ]
  - [   0.0055377194657922,  0.0026407458353788, -0.0000242248715949 ]
  - [  -0.0007853198330849, -0.0000952353875618,  0.0000021853484213 ]
  - [  -0.0000338717363775,  0.0010997133795172,  0.0000048389415497 ]
  - [  -0.0000700499658706, -0.0000867189592100, -0.0000237299536821 ]
  - [   0.0025166436098516,  0.0015114007983357, -0.0042082602158189 ]
  - [   0.0024361130781472,  0.0014645177870989,  0.0040937270969152 ]
  - [  -0.0000617306213826, -0.0000911599927349,  0.0000175656750798 ]
- atom:    1
  displacement:
    [  -0.0100000000000000,  0.0000000000000000,  0.0000000000000000 ]
  forces:
  - [   0.0109549760818481,  0.0071063973009586,  0.0105522405356169 ]
  - [  -0.0140078775584698,  0.0045543089509010,  0.0105744367465377 ]
  - [  -0.0142336599528790,  0.0046932660043240,  0.0105764484032989 ]
  - [  -0.0146890059113503,  0.0044783353805542,  0.0105762705206871 ]
  - [  -0.0139830261468887,  0.0043784193694592,  0.0104580745100975 ]
  - [  -0.0140961855649948,  0.0045993849635124,  0.0103895366191864 ]
  - [  -0.0140966027975082,  0.0046035386621952,  0.0107867103070021 ]
  - [  -0.0139932371675968,  0.0043755881488323,  0.0106877870857716 ]
  - [   0.0129455588757992, -0.0051401555538177, -0.0080132801085711 ]
  - [   0.0137328617274761, -0.0043919049203396, -0.0106123983860016 ]
  - [   0.0137338228523731, -0.0043945126235485, -0.0105545409023762 ]
  - [   0.0129206664860249, -0.0051736943423748, -0.0132549088448286 ]
  - [   0.0124493874609470, -0.0052628964185715, -0.0105808284133673 ]
  - [   0.0096324011683464, -0.0019784718751907, -0.0105615472421050 ]
  - [   0.0145779028534889, -0.0051800236105919, -0.0105788838118315 ]
  - [   0.0160467922687531, -0.0044346712529659, -0.0105660557746887 ]
  - [  -0.0080693587660789,  0.0038053682073951, -0.0000123965000967 ]
  - [  -0.0058076493442059, -0.0028085024096072,  0.0000254467086052 ]
  - [   0.0007848678505979,  0.0000949543609750, -0.0000016637848148 ]
  - [   0.0000146236852743, -0.0011555567616597, -0.0000068721187745 ]
  - [   0.0000817546606413,  0.0000862926826812,  0.0000294336496154 ]
  - [  -0.0025279228575528, -0.0014974212972447,  0.0041563631966710 ]
  - [  -0.0024462970905006, -0.0014496336225420, -0.0040448671206832 ]
  - [   0.0000752573250793,  0.0000915842247196, -0.0000244975090027 ]
- atom:    1
  displacement:
    [   0.0054273175219442,  0.0083990609306040,  0.0000000000000000 ]
  forces:
  - [  -0.0291541256010532, -0.0148761924356222,  0.0106059014797211 ]
  - [  -0.0136928707361221,  0.0049852915108204,  0.0105768665671349 ]
  - [  -0.0136853978037834,  0.0047421604394913,  0.0105789778754115 ]
  - [  -0.0132552012801170,  0.0052508823573589,  0.0105782141909003 ]
  - [  -0.0135616213083267,  0.0046111531555653,  0.0106895156204700 ]
  - [  -0.0136841386556625,  0.0047999545931816,  0.0103765744715929 ]
  - [  -0.0136824138462543,  0.0048006959259510,  0.0107567533850670 ]
  - [  -0.0135500580072403,  0.0046202987432480,  0.0104719325900078 ]
  - [   0.0147655420005322, -0.0041591785848141, -0.0131052266806364 ]
  - [   0.0137105472385883, -0.0043919198215008, -0.0105993188917637 ]
  - [   0.0137080587446690, -0.0043875463306904, -0.0105385677888989 ]
  - [   0.0148077160120010, -0.0041566789150238, -0.0079364767298102 ]
  - [   0.0151900984346867, -0.0037647485733032, -0.0105726886540651 ]
  - [   0.0139203332364559, -0.0054932162165642, -0.0105751026421785 ]
  - [   0.0139237008988857,  0.0004641301929951, -0.0105924969539046 ]
  - [   0.0124823823571205, -0.0063822772353888, -0.0105868075042963 ]
  - [   0.0009526430512778, -0.0006532483967021,  0.0000058844889281 ]
  - [   0.0052306829020381,  0.0031636743806303, -0.0000240465597017 ]
  - [  -0.0005006722640246, -0.0006020333967172,  0.0000027180130928 ]
  - [   0.0011214114492759,  0.0088788848370314,  0.0000099706157926 ]
  - [  -0.0001140674066846, -0.0000125877268147,  0.0000257549691014 ]
  - [   0.0026321362238377,  0.0013137534260750, -0.0042149219661951 ]
  - [   0.0025488859973848,  0.0012691539013758,  0.0040991213172674 ]
  - [  -0.0001135453640018, -0.0000204129501071, -0.0000325441360474 ]
- atom:    1
  displacement:
    [  -0.0054273175219442, -0.0083990609306040,  0.0000000000000000 ]
  forces:
  - [   0.0017991699278355,  0.0238676313310862,  0.0105509292334318 ]
  - [  -0.0138907767832279,  0.0040782280266285,  0.0105767892673612 ]
  - [  -0.0139036513864994,  0.0043301247060299,  0.0105740875005722 ]
  - [  -0.0143277682363987,  0.0038123279809952,  0.0105763208121061 ]
  - [  -0.0140268206596375,  0.0044562034308910,  0.0104606337845325 ]
  - [  -0.0139029398560524,  0.0042659081518650,  0.0107844946905971 ]
  - [  -0.0139010511338711,  0.0042704306542873,  0.0103921312838793 ]
  - [  -0.0140359513461590,  0.0044514946639538,  0.0106854494661093 ]
  - [   0.0128247141838074, -0.0049028694629669, -0.0080304853618145 ]
  - [   0.0138816125690937, -0.0046767555177212, -0.0105501599609852 ]
  - [   0.0138786174356937, -0.0046817883849144, -0.0106174629181623 ]
  - [   0.0127839073538780, -0.0049056261777878, -0.0132371000945568 ]
  - [   0.0124530829489231, -0.0052777342498302, -0.0105809634551406 ]
  - [   0.0136825032532215, -0.0035797916352749, -0.0105784498155117 ]
  - [   0.0136758163571358, -0.0096238218247890, -0.0105622736737132 ]
  - [   0.0151010863482952, -0.0026739612221718, -0.0105658024549484 ]
  - [  -0.0010142760584131,  0.0006658461643383, -0.0000082952246885 ]
  - [  -0.0055174995213747, -0.0032994276843965,  0.0000247767020483 ]
  - [   0.0005012009642087,  0.0005994866369292, -0.0000015192911178 ]
  - [  -0.0011331186397001, -0.0086146341636777, -0.0000116548926599 ]
  - [   0.0001215994780068,  0.0000207241282624, -0.0000317300291499 ]
  - [  -0.0026269429363310, -0.0013286339817569,  0.0041624810546637 ]
  - [  -0.0025434771087021, -0.0012830125633627, -0.0040493188425899 ]
  - [   0.0001210113114212,  0.0000296204088954,  0.0000371374189854 ]
- atom:   17
  displacement:
    [   0.0100000000000000,  0.0000000000000000,  0.0000000000000000 ]
  forces:
  - [  -0.0057169534265995,  0.0005111955106258,  0.0105860633775592 ]
  - [  -0.0079902969300747,  0.0073497910052538,  0.0105597171932459 ]
  - [  -0.0145808868110180,  0.0044487230479717,  0.0105838011950254 ]
  - [  -0.0138015523552895,  0.0059334691613913,  0.0105797918513417 ]
  - [  -0.0138770230114460,  0.0044412501156330,  0.0105414148420095 ]
  - [  -0.0112563669681549,  0.0060316398739815,  0.0062220338732004 ]
  - [  -0.0113362371921539,  0.0059871934354305,  0.0148215088993311 ]
  - [  -0.0138694830238819,  0.0044393613934517,  0.0105995088815689 ]
  - [   0.0137315541505814, -0.0046296454966068, -0.0105634853243828 ]
  - [   0.0162205435335636, -0.0030785985291004, -0.0062762619927526 ]
  - [   0.0162990204989910, -0.0030314400792122, -0.0149914734065533 ]
  - [   0.0137242488563061, -0.0046259686350822, -0.0106039773672819 ]
  - [   0.0137526467442513, -0.0032166652381420, -0.0105742774903774 ]
  - [   0.0130102336406708, -0.0046247318387032, -0.0105696022510529 ]
  - [   0.0193323865532875, -0.0018849857151508, -0.0105948010459542 ]
  - [   0.0220712572336197, -0.0087393429130316, -0.0105668632313609 ]
  - [  -0.0374128371477127, -0.0069510363973677,  0.0002448558807373 ]
  - [   0.0006643416127190,  0.0001702385197859, -0.0000017467027646 ]
  - [   0.0005456251092255,  0.0002568916243035,  0.0000014221632227 ]
  - [   0.0006338128587231, -0.0001197156234412, -0.0000003835984899 ]
  - [   0.0005462638800964,  0.0003209244750906, -0.0000615341414232 ]
  - [  -0.0006218312191777,  0.0003402387083042, -0.0008238309528679 ]
  - [  -0.0006177137838677,  0.0003383256553207,  0.0008135950192809 ]
  - [   0.0005492949858308,  0.0003328453167342,  0.0000745179131627 ]
- atom:   17
  displacement:
    [   0.0054273175219442,  0.0083990609306040,  0.0000000000000000 ]
  forces:
  - [  -0.0125734508037567,  0.0037438273429871,  0.0105804037302732 ]
  - [  -0.0082852467894554,  0.0078344941139221,  0.0105597497895360 ]
  - [  -0.0143005661666393,  0.0039384625852108,  0.0105836885049939 ]
  - [  -0.0128402300179005,  0.0132766626775265,  0.0105859423056245 ]
  - [  -0.0139121189713478,  0.0045093707740307,  0.0106035917997360 ]
  - [  -0.0111550949513912,  0.0058673284947872,  0.0062169488519430 ]
  - [  -0.0112379379570484,  0.0058244839310646,  0.0148249343037605 ]
  - [  -0.0139113366603851,  0.0045036412775517,  0.0105373663827777 ]
  - [   0.0136826485395432, -0.0045577362179756, -0.0106125166639686 ]
  - [   0.0163363441824913, -0.0032749697566032, -0.0062728077173233 ]
  - [   0.0164187178015709, -0.0032298229634762, -0.0149964373558760 ]
  - [   0.0136832594871521, -0.0045497864484787, -0.0105546275153756 ]
  - [   0.0147069580852985,  0.0044668987393379, -0.0105678271502256 ]
  - [   0.0132883563637733, -0.0051314085721970, -0.0105697643011808 ]
  - [   0.0190166085958481, -0.0013628415763378, -0.0105945225805044 ]
  - [   0.0149256810545921, -0.0053132623434067, -0.0105732046067715 ]
  - [  -0.0261434093117714, -0.0270863380283117,  0.0002455052454025 ]
  - [   0.0005046147271059,  0.0003286948194727,  0.0000011897500372 ]
  - [   0.0005121974390931,  0.0004829151439480, -0.0000024672799555 ]
  - [   0.0002437967195874,  0.0005978562403470, -0.0000006348259376 ]
  - [   0.0005661725299433,  0.0002831482852343, -0.0000571765267523 ]
  - [  -0.0000515157298651, -0.0007148511358537,  0.0008199719013646 ]
  - [  -0.0000522140762769, -0.0007161363610066, -0.0008282558992505 ]
  - [   0.0005777630140074,  0.0002793286694214,  0.0000709313899279 ]

force_constants:
  format: "full"
  shape: [ 24, 24 ]
  elements:
  - # (1, 1)
    - [     2.472314676435805,     0.245096964212528,    -0.002631825892848 ]
    - [     0.245096964212528,     2.148044327780477,    -0.001573473139665 ]
    - [    -0.002631825892848,    -0.001573473139665,     2.016324170341517 ]
  - # (1, 2)
    - [    -0.021341394861435,     0.001993748860164,    -0.000237928017124 ]
    - [     0.001993748584214,    -0.055290712112392,     0.000156143762163 ]
    - [    -0.000237927961625,     0.000156143835455,     0.009274399815516 ]
  - # (1, 3)
    - [    -0.043865617428960,     0.015343129949626,    -0.000009185988199 ]
    - [     0.015343129865834,    -0.034454616582726,    -0.000279053955742 ]
    - [    -0.000009185763913,    -0.000279053790591,     0.009051086926964 ]
  - # (1, 4)
    - [    -0.089356261857810,    -0.006123617111581,    -0.000095461371982 ]
    - [    -0.006123616638662,    -0.081688898319769,    -0.000046016787655 ]
    - [    -0.000095461824450,    -0.000046016945550,    -0.078298683664102 ]
  - # (1, 5)
    - [    -0.018926458435849,    -0.015481408414729,    -0.011690262621779 ]
    - [    -0.015481408498522,     0.000776193453713,    -0.006073979645913 ]
    - [    -0.011690262397492,    -0.006073979480763,    -0.049207439772796 ]
  - # (1, 6)
    - [    -0.030246019683994,     0.006502984415954,    -0.018423085065741 ]
    - [     0.006502982071230,    -0.035997312424705,     0.036187434362465 ]
    - [    -0.018423082472356,     0.036187434502077,    -0.040140855886236 ]
  - # (1, 7)
    - [    -0.030446296917676,     0.006644436976848,     0.020556129360145 ]
    - [     0.006644436976848,    -0.035867674262974,    -0.034985622571800 ]
    - [     0.020556129360145,    -0.034985622571800,    -0.040211497391899 ]
  - # (1, 8)
    - [    -0.020055718441403,    -0.015982539597878,     0.010902468498614 ]
    - [    -0.015982539873828,     0.000275794900358,     0.005661830841458 ]
    - [     0.010902468554113,     0.005661830914750,    -0.049489225947057 ]
  - # (1, 9)
    - [    -0.085206860323311,    -0.060488175200960,     0.255454946578820 ]
    - [    -0.060488175476910,    -0.005197465261972,     0.137047676494441 ]
    - [     0.255454946634318,     0.137047676567733,    -0.344690053151507 ]
  - # (1, 10)
    - [    -0.006322942377672,     0.014250682405724,    -0.003512083773531 ]
    - [     0.014250682405724,    -0.026170399326177,     0.005208147480351 ]
    - [    -0.003512083773531,     0.005208147480351,    -0.033601546802341 ]
  - # (1, 11)
    - [    -0.005972355991018,     0.013997939885909,     0.002104139221595 ]
    - [     0.013997938585518,    -0.026567017645464,    -0.006055017060384 ]
    - [     0.002104140267055,    -0.006055016261122,    -0.033616132859828 ]
  - # (1, 12)
    - [    -0.087777578418967,    -0.063786119867947,    -0.266780643687601 ]
    - [    -0.063786119951739,    -0.003372755082507,    -0.143187078160795 ]
    - [    -0.266780643463315,    -0.143187077995645,    -0.357955260154194 ]
  - # (1, 13)
    - [    -0.137093340233772,    -0.074361357392326,    -0.000400964893531 ]
    - [    -0.074361350268246,    -0.042026017571834,    -0.000230414907551 ]
    - [    -0.000400971174024,    -0.000230418270061,    -0.001305237080308 ]
  - # (1, 14)
    - [    -0.413012718789983,     0.252707224838991,     0.001503698397209 ]
    - [     0.252707224755199,    -0.049395809081310,    -0.001174449287361 ]
    - [     0.001503698621495,    -0.001174449122211,     0.027314151537882 ]
  - # (1, 15)
    - [     0.078290743234644,    -0.065357501630360,    -0.000137762223915 ]
    - [    -0.065357501906310,    -0.558300499051018,     0.001909542268268 ]
    - [    -0.000137762168417,     0.001909542341560,     0.030904159757326 ]
  - # (1, 16)
    - [     0.224811953663690,     0.010611154731613,     0.001026829114930 ]
    - [     0.010611154731613,     0.213896388129482,     0.000579187920793 ]
    - [     0.001026829114930,     0.000579187920793,     0.207480057784600 ]
  - # (1, 17)
    - [    -0.817719007968021,     0.388392559304991,    -0.001210619669891 ]
    - [     0.411390229054814,    -0.172441895865986,    -0.000066172640038 ]
    - [    -0.000962380591393,     0.000242535031392,     0.022184719044626 ]
  - # (1, 18)
    - [    -0.567185953066707,    -0.272426623010716,     0.002459091093083 ]
    - [    -0.273248136440598,    -0.208685663322983,     0.001304760156365 ]
    - [     0.001737487411286,     0.000912046926070,    -0.061492522585352 ]
  - # (1, 19)
    - [     0.078518037907876,     0.009501782689602,    -0.000192333145459 ]
    - [     0.008883341836843,     0.065368391470371,    -0.000107595683065 ]
    - [    -0.000735557360705,    -0.000403231302220,     0.060653793633313 ]
  - # (1, 20)
    - [     0.002424738738764,    -0.112734325787031,    -0.000594889770964 ]
    - [    -0.135807485831735,    -0.968512343361518,    -0.000881078103081 ]
    - [    -0.000280843724825,    -0.000876312569627,     0.021856680145122 ]
  - # (1, 21)
    - [     0.007629001400534,     0.008672732189397,     0.002674675596658 ]
    - [     0.009173608862962,    -0.003589626981803,    -0.005156362918335 ]
    - [     0.003114640036968,    -0.004916924122487,    -0.008519682537290 ]
  - # (1, 22)
    - [    -0.252191954837726,    -0.150435077688279,     0.418262706702351 ]
    - [    -0.150070332511785,    -0.060092770647659,     0.228423634711657 ]
    - [     0.438535611203050,     0.239283012157488,    -0.655691445978589 ]
  - # (1, 23)
    - [    -0.244148937453921,    -0.145692738785257,    -0.406917277158183 ]
    - [    -0.145413751267533,    -0.057784925055778,    -0.222148893557034 ]
    - [    -0.427253334057296,    -0.233050104183631,    -0.642297075293341 ]
  - # (1, 24)
    - [     0.006880265706910,     0.009154144025716,    -0.002110361282656 ]
    - [     0.009524976722540,    -0.002924693775826,     0.005486850420457 ]
    - [    -0.001784628577169,     0.005664122077702,    -0.008526559882024 ]
  - # (2, 1)
    - [    -0.021341394861435,     0.001993748584214,    -0.000237927961625 ]
    - [     0.001993748860164,    -0.055290712112392,     0.000156143835455 ]
    - [    -0.000237928017124,     0.000156143762163,     0.009274399815516 ]
  - # (2, 2)
    - [     2.472314677798002,     0.245096962008101,    -0.002631823599085 ]
    - [     0.245096962008101,     2.148044325767385,    -0.001573471263801 ]
    - [    -0.002631823599085,    -0.001573471263801,     2.016324168589033 ]
  - # (2, 3)
    - [    -0.089356252438746,    -0.006123624114914,    -0.000095452755789 ]
    - [    -0.006123623922757,    -0.081688903868816,    -0.000046012054182 ]
    - [    -0.000095452587001,    -0.000046011962324,    -0.078298687534117 ]
  - # (2, 4)
    - [    -0.043865624370640,     0.015343133912612,    -0.000009189094160 ]
    - [     0.015343133427609,    -0.034454614721533,    -0.000279055022564 ]
    - [    -0.000009190701878,    -0.000279055265916,     0.009051087649554 ]
  - # (2, 5)
    - [    -0.030246011491778,     0.006502976949105,    -0.018423076076332 ]
    - [     0.006502977141262,    -0.035997317305460,     0.036187438618969 ]
    - [    -0.018423075907544,     0.036187438710827,    -0.040140859197695 ]
  - # (2, 6)
    - [    -0.018926463953737,    -0.015481406857366,    -0.011690268106450 ]
    - [    -0.015481405205450,     0.000776195313534,    -0.006073981389076 ]
    - [    -0.011690266854762,    -0.006073981283752,    -0.049207438656025 ]
  - # (2, 7)
    - [    -0.020055718441403,    -0.015982539873828,     0.010902468554113 ]
    - [    -0.015982539597878,     0.000275794900358,     0.005661830914750 ]
    - [     0.010902468498614,     0.005661830841458,    -0.049489225947057 ]
  - # (2, 8)
    - [    -0.030446295555479,     0.006644434772420,     0.020556131653909 ]
    - [     0.006644434772420,    -0.035867676276066,    -0.034985620695935 ]
    - [     0.020556131653909,    -0.034985620695935,    -0.040211499144383 ]
  - # (2, 9)
    - [    -0.006322941015475,     0.014250680201297,    -0.003512081479768 ]
    - [     0.014250680201297,    -0.026170401339269,     0.005208149356216 ]
    - [    -0.003512081479768,     0.005208149356216,    -0.033601548554824 ]
  - # (2, 10)
    - [    -0.085206860323311,    -0.060488175476910,     0.255454946634318 ]
    - [    -0.060488175200960,    -0.005197465261972,     0.137047676567733 ]
    - [     0.255454946578820,     0.137047676494441,    -0.344690053151507 ]
  - # (2, 11)
    - [    -0.087777594363744,    -0.063786124977878,    -0.266780666061024 ]
    - [    -0.063786118598641,    -0.003372754421581,    -0.143187075526291 ]
    - [    -0.266780647283014,    -0.143187079435200,    -0.357955266005889 ]
  - # (2, 12)
    - [    -0.005972349247622,     0.013997933930579,     0.002104145967774 ]
    - [     0.013997934122736,    -0.026567021270350,    -0.006055013273673 ]
    - [     0.002104146136562,    -0.006055013181815,    -0.033616135978336 ]
  - # (2, 13)
    - [    -0.413012746637458,     0.252707238255490,     0.001503696033394 ]
    - [     0.252707233787638,    -0.049395813790297,    -0.001174450019264 ]
    - [     0.001503685002526,    -0.001174442313493,     0.027314152005656 ]
  - # (2, 14)
    - [    -0.137093330962162,    -0.074361360636485,    -0.000400959048469 ]
    - [    -0.074361360444328,    -0.042026024216468,    -0.000230411698679 ]
    - [    -0.000400958879681,    -0.000230411606821,    -0.001305239707283 ]
  - # (2, 15)
    - [     0.224811955025887,     0.010611152527186,     0.001026831408693 ]
    - [     0.010611152527186,     0.213896386116390,     0.000579189796658 ]
    - [     0.001026831408693,     0.000579189796658,     0.207480056032117 ]
  - # (2, 16)
    - [     0.078290743234644,    -0.065357501906310,    -0.000137762168417 ]
    - [    -0.065357501630360,    -0.558300499051018,     0.001909542341560 ]
    - [    -0.000137762223915,     0.001909542268268,     0.030904159757326 ]
  - # (2, 17)
    - [    -0.567185953002889,    -0.272426626363045,     0.002459094430574 ]
    - [    -0.273248140047986,    -0.208685667705401,     0.001304764361240 ]
    - [     0.001737490188518,     0.000912050549547,    -0.061492526131145 ]
  - # (2, 18)
    - [    -0.817719006669643,     0.388392560176943,    -0.001210620658119 ]
    - [     0.411390230733724,    -0.172441893496661,    -0.000066174895757 ]
    - [    -0.000962381130361,     0.000242533210487,     0.022184720837936 ]
  - # (2, 19)
    - [     0.002424734169579,    -0.112734298182405,    -0.000594894489571 ]
    - [    -0.135807480630054,    -0.968512317808723,    -0.000881078164038 ]
    - [    -0.000280851130996,    -0.000876336237068,     0.021856679666314 ]
  - # (2, 20)
    - [     0.078518045151204,     0.009501777908179,    -0.000192327471027 ]
    - [     0.008883340132819,     0.065368390371595,    -0.000107594406771 ]
    - [    -0.000735553310170,    -0.000403230531238,     0.060653792949775 ]
  - # (2, 21)
    - [    -0.252191952874398,    -0.150435069199875,     0.418262686869225 ]
    - [    -0.150070310998403,    -0.060092759434594,     0.228423604117578 ]
    - [     0.438535587335013,     0.239283001132096,    -0.655691416038120 ]
  - # (2, 22)
    - [     0.007629011215417,     0.008672725602808,     0.002674683509412 ]
    - [     0.009173605035330,    -0.003589629543964,    -0.005156360312708 ]
    - [     0.003114646698844,    -0.004916922041441,    -0.008519684328997 ]
  - # (2, 23)
    - [     0.006880265770728,     0.009154140673387,    -0.002110357945165 ]
    - [     0.009524973115152,    -0.002924698158244,     0.005486854625332 ]
    - [    -0.001784625799937,     0.005664125701179,    -0.008526563427818 ]
  - # (2, 24)
    - [    -0.244148936155542,    -0.145692737913306,    -0.406917278146412 ]
    - [    -0.145413749588622,    -0.057784922686452,    -0.222148895812752 ]
    - [    -0.427253334596264,    -0.233050106004535,    -0.642297073500031 ]
  - # (3, 1)
    - [    -0.043865617428960,     0.015343129865834,    -0.000009185763913 ]
    - [     0.015343129949626,    -0.034454616582726,    -0.000279053790591 ]
    - [    -0.000009185988199,    -0.000279053955742,     0.009051086926964 ]
  - # (3, 2)
    - [    -0.089356252438746,    -0.006123623922757,    -0.000095452587001 ]
    - [    -0.006123624114914,    -0.081688903868816,    -0.000046011962324 ]
    - [    -0.000095452755789,    -0.000046012054182,    -0.078298687534117 ]
  - # (3, 3)
    - [     2.472314680253407,     0.245096962424869,    -0.002631823333345 ]
    - [     0.245096962424869,     2.148044326975597,    -0.001573472374168 ]
    - [    -0.002631823333345,    -0.001573472374168,     2.016324169732174 ]
  - # (3, 4)
    - [    -0.021341398109717,     0.001993753350970,    -0.000237930870641 ]
    - [     0.001993752201265,    -0.055290708185290,     0.000156141586324 ]
    - [    -0.000237932079848,     0.000156140352371,     0.009274401677992 ]
  - # (3, 5)
    - [    -0.030446293100074,     0.006644435189188,     0.020556131919648 ]
    - [     0.006644435189188,    -0.035867675067854,    -0.034985621806302 ]
    - [     0.020556131919648,    -0.034985621806302,    -0.040211498001242 ]
  - # (3, 6)
    - [    -0.020055720717252,    -0.015982537204926,     0.010902463790635 ]
    - [    -0.015982535676479,     0.000275798224484,     0.005661827067062 ]
    - [     0.010902463951497,     0.005661827786212,    -0.049489222637439 ]
  - # (3, 7)