# Thermal properties / unit cell (natom)

unit:
  temperature:   K
  free_energy:   kJ/mol
  entropy:       J/K/mol
  heat_capacity: J/K/mol

natom: 3    
cutoff_frequency: 0.00000
num_modes: 243000
num_integrated_modes: 238967

zero_point_energy:      11.5102941

thermal_properties:
- temperature:         0.0000000
  free_energy:        11.5102941
  entropy:             0.0000000
  heat_capacity:       0.0000000
  energy:             11.5102941

- temperature:        10.0000000
  free_energy:        11.5075848
  entropy:             0.8497846
  heat_capacity:       1.9364558
  energy:             11.5160826

- temperature:        20.0000000
  free_energy:        11.4855279
  entropy:             3.8883314
  heat_capacity:       7.7594117
  energy:             11.5632945

- temperature:        30.0000000
  free_energy:        11.4259785
  entropy:             8.0981576
  heat_capacity:      13.0728766
  energy:             11.6689232

- temperature:        40.0000000
  free_energy:        11.3233566
  entropy:            12.3986920
  heat_capacity:      16.8050305
  energy:             11.8193042

- temperature:        50.0000000
  free_energy:        11.1787677
  entropy:            16.4801345
  heat_capacity:      19.8482703
  energy:             12.0027744

- temperature:        60.0000000
  free_energy:        10.9944120
  entropy:            20.3653798
  heat_capacity:      22.8940045
  energy:             12.2163348

- temperature:        70.0000000
  free_energy:        10.7718360
  entropy:            24.1367981
  heat_capacity:      26.1583997
  energy:             12.4614119

- temperature:        80.0000000
  free_energy:        10.5118573
  entropy:            27.8527018
  heat_capacity:      29.5916245
  energy:             12.7400734

- temperature:        90.0000000
  free_energy:        10.2148792
  entropy:            31.5387082
  heat_capacity:      33.0608911
  energy:             13.0533629

- temperature:       100.0000000
  free_energy:         9.8811703
  entropy:            35.1981826
  heat_capacity:      36.4406873
  energy:             13.4009886

- temperature:       110.0000000
  free_energy:         9.5110301
  entropy:            38.8231589
  heat_capacity:      39.6420518
  energy:             13.7815776

- temperature:       120.0000000
  free_energy:         9.1048621
  entropy:            42.4016549
  heat_capacity:      42.6137192
  energy:             14.1930607

- temperature:       130.0000000
  free_energy:         8.6631921
  entropy:            45.9216855
  heat_capacity:      45.3338204
  energy:             14.6330112

- temperature:       140.0000000
  free_energy:         8.1866574
  entropy:            49.3730955
  heat_capacity:      47.8004242
  energy:             15.0988908

- temperature:       150.0000000
  free_energy:         7.6759850
  entropy:            52.7481545
  heat_capacity:      50.0237753
  energy:             15.5882082

- temperature:       160.0000000
  free_energy:         7.1319669
  entropy:            56.0415282
  heat_capacity:      52.0207355
  energy:             16.0986114

- temperature:       170.0000000
  free_energy:         6.5554377
  entropy:            59.2499796
  heat_capacity:      53.8111154
  energy:             16.6279342

- temperature:       180.0000000
  free_energy:         5.9472556
  entropy:            62.3719882
  heat_capacity:      55.4154014
  energy:             17.1742134

- temperature:       190.0000000
  free_energy:         5.3082868
  entropy:            65.4073761
  heat_capacity:      56.8534365
  energy:             17.7356882

- temperature:       200.0000000
  free_energy:         4.6393941
  entropy:            68.3569789
  heat_capacity:      58.1437193
  energy:             18.3107899

- temperature:       210.0000000
  free_energy:         3.9414279
  entropy:            71.2223738
  heat_capacity:      59.3030893
  energy:             18.8981264

- temperature:       220.0000000
  free_energy:         3.2152203
  entropy:            74.0056611
  heat_capacity:      60.3466419
  energy:             19.4964658

- temperature:       230.0000000
  free_energy:         2.4615803
  entropy:            76.7092947
  heat_capacity:      61.2877741
  energy:             20.1047180

- temperature:       240.0000000
  free_energy:         1.6812910
  entropy:            79.3359515
  heat_capacity:      62.1382998
  energy:             20.7219194

- temperature:       250.0000000
  free_energy:         0.8751085
  entropy:            81.8884331
  heat_capacity:      62.9085949
  energy:             21.3472168

- temperature:       260.0000000
  free_energy:         0.0437601
  entropy:            84.3695930
  heat_capacity:      63.6077516
  energy:             21.9798543

- temperature:       270.0000000
  free_energy:        -0.8120551
  entropy:            86.7822831
  heat_capacity:      64.2437288
  energy:             22.6191613

- temperature:       280.0000000
  free_energy:        -1.6916667
  entropy:            89.1293153
  heat_capacity:      64.8234925
  energy:             23.2645416

- temperature:       290.0000000
  free_energy:        -2.5944317
  entropy:            91.4134342
  heat_capacity:      65.3531424
  energy:             23.9154642

- temperature:       300.0000000
  free_energy:        -3.5197345
  entropy:            93.6372994
  heat_capacity:      65.8380247
  energy:             24.5714553

- temperature:       310.0000000
  free_energy:        -4.4669854
  entropy:            95.8034729
  heat_capacity:      66.2828316
  energy:             25.2320912

- temperature:       320.0000000
  free_energy:        -5.4356199
  entropy:            97.9144126
  heat_capacity:      66.6916875
  energy:             25.8969921

- temperature:       330.0000000
  free_energy:        -6.4250974
  entropy:            99.9724686
  heat_capacity:      67.0682240
  energy:             26.5658172

- temperature:       340.0000000
  free_energy:        -7.4349005
  entropy:           101.9798826
  heat_capacity:      67.4156449
  energy:             27.2382596

- temperature:       350.0000000
  free_energy:        -8.4645334
  entropy:           103.9387884
  heat_capacity:      67.7367820
  energy:             27.9140425

- temperature:       360.0000000
  free_energy:        -9.5135213
  entropy:           105.8512148
  heat_capacity:      68.0341432
  energy:             28.5929160

- temperature:       370.0000000
  free_energy:       -10.5814092
  entropy:           107.7190886
  heat_capacity:      68.3099543
  energy:             29.2746536

- temperature:       380.0000000
  free_energy:       -11.6677607
  entropy:           109.5442384
  heat_capacity:      68.5661945
  energy:             29.9590499

- temperature:       390.0000000
  free_energy:       -12.7721573
  entropy:           111.3283987
  heat_capacity:      68.8046274
  energy:             30.6459182

- temperature:       400.0000000
  free_energy:       -13.8941975
  entropy:           113.0732147
  heat_capacity:      69.0268276
  energy:             31.3350883

- temperature:       410.0000000
  free_energy:       -15.0334957
  entropy:           114.7802464
  heat_capacity:      69.2342039
  energy:             32.0264053

- temperature:       420.0000000
  free_energy:       -16.1896815
  entropy:           116.4509731
  heat_capacity:      69.4280191
  energy:             32.7197272

- temperature:       430.0000000
  free_energy:       -17.3623988
  entropy:           118.0867979
  heat_capacity:      69.6094071
  energy:             33.4149243

- temperature:       440.0000000
  free_energy:       -18.5513055
  entropy:           119.6890520
  heat_capacity:      69.7793885
  energy:             34.1118774

- temperature:       450.0000000
  free_energy:       -19.7560722
  entropy:           121.2589984
  heat_capacity:      69.9388831
  energy:             34.8104771

- temperature:       460.0000000
  free_energy:       -20.9763818
  entropy:           122.7978362
  heat_capacity:      70.0887216
  energy:             35.5106228

- temperature:       470.0000000
  free_energy:       -22.2119290
  entropy:           124.3067040
  heat_capacity:      70.2296557
  energy:             36.2122219

- temperature:       480.0000000
  free_energy:       -23.4624196
  entropy:           125.7866836
  heat_capacity:      70.3623662
  energy:             36.9151886

- temperature:       490.0000000
  free_energy:       -24.7275698
  entropy:           127.2388034
  heat_capacity:      70.4874715
  energy:             37.6194438

- temperature:       500.0000000
  free_energy:       -26.0071061
  entropy:           128.6640411
  heat_capacity:      70.6055336
  energy:             38.3249145

- temperature:       510.0000000
  free_energy:       -27.3007641
  entropy:           130.0633273
  heat_capacity:      70.7170644
  energy:             39.0315327

- temperature:       520.0000000
  free_energy:       -28.6082891
  entropy:           131.4375474
  heat_capacity:      70.8225306
  energy:             39.7392356

- temperature:       530.0000000
  free_energy:       -29.9294344
  entropy:           132.7875452
  heat_capacity:      70.9223587
  energy:             40.4479646

- temperature:       540.0000000
  free_energy:       -31.2639619
  entropy:           134.1141244
  heat_capacity:      71.0169388
  energy:             41.1576653

- temperature:       550.0000000
  free_energy:       -32.6116413
  entropy:           135.4180516
  heat_capacity:      71.1066282
  energy:             41.8682870

- temperature:       560.0000000
  free_energy:       -33.9722499
  entropy:           136.7000580
  heat_capacity:      71.1917546
  energy:             42.5797826

- temperature:       570.0000000
  free_energy:       -35.3455718
  entropy:           137.9608416
  heat_capacity:      71.2726192
  energy:             43.2921079

- temperature:       580.0000000
  free_energy:       -36.7313982
  entropy:           139.2010688
  heat_capacity:      71.3494988
  energy:             44.0052217

- temperature:       590.0000000
  free_energy:       -38.1295267
  entropy:           140.4213767
  heat_capacity:      71.4226485
  energy:             44.7190855

- temperature:       600.0000000
  free_energy:       -39.5397613
  entropy:           141.6223740
  heat_capacity:      71.4923034
  energy:             45.4336631

- temperature:       610.0000000
  free_energy:       -40.9619118
  entropy:           142.8046433
  heat_capacity:      71.5586806
  energy:             46.1489206

- temperature:       620.0000000
  free_energy:       -42.3957936
  entropy:           143.9687420
  heat_capacity:      71.6219808
  energy:             46.8648264

- temperature:       630.0000000
  free_energy:       -43.8412279
  entropy:           145.1152039
  heat_capacity:      71.6823896
  energy:             47.5813506

- temperature:       640.0000000
  free_energy:       -45.2980406
  entropy:           146.2445403
  heat_capacity:      71.7400790
  energy:             48.2984651

- temperature:       650.0000000
  free_energy:       -46.7660632
  entropy:           147.3572413
  heat_capacity:      71.7952086
  energy:             49.0161437

- temperature:       660.0000000
  free_energy:       -48.2451316
  entropy:           148.4537771
  heat_capacity:      71.8479263
  energy:             49.7343613

- temperature:       670.0000000
  free_energy:       -49.7350864
  entropy:           149.5345985
  heat_capacity:      71.8983698
  energy:             50.4530946

- temperature:       680.0000000
  free_energy:       -51.2357726
  entropy:           150.6001384
  heat_capacity:      71.9466671
  energy:             51.1723215

- temperature:       690.0000000
  free_energy:       -52.7470396
  entropy:           151.6508127
  heat_capacity:      71.9929374
  energy:             51.8920212

- temperature:       700.0000000
  free_energy:       -54.2687407
  entropy:           152.6870208
  heat_capacity:      72.0372917
  energy:             52.6121739

- temperature:       710.0000000
  free_energy:       -55.8007331
  entropy:           153.7091466
  heat_capacity:      72.0798337
  energy:             53.3327610

- temperature:       720.0000000
  free_energy:       -57.3428779
  entropy:           154.7175593
  heat_capacity:      72.1206601
  energy:             54.0537648

- temperature:       730.0000000
  free_energy:       -58.8950397
  entropy:           155.7126144
  heat_capacity:      72.1598615
  energy:             54.7751688

- temperature:       740.0000000
  free_energy:       -60.4570868
  entropy:           156.6946537
  heat_capacity:      72.1975223
  energy:             55.4969569

- temperature:       750.0000000
  free_energy:       -62.0288905
  entropy:           157.6640065
  heat_capacity:      72.2337218
  energy:             56.2191143

- temperature:       760.0000000
  free_energy:       -63.6103257
  entropy:           158.6209900
  heat_capacity:      72.2685341
  energy:             56.9416267

- temperature:       770.0000000
  free_energy:       -65.2012701
  entropy:           159.5659101
  heat_capacity:      72.3020289
  energy:             57.6644806

- temperature:       780.0000000
  free_energy:       -66.8016047
  entropy:           160.4990613
  heat_capacity:      72.3342715
  energy:             58.3876632

- temperature:       790.0000000
  free_energy:       -68.4112131
  entropy:           161.4207280
  heat_capacity:      72.3653231
  energy:             59.1111621

- temperature:       800.0000000
  free_energy:       -70.0299818
  entropy:           162.3311846
  heat_capacity:      72.3952414
  energy:             59.8349658

- temperature:       810.0000000
  free_energy:       -71.6578003
  entropy:           163.2306958
  heat_capacity:      72.4240806
  energy:             60.5590633

- temperature:       820.0000000
  free_energy:       -73.2945601
  entropy:           164.1195173
  heat_capacity:      72.4518917
  energy:             61.2834440

- temperature:       830.0000000
  free_energy:       -74.9401558
  entropy:           164.9978960
  heat_capacity:      72.4787228
  energy:             62.0080979

- temperature:       840.0000000
  free_energy:       -76.5944840
  entropy:           165.8660707
  heat_capacity:      72.5046191
  energy:             62.7330154

- temperature:       850.0000000
  free_energy:       -78.2574440
  entropy:           166.7242721
  heat_capacity:      72.5296235
  energy:             63.4581873

- temperature:       860.0000000
  free_energy:       -79.9289370
  entropy:           167.5727232
  heat_capacity:      72.5537761
  energy:             64.1836050

- temperature:       870.0000000
  free_energy:       -81.6088667
  entropy:           168.4116400
  heat_capacity:      72.5771151
  energy:             64.9092601

- temperature:       880.0000000
  free_energy:       -83.2971387
  entropy:           169.2412311
  heat_capacity:      72.5996765
  energy:             65.6351447

- temperature:       890.0000000
  free_energy:       -84.9936609
  entropy:           170.0616989
  heat_capacity:      72.6214943
  energy:             66.3612512

- temperature:       900.0000000
  free_energy:       -86.6983429
  entropy:           170.8732390
  heat_capacity:      72.6426007
  energy:             67.0875722

- temperature:       910.0000000
  free_energy:       -88.4110965
  entropy:           171.6760411
  heat_capacity:      72.6630260
  energy:             67.8141009

- temperature:       920.0000000
  free_energy:       -90.1318352
  entropy:           172.4702889
  heat_capacity:      72.6827994
  energy:             68.5408306

- temperature:       930.0000000
  free_energy:       -91.8604744
  entropy:           173.2561604
  heat_capacity:      72.7019479
  energy:             69.2677548

- temperature:       940.0000000
  free_energy:       -93.5969311
  entropy:           174.0338283
  heat_capacity:      72.7204977
  energy:             69.9948675

- temperature:       950.0000000
  free_energy:       -95.3411242
  entropy:           174.8034600
  heat_capacity:      72.7384734
  energy:             70.7221628

- temperature:       960.0000000
  free_energy:       -97.0929740
  entropy:           175.5652179
  heat_capacity:      72.7558982
  energy:             71.4496352

- temperature:       970.0000000
  free_energy:       -98.8524028
  entropy:           176.3192596
  heat_capacity:      72.7727944
  energy:             72.1772791

- temperature:       980.0000000
  free_energy:      -100.6193340
  entropy:           177.0657381
  heat_capacity:      72.7891831
  energy:             72.9050894

- temperature:       990.0000000
  free_energy:      -102.3936928
  entropy:           177.8048020
  heat_capacity:      72.8050844
  energy:             73.6330611

- temperature:      1000.0000000
  free_energy:      -104.1754058
  entropy:           178.5365953
  heat_capacity:      72.8205172
  energy:             74.3611895
