# Thermal properties / unit cell (natom)

unit:
  temperature:   K
  free_energy:   kJ/mol
  entropy:       J/K/mol
  heat_capacity: J/K/mol

natom: 20   
cutoff_frequency: 0.00000
num_modes: 110880
num_integrated_modes: 110871

zero_point_energy:      16.9693795

thermal_properties:
- temperature:         0.0000000
  free_energy:        16.9693795
  entropy:             0.0000000
  heat_capacity:       0.0000000
  energy:             16.9693795

- temperature:        10.0000000
  free_energy:        16.9078584
  entropy:            24.0586807
  heat_capacity:      65.2338837
  energy:             17.1484452

- temperature:        20.0000000
  free_energy:        16.2353963
  entropy:           117.8428247
  heat_capacity:     220.8906203
  energy:             18.5922528

- temperature:        30.0000000
  free_energy:        14.4963030
  entropy:           229.7141501
  heat_capacity:     328.3766122
  energy:             21.3877275

- temperature:        40.0000000
  free_energy:        11.6709513
  entropy:           333.2848383
  heat_capacity:     388.7257113
  energy:             25.0023448

- temperature:        50.0000000
  free_energy:         7.8736957
  entropy:           424.0733011
  heat_capacity:     423.2503133
  energy:             29.0773607

- temperature:        60.0000000
  free_energy:         3.2282749
  entropy:           503.2418874
  heat_capacity:     444.2089694
  energy:             33.4227882

- temperature:        70.0000000
  free_energy:        -2.1591437
  entropy:           572.8012697
  heat_capacity:     457.6961825
  energy:             37.9369452

- temperature:        80.0000000
  free_energy:        -8.2017602
  entropy:           634.5508980
  heat_capacity:     466.8185859
  energy:             42.5623116

- temperature:        90.0000000
  free_energy:       -14.8289500
  entropy:           689.9263192
  heat_capacity:     473.2488580
  energy:             47.2644188

- temperature:       100.0000000
  free_energy:       -21.9827854
  entropy:           740.0431472
  heat_capacity:     477.9391576
  energy:             52.0215293

- temperature:       110.0000000
  free_energy:       -29.6151948
  entropy:           785.7683548
  heat_capacity:     481.4593313
  energy:             56.8193243

- temperature:       120.0000000
  free_energy:       -37.6857953
  entropy:           827.7817637
  heat_capacity:     484.1656137
  energy:             61.6480164

- temperature:       130.0000000
  free_energy:       -46.1602673
  entropy:           866.6228449
  heat_capacity:     486.2892456
  energy:             66.5007026

- temperature:       140.0000000
  free_energy:       -55.0091316
  entropy:           902.7250917
  heat_capacity:     487.9852983
  energy:             71.3723812

- temperature:       150.0000000
  free_energy:       -64.2068219
  entropy:           936.4411008
  heat_capacity:     489.3607487
  energy:             76.2593433

- temperature:       160.0000000
  free_energy:       -73.7309719
  entropy:           968.0609614
  heat_capacity:     490.4912445
  energy:             81.1587820

- temperature:       170.0000000
  free_energy:       -83.5618622
  entropy:           997.8258684
  heat_capacity:     491.4314569
  energy:             86.0685354

- temperature:       180.0000000
  free_energy:       -93.6819845
  entropy:          1025.9383147
  heat_capacity:     492.2216674
  energy:             90.9869122

- temperature:       190.0000000
  free_energy:      -104.0756948
  entropy:          1052.5698157
  heat_capacity:     492.8920696
  energy:             95.9125702

- temperature:       200.0000000
  free_energy:      -114.7289347
  entropy:          1077.8668308
  heat_capacity:     493.4656467
  energy:            100.8444314

- temperature:       210.0000000
  free_energy:      -125.6290049
  entropy:          1101.9553567
  heat_capacity:     493.9601382
  energy:            105.7816200

- temperature:       220.0000000
  free_energy:      -136.7643789
  entropy:          1124.9445273
  heat_capacity:     494.3894088
  energy:            110.7234171

- temperature:       230.0000000
  free_energy:      -148.1245493
  entropy:          1146.9294646
  heat_capacity:     494.7644195
  energy:            115.6692275

- temperature:       240.0000000
  free_energy:      -159.6998998
  entropy:          1167.9935575
  heat_capacity:     495.0939263
  energy:            120.6185540

- temperature:       250.0000000
  free_energy:      -171.4815969
  entropy:          1188.2102998
  heat_capacity:     495.3849908
  energy:            125.5709780

- temperature:       260.0000000
  free_energy:      -183.4614991
  entropy:          1207.6447846
  heat_capacity:     495.6433586
  energy:            130.5261449

- temperature:       270.0000000
  free_energy:      -195.6320788
  entropy:          1226.3549291
  heat_capacity:     495.8737422
  energy:            135.4837520

- temperature:       280.0000000
  free_energy:      -207.9863563
  entropy:          1244.3924851
  heat_capacity:     496.0800358
  energy:            140.4435395

- temperature:       290.0000000
  free_energy:      -220.5178418
  entropy:          1261.8038798
  heat_capacity:     496.2654802
  energy:            145.4052833

- temperature:       300.0000000
  free_energy:      -233.2204865
  entropy:          1278.6309174
  heat_capacity:     496.4327895
  energy:            150.3687887

- temperature:       310.0000000
  free_energy:      -246.0886386
  entropy:          1294.9113707
  heat_capacity:     496.5842508
  energy:            155.3338863

- temperature:       320.0000000
  free_energy:      -259.1170064
  entropy:          1310.6794808
  heat_capacity:     496.7218020
  energy:            160.3004274

- temperature:       330.0000000
  free_energy:      -272.3006245
  entropy:          1325.9663819
  heat_capacity:     496.8470940
  energy:            165.2682815

- temperature:       340.0000000
  free_energy:      -285.6348249
  entropy:          1340.8004650
  heat_capacity:     496.9615399
  energy:            170.2373332

- temperature:       350.0000000
  free_energy:      -299.1152112
  entropy:          1355.2076897
  heat_capacity:     497.0663553
  energy:            175.2074802

- temperature:       360.0000000
  free_energy:      -312.7376354
  entropy:          1369.2118531
  heat_capacity:     497.1625902
  energy:            180.1786317

- temperature:       370.0000000
  free_energy:      -326.4981778
  entropy:          1382.8348223
  heat_capacity:     497.2511556
  energy:            185.1507065

- temperature:       380.0000000
  free_energy:      -340.3931285
  entropy:          1396.0967379
  heat_capacity:     497.3328445
  energy:            190.1236319

- temperature:       390.0000000
  free_energy:      -354.4189712
  entropy:          1409.0161895
  heat_capacity:     497.4083503
  energy:            195.0973428

- temperature:       400.0000000
  free_energy:      -368.5723682
  entropy:          1421.6103713
  heat_capacity:     497.4782812
  energy:            200.0717803

- temperature:       410.0000000
  free_energy:      -382.8501476
  entropy:          1433.8952175
  heat_capacity:     497.5431725
  energy:            205.0468916

- temperature:       420.0000000
  free_energy:      -397.2492909
  entropy:          1445.8855224
  heat_capacity:     497.6034967
  energy:            210.0226286

- temperature:       430.0000000
  free_energy:      -411.7669222
  entropy:          1457.5950463
  heat_capacity:     497.6596722
  energy:            214.9989477

- temperature:       440.0000000
  free_energy:      -426.4002987
  entropy:          1469.0366093
  heat_capacity:     497.7120707
  energy:            219.9758094

- temperature:       450.0000000
  free_energy:      -441.1468012
  entropy:          1480.2221751
  heat_capacity:     497.7610233
  energy:            224.9531776

- temperature:       460.0000000
  free_energy:      -456.0039262
  entropy:          1491.1629252
  heat_capacity:     497.8068253
  energy:            229.9310194

- temperature:       470.0000000
  free_energy:      -470.9692786
  entropy:          1501.8693257
  heat_capacity:     497.8497413
  energy:            234.9093045

- temperature:       480.0000000
  free_energy:      -486.0405643
  entropy:          1512.3511869
  heat_capacity:     497.8900087
  energy:            239.8880054

- temperature:       490.0000000
  free_energy:      -501.2155846
  entropy:          1522.6177167
  heat_capacity:     497.9278409
  energy:            244.8670966

- temperature:       500.0000000
  free_energy:      -516.4922298
  entropy:          1532.6775691
  heat_capacity:     497.9634303
  energy:            249.8465547

- temperature:       510.0000000
  free_energy:      -531.8684743
  entropy:          1542.5388874
  heat_capacity:     497.9969507
  energy:            254.8263583

- temperature:       520.0000000
  free_energy:      -547.3423714
  entropy:          1552.2093438
  heat_capacity:     498.0285593
  energy:            259.8064874

- temperature:       530.0000000
  free_energy:      -562.9120491
  entropy:          1561.6961749
  heat_capacity:     498.0583987
  energy:            264.7869236

- temperature:       540.0000000
  free_energy:      -578.5757056
  entropy:          1571.0062139
  heat_capacity:     498.0865984
  energy:            269.7676499

- temperature:       550.0000000
  free_energy:      -594.3316056
  entropy:          1580.1459202
  heat_capacity:     498.1132765
  energy:            274.7486505

- temperature:       560.0000000
  free_energy:      -610.1780767
  entropy:          1589.1214060
  heat_capacity:     498.1385404
  energy:            279.7299107

- temperature:       570.0000000
  free_energy:      -626.1135057
  entropy:          1597.9384607
  heat_capacity:     498.1624882
  energy:            284.7114169

- temperature:       580.0000000
  free_energy:      -642.1363361
  entropy:          1606.6025732
  heat_capacity:     498.1852098
  energy:            289.6931564

- temperature:       590.0000000
  free_energy:      -658.2450647
  entropy:          1615.1189526
  heat_capacity:     498.2067876
  energy:            294.6751173

- temperature:       600.0000000
  free_energy:      -674.4382392
  entropy:          1623.4925463
  heat_capacity:     498.2272968
  energy:            299.6572886

- temperature:       610.0000000
  free_energy:      -690.7144554
  entropy:          1631.7280579
  heat_capacity:     498.2468070
  energy:            304.6396599

- temperature:       620.0000000
  free_energy:      -707.0723550
  entropy:          1639.8299623
  heat_capacity:     498.2653820
  energy:            309.6222216

- temperature:       630.0000000
  free_energy:      -723.5106235
  entropy:          1647.8025209
  heat_capacity:     498.2830806
  energy:            314.6049646

- temperature:       640.0000000
  free_energy:      -740.0279879
  entropy:          1655.6497943
  heat_capacity:     498.2999570
  energy:            319.5878805

- temperature:       650.0000000
  free_energy:      -756.6232147
  entropy:          1663.3756552
  heat_capacity:     498.3160614
  energy:            324.5709612

- temperature:       660.0000000
  free_energy:      -773.2951086
  entropy:          1670.9837998
  heat_capacity:     498.3314401
  energy:            329.5541993

- temperature:       670.0000000
  free_energy:      -790.0425101
  entropy:          1678.4777579
  heat_capacity:     498.3461361
  energy:            334.5375877

- temperature:       680.0000000
  free_energy:      -806.8642944
  entropy:          1685.8609033
  heat_capacity:     498.3601893
  energy:            339.5211198

- temperature:       690.0000000
  free_energy:      -823.7593696
  entropy:          1693.1364624
  heat_capacity:     498.3736364
  energy:            344.5047895

- temperature:       700.0000000
  free_energy:      -840.7266753
  entropy:          1700.3075229
  heat_capacity:     498.3865120
  energy:            349.4885907

- temperature:       710.0000000
  free_energy:      -857.7651816
  entropy:          1707.3770415
  heat_capacity:     498.3988478
  energy:            354.4725179

- temperature:       720.0000000
  free_energy:      -874.8738872
  entropy:          1714.3478515
  heat_capacity:     498.4106738
  energy:            359.4565659

- temperature:       730.0000000
  free_energy:      -892.0518186
  entropy:          1721.2226691
  heat_capacity:     498.4220175
  energy:            364.4407298

- temperature:       740.0000000
  free_energy:      -909.2980293
  entropy:          1728.0041000
  heat_capacity:     498.4329048
  energy:            369.4250048

- temperature:       750.0000000
  free_energy:      -926.6115977
  entropy:          1734.6946455
  heat_capacity:     498.4433600
  energy:            374.4093864

- temperature:       760.0000000
  free_energy:      -943.9916272
  entropy:          1741.2967077
  heat_capacity:     498.4534054
  energy:            379.3938706

- temperature:       770.0000000
  free_energy:      -961.4372446
  entropy:          1747.8125946
  heat_capacity:     498.4630624
  energy:            384.3784532

- temperature:       780.0000000
  free_energy:      -978.9475993
  entropy:          1754.2445255
  heat_capacity:     498.4723506
  energy:            389.3631306

- temperature:       790.0000000
  free_energy:      -996.5218624
  entropy:          1760.5946348
  heat_capacity:     498.4812887
  energy:            394.3478991

- temperature:       800.0000000
  free_energy:     -1014.1592261
  entropy:          1766.8649767
  heat_capacity:     498.4898939
  energy:            399.3327553

- temperature:       810.0000000
  free_energy:     -1031.8589026
  entropy:          1773.0575291
  heat_capacity:     498.4981825
  energy:            404.3176959

- temperature:       820.0000000
  free_energy:     -1049.6201237
  entropy:          1779.1741971
  heat_capacity:     498.5061700
  energy:            409.3027179

- temperature:       830.0000000
  free_energy:     -1067.4421398
  entropy:          1785.2168170
  heat_capacity:     498.5138708
  energy:            414.2878184

- temperature:       840.0000000
  free_energy:     -1085.3242192
  entropy:          1791.1871590
  heat_capacity:     498.5212983
  energy:            419.2729944

- temperature:       850.0000000
  free_energy:     -1103.2656477
  entropy:          1797.0869308
  heat_capacity:     498.5284655
  energy:            424.2582435

- temperature:       860.0000000
  free_energy:     -1121.2657280
  entropy:          1802.9177802
  heat_capacity:     498.5353842
  energy:            429.2435629

- temperature:       870.0000000
  free_energy:     -1139.3237789
  entropy:          1808.6812980
  heat_capacity:     498.5420659
  energy:            434.2289504

- temperature:       880.0000000
  free_energy:     -1157.4391347
  entropy:          1814.3790206
  heat_capacity:     498.5485212
  energy:            439.2144035

- temperature:       890.0000000
  free_energy:     -1175.6111449
  entropy:          1820.0124326
  heat_capacity:     498.5547603
  energy:            444.1999201

- temperature:       900.0000000
  free_energy:     -1193.8391738
  entropy:          1825.5829686
  heat_capacity:     498.5607927
  energy:            449.1854980

- temperature:       910.0000000
  free_energy:     -1212.1225994
  entropy:          1831.0920161
  heat_capacity:     498.5666274
  energy:            454.1711353

- temperature:       920.0000000
  free_energy:     -1230.4608136
  entropy:          1836.5409169
  heat_capacity:     498.5722730
  energy:            459.1568299

- temperature:       930.0000000
  free_energy:     -1248.8532215
  entropy:          1841.9309695
  heat_capacity:     498.5777376
  energy:            464.1425801

- temperature:       940.0000000
  free_energy:     -1267.2992410
  entropy:          1847.2634310
  heat_capacity:     498.5830288
  energy:            469.1283841

- temperature:       950.0000000
  free_energy:     -1285.7983022
  entropy:          1852.5395183
  heat_capacity:     498.5881539
  energy:            474.1142401

- temperature:       960.0000000
  free_energy:     -1304.3498474
  entropy:          1857.7604105
  heat_capacity:     498.5931197
  energy:            479.1001466

- temperature:       970.0000000
  free_energy:     -1322.9533303
  entropy:          1862.9272498
  heat_capacity:     498.5979328
  energy:            484.0861020

- temperature:       980.0000000
  free_energy:     -1341.6082159
  entropy:          1868.0411436
  heat_capacity:     498.6025995
  energy:            489.0721048

- temperature:       990.0000000
  free_energy:     -1360.3139803
  entropy:          1873.1031654
  heat_capacity:     498.6071255
  energy:            494.0581535

- temperature:      1000.0000000
  free_energy:     -1379.0701098
  entropy:          1878.1143567
  heat_capacity:     498.6115164
  energy:            499.0442469
