phonopy:
  version: "2.37.1"
  frequency_unit_conversion_factor: 15.633302
  symmetry_tolerance: 1.00000e-05

space_group:
  type: "P4/mbm"
  number: 127
  Hall_symbol: "-P 4 2ab"

primitive_matrix:
- [  1.000000000000000,  0.000000000000000,  0.000000000000000 ]
- [  0.000000000000000,  1.000000000000000,  0.000000000000000 ]
- [  0.000000000000000,  0.000000000000000,  1.000000000000000 ]

supercell_matrix:
- [   1,   0,   0 ]
- [   0,   1,   0 ]
- [   0,   0,   4 ]

primitive_cell:
  lattice:
  - [    10.405808229029596,     0.000000000000000,     0.000000000000000 ] # a
  - [     0.000000166878253,    10.405808189399126,     0.000000000000000 ] # b
  - [    -0.000000009423820,     0.000000018490232,     3.155695104447550 ] # c
  points:
  - symbol: Li # 1
    coordinates: [  0.174059988013096,  0.674059987588000,  0.500000000704506 ]
    mass: 6.940000
  - symbol: Li # 2
    coordinates: [  0.825940010531841,  0.325940011568692,  0.500000000932623 ]
    mass: 6.940000
  - symbol: Li # 3
    coordinates: [  0.325940011753448,  0.174059987884919,  0.500000000908427 ]
    mass: 6.940000
  - symbol: Li # 4
    coordinates: [  0.674059988297210,  0.825940011506133,  0.500000000836208 ]
    mass: 6.940000
  - symbol: Sn # 5
    coordinates: [  0.068865555104362,  0.204987693922503,  0.999999999521841 ]
    mass: 118.710000
  - symbol: Sn # 6
    coordinates: [  0.931134445857638,  0.795012307152499,  0.999999999629626 ]
    mass: 118.710000
  - symbol: Sn # 7
    coordinates: [  0.795012305576447,  0.068865554492842,  0.999999999549241 ]
    mass: 118.710000
  - symbol: Sn # 8
    coordinates: [  0.204987694924330,  0.931134445789644,  0.999999999722006 ]
    mass: 118.710000
  - symbol: Sn # 9
    coordinates: [  0.568865554720046,  0.295012305582520,  0.999999999382325 ]
    mass: 118.710000
  - symbol: Sn # 10
    coordinates: [  0.431134446016666,  0.704987693524912,  0.999999999676844 ]
    mass: 118.710000
  - symbol: Sn # 11
    coordinates: [  0.295012305637412,  0.431134446915933,  0.999999999597801 ]
    mass: 118.710000
  - symbol: Sn # 12
    coordinates: [  0.704987692898787,  0.568865552351435,  0.999999999888954 ]
    mass: 118.710000
  - symbol: Sn # 13
    coordinates: [  0.000000001147554,  0.500000000674307,  0.999999999879168 ]
    mass: 118.710000
  - symbol: Sn # 14
    coordinates: [  0.499999999517751,  0.000000001078180,  0.999999999801752 ]
    mass: 118.710000
  reciprocal_lattice: # without 2pi
  - [     0.096100175785505,    -0.000000001541161,     0.000000000286983 ] # a*
  - [     0.000000000000000,     0.096100176151502,    -0.000000000563082 ] # b*
  - [     0.000000000000000,     0.000000000000000,     0.316887394663264 ] # c*

unit_cell:
  lattice:
  - [    10.405808229029594,     0.000000000000000,     0.000000000000000 ] # a
  - [     0.000000166878253,    10.405808189399124,     0.000000000000000 ] # b
  - [    -0.000000009423820,     0.000000018490232,     3.155695104447549 ] # c
  points:
  - symbol: Li # 1
    coordinates: [  0.174059988013096,  0.674059987588000,  0.500000000704506 ]
    mass: 6.940000
    reduced_to: 1
  - symbol: Li # 2
    coordinates: [  0.825940010531841,  0.325940011568692,  0.500000000932623 ]
    mass: 6.940000
    reduced_to: 2
  - symbol: Li # 3
    coordinates: [  0.325940011753448,  0.174059987884919,  0.500000000908427 ]
    mass: 6.940000
    reduced_to: 3
  - symbol: Li # 4
    coordinates: [  0.674059988297210,  0.825940011506133,  0.500000000836208 ]
    mass: 6.940000
    reduced_to: 4
  - symbol: Sn # 5
    coordinates: [  0.068865555104362,  0.204987693922503,  0.999999999521841 ]
    mass: 118.710000
    reduced_to: 5
  - symbol: Sn # 6
    coordinates: [  0.931134445857639,  0.795012307152499,  0.999999999629626 ]
    mass: 118.710000
    reduced_to: 6
  - symbol: Sn # 7
    coordinates: [  0.795012305576447,  0.068865554492842,  0.999999999549241 ]
    mass: 118.710000
    reduced_to: 7
  - symbol: Sn # 8
    coordinates: [  0.204987694924330,  0.931134445789644,  0.999999999722006 ]
    mass: 118.710000
    reduced_to: 8
  - symbol: Sn # 9
    coordinates: [  0.568865554720046,  0.295012305582521,  0.999999999382326 ]
    mass: 118.710000
    reduced_to: 9
  - symbol: Sn # 10
    coordinates: [  0.431134446016666,  0.704987693524912,  0.999999999676844 ]
    mass: 118.710000
    reduced_to: 10
  - symbol: Sn # 11
    coordinates: [  0.295012305637412,  0.431134446915933,  0.999999999597801 ]
    mass: 118.710000
    reduced_to: 11
  - symbol: Sn # 12
    coordinates: [  0.704987692898787,  0.568865552351435,  0.999999999888954 ]
    mass: 118.710000
    reduced_to: 12
  - symbol: Sn # 13
    coordinates: [  0.000000001147554,  0.500000000674307,  0.999999999879168 ]
    mass: 118.710000
    reduced_to: 13
  - symbol: Sn # 14
    coordinates: [  0.499999999517751,  0.000000001078180,  0.999999999801753 ]
    mass: 118.710000
    reduced_to: 14

supercell:
  lattice:
  - [    10.405808229029594,     0.000000000000000,     0.000000000000000 ] # a
  - [     0.000000166878253,    10.405808189399124,     0.000000000000000 ] # b
  - [    -0.000000037695281,     0.000000073960930,    12.622780417790198 ] # c
  points:
  - symbol: Li # 1
    coordinates: [  0.174059988013096,  0.674059987588000,  0.125000000176127 ]
    mass: 6.940000
    reduced_to: 1
  - symbol: Li # 2
    coordinates: [  0.174059988013096,  0.674059987588000,  0.375000000176127 ]
    mass: 6.940000
    reduced_to: 1
  - symbol: Li # 3
    coordinates: [  0.174059988013096,  0.674059987588000,  0.625000000176127 ]
    mass: 6.940000
    reduced_to: 1
  - symbol: Li # 4
    coordinates: [  0.174059988013096,  0.674059987588000,  0.875000000176127 ]
    mass: 6.940000
    reduced_to: 1
  - symbol: Li # 5
    coordinates: [  0.825940010531841,  0.325940011568692,  0.125000000233156 ]
    mass: 6.940000
    reduced_to: 5
  - symbol: Li # 6
    coordinates: [  0.825940010531841,  0.325940011568692,  0.375000000233156 ]
    mass: 6.940000
    reduced_to: 5
  - symbol: Li # 7
    coordinates: [  0.825940010531841,  0.325940011568692,  0.625000000233156 ]
    mass: 6.940000
    reduced_to: 5
  - symbol: Li # 8
    coordinates: [  0.825940010531841,  0.325940011568692,  0.875000000233156 ]
    mass: 6.940000
    reduced_to: 5
  - symbol: Li # 9
    coordinates: [  0.325940011753448,  0.174059987884919,  0.125000000227107 ]
    mass: 6.940000
    reduced_to: 9
  - symbol: Li # 10
    coordinates: [  0.325940011753448,  0.174059987884919,  0.375000000227107 ]
    mass: 6.940000
    reduced_to: 9
  - symbol: Li # 11
    coordinates: [  0.325940011753448,  0.174059987884919,  0.625000000227107 ]
    mass: 6.940000
    reduced_to: 9
  - symbol: Li # 12
    coordinates: [  0.325940011753448,  0.174059987884919,  0.875000000227107 ]
    mass: 6.940000
    reduced_to: 9
  - symbol: Li # 13
    coordinates: [  0.674059988297210,  0.825940011506133,  0.125000000209052 ]
    mass: 6.940000
    reduced_to: 13
  - symbol: Li # 14
    coordinates: [  0.674059988297210,  0.825940011506133,  0.375000000209052 ]
    mass: 6.940000
    reduced_to: 13
  - symbol: Li # 15
    coordinates: [  0.674059988297210,  0.825940011506133,  0.625000000209052 ]
    mass: 6.940000
    reduced_to: 13
  - symbol: Li # 16
    coordinates: [  0.674059988297210,  0.825940011506133,  0.875000000209052 ]
    mass: 6.940000
    reduced_to: 13
  - symbol: Sn # 17
    coordinates: [  0.068865555104362,  0.204987693922503,  0.249999999880460 ]
    mass: 118.710000
    reduced_to: 17
  - symbol: Sn # 18
    coordinates: [  0.068865555104362,  0.204987693922503,  0.499999999880460 ]
    mass: 118.710000
    reduced_to: 17
  - symbol: Sn # 19
    coordinates: [  0.068865555104362,  0.204987693922503,  0.749999999880460 ]
    mass: 118.710000
    reduced_to: 17
  - symbol: Sn # 20
    coordinates: [  0.068865555104362,  0.204987693922503,  0.999999999880460 ]
    mass: 118.710000
    reduced_to: 17
  - symbol: Sn # 21
    coordinates: [  0.931134445857639,  0.795012307152499,  0.249999999907407 ]
    mass: 118.710000
    reduced_to: 21
  - symbol: Sn # 22
    coordinates: [  0.931134445857639,  0.795012307152499,  0.499999999907407 ]
    mass: 118.710000
    reduced_to: 21
  - symbol: Sn # 23
    coordinates: [  0.931134445857639,  0.795012307152499,  0.749999999907407 ]
    mass: 118.710000
    reduced_to: 21
  - symbol: Sn # 24
    coordinates: [  0.931134445857639,  0.795012307152499,  0.999999999907407 ]
    mass: 118.710000
    reduced_to: 21
  - symbol: Sn # 25
    coordinates: [  0.795012305576447,  0.068865554492842,  0.249999999887310 ]
    mass: 118.710000
    reduced_to: 25
  - symbol: Sn # 26
    coordinates: [  0.795012305576447,  0.068865554492842,  0.499999999887310 ]
    mass: 118.710000
    reduced_to: 25
  - symbol: Sn # 27
    coordinates: [  0.795012305576447,  0.068865554492842,  0.749999999887310 ]
    mass: 118.710000
    reduced_to: 25
  - symbol: Sn # 28
    coordinates: [  0.795012305576447,  0.068865554492842,  0.999999999887310 ]
    mass: 118.710000
    reduced_to: 25
  - symbol: Sn # 29
    coordinates: [  0.204987694924330,  0.931134445789644,  0.249999999930502 ]
    mass: 118.710000
    reduced_to: 29
  - symbol: Sn # 30
    coordinates: [  0.204987694924330,  0.931134445789644,  0.499999999930502 ]
    mass: 118.710000
    reduced_to: 29
  - symbol: Sn # 31
    coordinates: [  0.204987694924330,  0.931134445789644,  0.749999999930502 ]
    mass: 118.710000
    reduced_to: 29
  - symbol: Sn # 32
    coordinates: [  0.204987694924330,  0.931134445789644,  0.999999999930502 ]
    mass: 118.710000
    reduced_to: 29
  - symbol: Sn # 33
    coordinates: [  0.568865554720046,  0.295012305582521,  0.249999999845581 ]
    mass: 118.710000
    reduced_to: 33
  - symbol: Sn # 34
    coordinates: [  0.568865554720046,  0.295012305582521,  0.499999999845581 ]
    mass: 118.710000
    reduced_to: 33
  - symbol: Sn # 35
    coordinates: [  0.568865554720046,  0.295012305582521,  0.749999999845581 ]
    mass: 118.710000
    reduced_to: 33
  - symbol: Sn # 36
    coordinates: [  0.568865554720046,  0.295012305582521,  0.999999999845581 ]
    mass: 118.710000
    reduced_to: 33
  - symbol: Sn # 37
    coordinates: [  0.431134446016666,  0.704987693524912,  0.249999999919211 ]
    mass: 118.710000
    reduced_to: 37
  - symbol: Sn # 38
    coordinates: [  0.431134446016666,  0.704987693524912,  0.499999999919211 ]
    mass: 118.710000
    reduced_to: 37
  - symbol: Sn # 39
    coordinates: [  0.431134446016666,  0.704987693524912,  0.749999999919211 ]
    mass: 118.710000
    reduced_to: 37
  - symbol: Sn # 40
    coordinates: [  0.431134446016666,  0.704987693524912,  0.999999999919211 ]
    mass: 118.710000
    reduced_to: 37
  - symbol: Sn # 41
    coordinates: [  0.295012305637412,  0.431134446915933,  0.249999999899450 ]
    mass: 118.710000
    reduced_to: 41
  - symbol: Sn # 42
    coordinates: [  0.295012305637412,  0.431134446915933,  0.499999999899450 ]
    mass: 118.710000
    reduced_to: 41
  - symbol: Sn # 43
    coordinates: [  0.295012305637412,  0.431134446915933,  0.749999999899450 ]
    mass: 118.710000
    reduced_to: 41
  - symbol: Sn # 44
    coordinates: [  0.295012305637412,  0.431134446915933,  0.999999999899450 ]
    mass: 118.710000
    reduced_to: 41
  - symbol: Sn # 45
    coordinates: [  0.704987692898787,  0.568865552351435,  0.249999999972239 ]
    mass: 118.710000
    reduced_to: 45
  - symbol: Sn # 46
    coordinates: [  0.704987692898787,  0.568865552351435,  0.499999999972239 ]
    mass: 118.710000
    reduced_to: 45
  - symbol: Sn # 47
    coordinates: [  0.704987692898787,  0.568865552351435,  0.749999999972239 ]
    mass: 118.710000
    reduced_to: 45
  - symbol: Sn # 48
    coordinates: [  0.704987692898787,  0.568865552351435,  0.999999999972239 ]
    mass: 118.710000
    reduced_to: 45
  - symbol: Sn # 49
    coordinates: [  0.000000001147554,  0.500000000674307,  0.249999999969792 ]
    mass: 118.710000
    reduced_to: 49
  - symbol: Sn # 50
    coordinates: [  0.000000001147554,  0.500000000674307,  0.499999999969792 ]
    mass: 118.710000
    reduced_to: 49
  - symbol: Sn # 51
    coordinates: [  0.000000001147554,  0.500000000674307,  0.749999999969792 ]
    mass: 118.710000
    reduced_to: 49
  - symbol: Sn # 52
    coordinates: [  0.000000001147554,  0.500000000674307,  0.999999999969792 ]
    mass: 118.710000
    reduced_to: 49
  - symbol: Sn # 53
    coordinates: [  0.499999999517751,  0.000000001078180,  0.249999999950438 ]
    mass: 118.710000
    reduced_to: 53
  - symbol: Sn # 54
    coordinates: [  0.499999999517751,  0.000000001078180,  0.499999999950438 ]
    mass: 118.710000
    reduced_to: 53
  - symbol: Sn # 55
    coordinates: [  0.499999999517751,  0.000000001078180,  0.749999999950438 ]
    mass: 118.710000
    reduced_to: 53
  - symbol: Sn # 56
    coordinates: [  0.499999999517751,  0.000000001078180,  0.999999999950438 ]
    mass: 118.710000
    reduced_to: 53

displacements:
- atom:    1
  displacement:
    [   0.0063609245120060,  0.0000000000452113,  0.0077161285209982 ]
  forces:
  - [   0.0174280405044556,  0.0249405466020107, -0.0120935719460249 ]
  - [   0.0277415700256824,  0.0280180349946022,  0.0017441837117076 ]
  - [   0.0279943086206913,  0.0281195081770420, -0.0009408670011908 ]
  - [   0.0276068262755871,  0.0278779007494450,  0.0018155770376325 ]
  - [  -0.0281319133937359, -0.0283230692148209,  0.0001448513939977 ]
  - [  -0.0279611628502607, -0.0280970688909292,  0.0001125261187553 ]
  - [  -0.0280892066657543, -0.0280782394111156, -0.0000300975516438 ]
  - [  -0.0287364013493061, -0.0288722496479750, -0.0005278289318085 ]
  - [  -0.0281071439385414,  0.0281316265463829,  0.0001413989812136 ]
  - [  -0.0282529555261135,  0.0280908383429050, -0.0002431413158774 ]
  - [  -0.0280966702848673,  0.0280887782573700, -0.0000076666474342 ]
  - [  -0.0280047915875912,  0.0280445218086243, -0.0000339141115546 ]
  - [   0.0278434902429581, -0.0281305611133575,  0.0001384876668453 ]
  - [   0.0276917256414890, -0.0281930826604366, -0.0001596258953214 ]
  - [   0.0281764809042215, -0.0280877295881510, -0.0000078510493040 ]
  - [   0.0276676453649998, -0.0279432497918606, -0.0001121824607253 ]
  - [  -0.0162980295717716, -0.0037760436534882, -0.0000678179203533 ]
  - [  -0.0161977726966143, -0.0037284959107637,  0.0000336715020239 ]
  - [  -0.0162551403045654, -0.0037492876872420,  0.0000540739856660 ]
  - [  -0.0163152664899826, -0.0036662127822638, -0.0000836853287183 ]
  - [   0.0166774801909924,  0.0037959478795528,  0.0001141825923696 ]
  - [   0.0161722376942635,  0.0037394789978862, -0.0000668817083351 ]
  - [   0.0162689723074436,  0.0037195514887571, -0.0000220611109398 ]
  - [   0.0188885685056448,  0.0027906820178032,  0.0011787837138399 ]
  - [   0.0036901766434312, -0.0161878447979689, -0.0000228841672651 ]
  - [   0.0037764757871628, -0.0162456333637238, -0.0000264098634943 ]
  - [   0.0037321923300624, -0.0161933861672878,  0.0000615133903921 ]
  - [   0.0038281846791506, -0.0163489859551191, -0.0000549366232008 ]
  - [  -0.0034120324999094,  0.0185687877237797,  0.0013140052324161 ]
  - [  -0.0037888921797276,  0.0163148716092110,  0.0001447723479941 ]
  - [  -0.0037378631532192,  0.0161390863358974,  0.0000243055401370 ]
  - [  -0.0041951611638069,  0.0146072180941701,  0.0008375201141462 ]
  - [  -0.0162338539958000,  0.0037314230576158, -0.0000377406249754 ]
  - [  -0.0162312276661396,  0.0037846332415938,  0.0000204901443794 ]
  - [  -0.0161790177226067,  0.0037386305630207,  0.0000167339458130 ]
  - [  -0.0163956172764301,  0.0038709240034223, -0.0000419027637690 ]
  - [   0.0214249342679977, -0.0028084684163332,  0.0023105123545974 ]
  - [   0.0163068883121014, -0.0037906952202320,  0.0002761384821497 ]
  - [   0.0161290429532528, -0.0037391912192106, -0.0001058709458448 ]
  - [   0.0173711217939854, -0.0036163702607155, -0.0001150823372882 ]
  - [   0.0044837798923254,  0.0142640313133597,  0.0009341841796413 ]
  - [   0.0037493407726288,  0.0161404591053724, -0.0000060605816543 ]
  - [   0.0037285042926669,  0.0162411220371723, -0.0000815927051008 ]
  - [   0.0034475512802601,  0.0165645703673363,  0.0004018278559670 ]
  - [  -0.0043751597404480, -0.0160189513117075, -0.0000359075493179 ]
  - [  -0.0037020947784185, -0.0162035450339317,  0.0001066535478458 ]
  - [  -0.0037232376635075, -0.0162599999457598, -0.0000172822619788 ]
  - [  -0.0042633432894945, -0.0160484164953232, -0.0001164778368548 ]
  - [   0.0000363468425348,  0.0000073375122156, -0.0000025192275643 ]
  - [  -0.0000621962244622, -0.0000561187043786, -0.0000105407088995 ]
  - [   0.0000240173285420,  0.0000300834653899,  0.0003014765679836 ]
  - [   0.0049193734303117,  0.0048825233243406,  0.0028887111693621 ]
  - [   0.0000822609581519,  0.0000696270290064, -0.0000307014561258 ]
  - [  -0.0000324805005221, -0.0000280383246718, -0.0000398119445890 ]
  - [   0.0000344747531926,  0.0000387416366721, -0.0000027186470106 ]
  - [  -0.0001433688012185, -0.0001605190918781,  0.0000290541793220 ]
- atom:    1
  displacement:
    [  -0.0063609245120060, -0.0000000000452113, -0.0077161285209982 ]
  forces:
  - [   0.0387775152921677,  0.0313196815550327,  0.0121112773194909 ]
  - [   0.0284707359969616,  0.0281974095851183, -0.0016974713653326 ]
  - [   0.0282250177115202,  0.0280976723879576,  0.0009405023884028 ]
  - [   0.0286163352429867,  0.0283375307917595, -0.0018573347479105 ]
  - [  -0.0280835647135973, -0.0278919525444508, -0.0001408411189914 ]
  - [  -0.0282562393695116, -0.0281196273863316, -0.0001138867810369 ]
  - [  -0.0281259529292583, -0.0281373560428619,  0.0000303480774164 ]
  - [  -0.0274713337421417, -0.0273345913738012,  0.0005318857729435 ]
  - [  -0.0281119570136070,  0.0280885025858879, -0.0001393286511302 ]
  - [  -0.0279680825769901,  0.0281343851238489,  0.0002347305417061 ]
  - [  -0.0281224101781845,  0.0281295608729124,  0.0000075520947576 ]
  - [  -0.0282159503549337,  0.0281732529401779,  0.0000349180772901 ]
  - [   0.0283764470368624, -0.0280874855816364, -0.0001421496272087 ]
  - [   0.0285118259489536, -0.0280313938856125,  0.0001487480476499 ]
  - [   0.0280412845313549, -0.0281286314129829,  0.0000073891133070 ]
  - [   0.0285731479525566, -0.0282774213701487,  0.0001263152807951 ]
  - [  -0.0161455739289522, -0.0037470487877727,  0.0000683035468683 ]
  - [  -0.0162374190986156, -0.0037892656400800, -0.0000343318097293 ]
  - [  -0.0161826424300671, -0.0037682047113776, -0.0000521061592735 ]
  - [  -0.0161113888025284, -0.0038645714521408,  0.0000806988682598 ]
  - [   0.0157781802117825,  0.0037135984748602, -0.0001224987790920 ]
  - [   0.0162672735750675,  0.0037749093025923,  0.0000675310730003 ]
  - [   0.0161662213504314,  0.0037958100438118,  0.0000218107015826 ]
  - [   0.0134556032717228,  0.0047651752829552, -0.0012289206497371 ]
  - [   0.0038269395008683, -0.0162516124546528,  0.0000248600263149 ]
  - [   0.0037411740049720, -0.0161920934915543,  0.0000258522341028 ]
  - [   0.0037868591025472, -0.0162438899278641, -0.0000593667500652 ]
  - [   0.0036895275115967, -0.0160847455263138,  0.0000522272312082 ]
  - [  -0.0041217245161533,  0.0139102442190051, -0.0013019305188209 ]
  - [  -0.0037278495728970,  0.0161262191832066, -0.0001466013491154 ]
  - [  -0.0037787714973092,  0.0163009241223335, -0.0000195837928914 ]
  - [  -0.0033152624964714,  0.0178308486938477, -0.0008360180072486 ]
  - [  -0.0162084866315126,  0.0037855040282011,  0.0000368570326827 ]
  - [  -0.0162074565887451,  0.0037342570722103, -0.0000199067289941 ]
  - [  -0.0162596926093102,  0.0037780711427331, -0.0000118279713206 ]
  - [  -0.0160421039909124,  0.0036491127684712,  0.0000386471510865 ]
  - [   0.0112159363925457, -0.0046889651566744, -0.0022140131331980 ]
  - [   0.0161303877830505, -0.0037271957844496, -0.0002735551097430 ]
  - [   0.0163033232092857, -0.0037778131663799,  0.0001075949985534 ]
  - [   0.0150465182960033, -0.0039073042571545,  0.0001199161779368 ]
  - [   0.0030450271442533,  0.0181253887712955, -0.0009138845489360 ]
  - [   0.0037664836272597,  0.0162935331463814,  0.0000065343338065 ]
  - [   0.0037862863391638,  0.0161962639540434,  0.0000843667075969 ]
  - [   0.0040646540001035,  0.0158931929618120, -0.0003940620226786 ]
  - [  -0.0031541567295790, -0.0164128970354795,  0.0000357594108209 ]
  - [  -0.0038121938705444, -0.0162347108125687, -0.0001056391629390 ]
  - [  -0.0037912689149380, -0.0161788836121559,  0.0000210695434362 ]
  - [  -0.0032706297934055, -0.0163906849920750,  0.0001118768705055 ]
  - [  -0.0000064070918597,  0.0000222652743105, -0.0000204462558031 ]
  - [   0.0000620735809207,  0.0000577640603296,  0.0000092862173915 ]
  - [  -0.0000264438822342, -0.0000313198252115, -0.0003076419234276 ]
  - [  -0.0050319284200668, -0.0050121536478400, -0.0029786862432957 ]
  - [  -0.0000800640846137, -0.0000639243226033,  0.0000316500081681 ]
  - [   0.0000308986054733,  0.0000261506647803,  0.0000381703139283 ]
  - [  -0.0000341477716574, -0.0000388575426769,  0.0000036082929000 ]
  - [   0.0001454105949961,  0.0001573285553604, -0.0000282630790025 ]
- atom:   17
  displacement:
    [   0.0063609245120060,  0.0000000000452113,  0.0077161285209982 ]
  forces:
  - [   0.0280280094593763,  0.0283385831862688, -0.0000635292381048 ]
  - [   0.0280132405459881,  0.0282453428953886, -0.0000863899476826 ]
  - [   0.0281130503863096,  0.0280196368694305,  0.0000200676731765 ]
  - [   0.0280892569571733,  0.0281715039163828,  0.0000664298422635 ]
  - [  -0.0259193442761898, -0.0291962213814259,  0.0015668105334044 ]
  - [  -0.0271847825497389, -0.0285868402570486, -0.0002694409340620 ]
  - [  -0.0281337071210146, -0.0280892327427864, -0.0000883704051375 ]
  - [  -0.0280792582780123, -0.0281817801296711, -0.0000054342672229 ]
  - [  -0.0264212526381016,  0.0280316509306431, -0.0005601802840829 ]
  - [  -0.0234404932707548,  0.0274474546313286,  0.0027492130175233 ]
  - [  -0.0278786011040211,  0.0280272904783487,  0.0001557730138302 ]
  - [  -0.0283415876328945,  0.0281771123409271,  0.0000154152512550 ]
  - [   0.0280168876051903, -0.0280759818851948,  0.0000287201255560 ]
  - [   0.0280124638229609, -0.0280421469360590, -0.0001055914908648 ]
  - [   0.0281193889677525, -0.0281599611043930,  0.0000383229926229 ]
  - [   0.0281267706304789, -0.0280547067523003, -0.0000043306499720 ]
  - [  -0.0325990840792656, -0.0015542684122920, -0.0162271875888109 ]
  - [  -0.0160200856626034, -0.0037592649459839,  0.0041533205658197 ]
  - [  -0.0161414779722691, -0.0037674149498343,  0.0029336921870708 ]
  - [  -0.0163047499954700, -0.0038313362747431,  0.0041204029694200 ]
  - [   0.0168590303510427,  0.0034506414085627,  0.0000673056638334 ]
  - [   0.0163370594382286,  0.0039479797706008,  0.0000263993279077 ]
  - [   0.0162160638719797,  0.0037516839802265, -0.0000209564459510 ]
  - [   0.0162608996033669,  0.0035641444846988, -0.0000354096846422 ]
  - [   0.0072757126763463, -0.0136325266212225,  0.0001525431143818 ]
  - [   0.0034108040854335, -0.0161972921341658,  0.0002509770565666 ]
  - [   0.0037622777745128, -0.0162355937063694, -0.0002409956068732 ]
  - [   0.0045808842405677, -0.0157905854284763,  0.0003973955172114 ]
  - [  -0.0029793083667755,  0.0136091867461801,  0.0001337589346804 ]
  - [  -0.0033998042345047,  0.0159123074263334,  0.0004963410319760 ]
  - [  -0.0037711951881647,  0.0162370987236500, -0.0002386793494225 ]
  - [  -0.0039620213210583,  0.0160909462720156,  0.0001602652773727 ]
  - [  -0.0157884769141674,  0.0032229479402304,  0.0000293447519653 ]
  - [  -0.0165239796042442,  0.0036799171939492, -0.0001030201092362 ]
  - [  -0.0162318050861359,  0.0037523321807384, -0.0000280216918327 ]
  - [  -0.0165398586541414,  0.0038021616637707, -0.0000845984905027 ]
  - [   0.0168007053434849, -0.0030688997358084,  0.0000411441578763 ]
  - [   0.0161302648484707, -0.0038433754816651, -0.0000010329531506 ]
  - [   0.0162248108536005, -0.0037603136152029,  0.0000012543750927 ]
  - [   0.0161193907260895, -0.0037632733583450, -0.0000084778148448 ]
  - [   0.0045221978798509,  0.0165194869041443,  0.0002587203052826 ]
  - [   0.0038439370691776,  0.0165759995579720,  0.0002823980175890 ]
  - [   0.0037560118362308,  0.0161905642598867, -0.0002058137906715 ]
  - [   0.0038080383092165,  0.0161188244819641, -0.0001007660175674 ]
  - [  -0.0037225503474474, -0.0163366831839085, -0.0000225089606829 ]
  - [  -0.0037500625476241, -0.0162215139716864,  0.0000514536513947 ]
  - [  -0.0037442613393068, -0.0162115506827831,  0.0000138064497150 ]
  - [  -0.0038964003324509, -0.0160350762307644, -0.0001032330910675 ]
  - [  -0.0002841585665010, -0.0008148537017405,  0.0000057723373175 ]
  - [   0.0000131210545078,  0.0002392327587586,  0.0002519180998206 ]
  - [   0.0000041223574954,  0.0000004791072570, -0.0002836510539055 ]
  - [   0.0001958221109817, -0.0004704760503955,  0.0005261106416583 ]
  - [   0.0009103692136705,  0.0003514281706885,  0.0000527344527654 ]
  - [  -0.0004390332615003,  0.0002071410126518, -0.0002304381923750 ]
  - [  -0.0000118805328384,  0.0000117308672998, -0.0000109326792881 ]
  - [  -0.0000413585512433, -0.0000136783783091,  0.0000811796635389 ]
- atom:   17
  displacement:
    [  -0.0063609245120060, -0.0000000000452113, -0.0077161285209982 ]
  forces:
  - [   0.0281895063817501,  0.0278751254081726,  0.0000651290174574 ]
  - [   0.0282082092016935,  0.0279723331332207,  0.0000848821364343 ]
  - [   0.0281060580164194,  0.0281969290226698, -0.0000206478871405 ]
  - [   0.0281289406120777,  0.0280446019023657, -0.0000665085390210 ]
  - [  -0.0304024945944548, -0.0269619617611170, -0.0016241827979684 ]
  - [  -0.0290340464562178, -0.0276301726698875,  0.0002766717225313 ]
  - [  -0.0280829202383757, -0.0281285904347897,  0.0000819163396955 ]
  - [  -0.0281379260122776, -0.0280348695814610,  0.0000027464702725 ]
  - [  -0.0298009049147367,  0.0281770676374435,  0.0005441848188639 ]
  - [  -0.0325947888195515,  0.0287369564175606, -0.0026451125741005 ]
  - [  -0.0283427871763706,  0.0281906425952911, -0.0001566028222442 ]
  - [  -0.0278796888887882,  0.0280406288802624, -0.0000077700242400 ]
  - [   0.0282027237117290, -0.0281403325498104, -0.0000289259478450 ]
  - [   0.0282057151198387, -0.0281792860478163,  0.0001073498278856 ]
  - [   0.0280980430543423, -0.0280566811561584, -0.0000391630455852 ]
  - [   0.0280914269387722, -0.0281609147787094,  0.0000041369348764 ]
  - [   0.0001881103962660, -0.0060151247307658,  0.0161755792796612 ]
  - [  -0.0164357610046864, -0.0037557361647487, -0.0038777678273618 ]
  - [  -0.0162969864904881, -0.0037551131099463, -0.0029325245413929 ]
  - [  -0.0161081925034523, -0.0036778198555112, -0.0044156815856695 ]
  - [   0.0155773321166635,  0.0040815733373165, -0.0000667352069286 ]
  - [   0.0160999409854412,  0.0035705696791410, -0.0000295168720186 ]
  - [   0.0162211284041405,  0.0037646321579814,  0.0000241624657065 ]
  - [   0.0161764994263649,  0.0039539802819490,  0.0000347138411598 ]
  - [   0.0001270435750484, -0.0188667289912701, -0.0001283957535634 ]
  - [   0.0041244728490710, -0.0162314493209124, -0.0002600323059596 ]
  - [   0.0037580681964755, -0.0162015631794930,  0.0002417542273179 ]
  - [   0.0029452340677381, -0.0166466645896435, -0.0004023677902296 ]
  - [  -0.0045405440032482,  0.0188434645533562, -0.0001475287281210 ]
  - [  -0.0041188681498170,  0.0165329799056053, -0.0004976072232239 ]
  - [  -0.0037460215389729,  0.0162029713392258,  0.0002436288632452 ]
  - [  -0.0035591237246990,  0.0163605511188507, -0.0001561734097777 ]
  - [  -0.0166496653109789,  0.0042972499504685, -0.0000291431206279 ]
  - [  -0.0159186143428087,  0.0038328915834427,  0.0000990028493106 ]
  - [  -0.0162075422704220,  0.0037647131830454,  0.0000326423323713 ]
  - [  -0.0158958584070206,  0.0037180976942182,  0.0000850273645483 ]
  - [   0.0156316533684731, -0.0044523496180773, -0.0000392182701034 ]
  - [   0.0163073316216469, -0.0036741234362125, -0.0000012911041267 ]
  - [   0.0162087138742208, -0.0037562996149063,  0.0000021968735382 ]
  - [   0.0163159798830748, -0.0037547573447227,  0.0000068794033723 ]
  - [   0.0030320333316922,  0.0159675423055887, -0.0002667211228982 ]
  - [   0.0036981720477343,  0.0158844646066427, -0.0002503184950911 ]
  - [   0.0037618204951286,  0.0162464231252670,  0.0002112113288604 ]
  - [   0.0037071481347084,  0.0163153409957886,  0.0000991336419247 ]
  - [  -0.0037856996059418, -0.0161051861941814,  0.0000217877095565 ]
  - [  -0.0037641217932105, -0.0162167474627495, -0.0000532364356332 ]
  - [  -0.0037700152024627, -0.0162273570895195, -0.0000113400747068 ]
  - [  -0.0036169905215502, -0.0164101440459490,  0.0001049973070621 ]
  - [   0.0002797028864734,  0.0007936737965792, -0.0000064298510551 ]
  - [  -0.0000137174502015, -0.0002537397958804, -0.0002573672682047 ]
  - [  -0.0000057197448768,  0.0000010902294889,  0.0002853237092495 ]
  - [  -0.0001936539774761,  0.0004576209757943, -0.0005220612511039 ]
  - [  -0.0009647076949477, -0.0003259762888774, -0.0000510427635163 ]
  - [   0.0004312963865232, -0.0002040106774075,  0.0002285435912199 ]
  - [   0.0000111048429972, -0.0000124663338283,  0.0000124337966554 ]
  - [   0.0000338844547514,  0.0000121043403851, -0.0000846399925649 ]
- atom:   17
  displacement:
    [   0.0000000001603703,  0.0100000000000000,  0.0000000000000000 ]
  forces:
  - [   0.0281717739999294,  0.0272371247410774, -0.0000708182342350 ]
  - [   0.0281720496714115,  0.0272374991327524,  0.0000710512977093 ]
  - [   0.0281411241739988,  0.0281792059540749, -0.0000147460959852 ]
  - [   0.0281407143920660,  0.0281791668385267,  0.0000143283978105 ]
  - [  -0.0288673304021358, -0.0277782399207354, -0.0006808284670115 ]
  - [  -0.0288678035140038, -0.0277784578502178,  0.0006813481450081 ]
  - [  -0.0281520187854767, -0.0281389653682709,  0.0000117626041174 ]