# Thermal properties / unit cell (natom)

unit:
  temperature:   K
  free_energy:   kJ/mol
  entropy:       J/K/mol
  heat_capacity: J/K/mol

natom: 14   
cutoff_frequency: 0.00000
num_modes: 134400
num_integrated_modes: 134398

zero_point_energy:      30.1374908

thermal_properties:
- temperature:         0.0000000
  free_energy:        30.1374908
  entropy:             0.0000000
  heat_capacity:       0.0000000
  energy:             30.1374908

- temperature:        10.0000000
  free_energy:        30.1306074
  entropy:             2.8660906
  heat_capacity:       9.3946633
  energy:             30.1592683

- temperature:        20.0000000
  free_energy:        30.0186636
  entropy:            23.0464730
  heat_capacity:      60.0895108
  energy:             30.4795931

- temperature:        30.0000000
  free_energy:        29.6174141
  entropy:            58.7112427
  heat_capacity:     117.6436351
  energy:             31.3787513

- temperature:        40.0000000
  free_energy:        28.8310190
  entropy:            98.6615076
  heat_capacity:     159.4959539
  energy:             32.7774793

- temperature:        50.0000000
  free_energy:        27.6480289
  entropy:           137.5799545
  heat_capacity:     188.8406314
  energy:             34.5270266

- temperature:        60.0000000
  free_energy:        26.0877141
  entropy:           174.0471430
  heat_capacity:     210.9703233
  energy:             36.5305427

- temperature:        70.0000000
  free_energy:        24.1756525
  entropy:           207.9528603
  heat_capacity:     228.8253697
  energy:             38.7323528

- temperature:        80.0000000
  free_energy:        21.9364801
  entropy:           239.5122357
  heat_capacity:     243.7815883
  energy:             41.0974590

- temperature:        90.0000000
  free_energy:        19.3923757
  entropy:           268.9802077
  heat_capacity:     256.5124228
  energy:             43.6005943

- temperature:       100.0000000
  free_energy:        16.5630815
  entropy:           296.5853520
  heat_capacity:     267.4127259
  energy:             46.2216167

- temperature:       110.0000000
  free_energy:        13.4662255
  entropy:           322.5224808
  heat_capacity:     276.7662607
  energy:             48.9436984

- temperature:       120.0000000
  free_energy:        10.1176358
  entropy:           346.9577036
  heat_capacity:     284.8041798
  energy:             51.7525602

- temperature:       130.0000000
  free_energy:         6.5315981
  entropy:           370.0343012
  heat_capacity:     291.7237863
  energy:             54.6360573

- temperature:       140.0000000
  free_energy:         2.7210602
  entropy:           391.8772593
  heat_capacity:     297.6947526
  energy:             57.5838765

- temperature:       150.0000000
  free_energy:        -1.3022028
  entropy:           412.5965271
  heat_capacity:     302.8621582
  energy:             60.5872763

- temperature:       160.0000000
  free_energy:        -5.5274502
  entropy:           432.2893983
  heat_capacity:     307.3490729
  energy:             63.6388535

- temperature:       170.0000000
  free_energy:        -9.9448587
  entropy:           451.0423274
  heat_capacity:     311.2592133
  energy:             66.7323370

- temperature:       180.0000000
  free_energy:       -14.5454214
  entropy:           468.9323793
  heat_capacity:     314.6796053
  energy:             69.8624069

- temperature:       190.0000000
  free_energy:       -19.3208604
  entropy:           486.0284271
  heat_capacity:     317.6831023
  energy:             73.0245408

- temperature:       200.0000000
  free_energy:       -24.2635496
  entropy:           502.3921658
  heat_capacity:     320.3306555
  energy:             76.2148835

- temperature:       210.0000000
  free_energy:       -29.3664479
  entropy:           518.0789824
  heat_capacity:     322.6732925
  energy:             79.4301384

- temperature:       220.0000000
  free_energy:       -34.6230395
  entropy:           533.1387086
  heat_capacity:     324.7538025
  energy:             82.6674764

- temperature:       230.0000000
  free_energy:       -40.0272820
  entropy:           547.6162749
  heat_capacity:     326.6081491
  energy:             85.9244612

- temperature:       240.0000000
  free_energy:       -45.5735602
  entropy:           561.5522803
  heat_capacity:     328.2666437
  energy:             89.1989870

- temperature:       250.0000000
  free_energy:       -51.2566453
  entropy:           574.9834897
  heat_capacity:     329.7549132
  energy:             92.4892271

- temperature:       260.0000000
  free_energy:       -57.0716589
  entropy:           587.9432678
  heat_capacity:     331.0946963
  energy:             95.7935907

- temperature:       270.0000000
  free_energy:       -63.0140407
  entropy:           600.4619583
  heat_capacity:     332.3044964
  energy:             99.1106880

- temperature:       280.0000000
  free_energy:       -69.0795202
  entropy:           612.5672162
  heat_capacity:     333.4001187
  energy:            102.4393003

- temperature:       290.0000000
  free_energy:       -75.2640914
  entropy:           624.2842984
  heat_capacity:     334.3951108
  energy:            105.7783552

- temperature:       300.0000000
  free_energy:       -81.5639895
  entropy:           635.6363188
  heat_capacity:     335.3011256
  energy:            109.1269061

- temperature:       310.0000000
  free_energy:       -87.9756717
  entropy:           646.6444725
  heat_capacity:     336.1282208
  energy:            112.4841148

- temperature:       320.0000000
  free_energy:       -94.4957979
  entropy:           657.3282327
  heat_capacity:     336.8851062
  energy:            115.8492366

- temperature:       330.0000000
  free_energy:      -101.1212149
  entropy:           667.7055247
  heat_capacity:     337.5793495
  energy:            119.2216082

- temperature:       340.0000000
  free_energy:      -107.8489420
  entropy:           677.7928791
  heat_capacity:     338.2175469
  energy:            122.6006369

- temperature:       350.0000000
  free_energy:      -114.6761571
  entropy:           687.6055678
  heat_capacity:     338.8054656
  energy:            125.9857916

- temperature:       360.0000000
  free_energy:      -121.6001851
  entropy:           697.1577238
  heat_capacity:     339.3481632
  energy:            129.3765955

- temperature:       370.0000000
  free_energy:      -128.6184869
  entropy:           706.4624485
  heat_capacity:     339.8500880
  energy:            132.7726190

- temperature:       380.0000000
  free_energy:      -135.7286499
  entropy:           715.5319063
  heat_capacity:     340.3151632
  energy:            136.1734745

- temperature:       390.0000000
  free_energy:      -142.9283786
  entropy:           724.3774095
  heat_capacity:     340.7468585
  energy:            139.5788111

- temperature:       400.0000000
  free_energy:      -150.2154868
  entropy:           733.0094937
  heat_capacity:     341.1482507
  energy:            142.9883107

- temperature:       410.0000000
  free_energy:      -157.5878899
  entropy:           741.4379857
  heat_capacity:     341.5220748
  energy:            146.4016842

- temperature:       420.0000000
  free_energy:      -165.0435985
  entropy:           749.6720642
  heat_capacity:     341.8707679
  energy:            149.8186684

- temperature:       430.0000000
  free_energy:      -172.5807118
  entropy:           757.7203138
  heat_capacity:     342.1965072
  energy:            153.2390231

- temperature:       440.0000000
  free_energy:      -180.1974122
  entropy:           765.5907746
  heat_capacity:     342.5012418
  energy:            156.6625286

- temperature:       450.0000000
  free_energy:      -187.8919599
  entropy:           773.2909859
  heat_capacity:     342.7867205
  energy:            160.0889838

- temperature:       460.0000000
  free_energy:      -195.6626881
  entropy:           780.8280264
  heat_capacity:     343.0545157
  energy:            163.5182041

- temperature:       470.0000000
  free_energy:      -203.5079987
  entropy:           788.2085502
  heat_capacity:     343.3060443
  energy:            166.9500199

- temperature:       480.0000000
  free_energy:      -211.4263583
  entropy:           795.4388193
  heat_capacity:     343.5425854
  energy:            170.3842750

- temperature:       490.0000000
  free_energy:      -219.4162940
  entropy:           802.5247336
  heat_capacity:     343.7652958
  energy:            173.8208255

- temperature:       500.0000000
  free_energy:      -227.4763903
  entropy:           809.4718574
  heat_capacity:     343.9752241
  energy:            177.2595383

- temperature:       510.0000000
  free_energy:      -235.6052860
  entropy:           816.2854443
  heat_capacity:     344.1733219
  energy:            180.7002906

- temperature:       520.0000000
  free_energy:      -243.8016707
  entropy:           822.9704595
  heat_capacity:     344.3604549
  energy:            184.1429682

- temperature:       530.0000000
  free_energy:      -252.0642823
  entropy:           829.5316001
  heat_capacity:     344.5374113
  energy:            187.5874657

- temperature:       540.0000000
  free_energy:      -260.3919046
  entropy:           835.9733140
  heat_capacity:     344.7049107
  energy:            191.0336849

- temperature:       550.0000000
  free_energy:      -268.7833646
  entropy:           842.2998167
  heat_capacity:     344.8636104
  energy:            194.4815346

- temperature:       560.0000000
  free_energy:      -277.2375303
  entropy:           848.5151073
  heat_capacity:     345.0141119
  energy:            197.9309298

- temperature:       570.0000000
  free_energy:      -285.7533087
  entropy:           854.6229826
  heat_capacity:     345.1569666
  energy:            201.3817914

- temperature:       580.0000000
  free_energy:      -294.3296439
  entropy:           860.6270505
  heat_capacity:     345.2926808
  energy:            204.8340454

- temperature:       590.0000000
  free_energy:      -302.9655151
  entropy:           866.5307422
  heat_capacity:     345.4217195
  energy:            208.2876227

- temperature:       600.0000000
  free_energy:      -311.6599351
  entropy:           872.3373234
  heat_capacity:     345.5445110
  energy:            211.7424589

- temperature:       610.0000000
  free_energy:      -320.4119483
  entropy:           878.0499045
  heat_capacity:     345.6614498
  energy:            215.1984935

- temperature:       620.0000000
  free_energy:      -329.2206297
  entropy:           883.6714506
  heat_capacity:     345.7728999
  energy:            218.6556696

- temperature:       630.0000000
  free_energy:      -338.0850833
  entropy:           889.2047898
  heat_capacity:     345.8791978
  energy:            222.1139343

- temperature:       640.0000000
  free_energy:      -347.0044405
  entropy:           894.6526218
  heat_capacity:     345.9806545
  energy:            225.5732375

- temperature:       650.0000000
  free_energy:      -355.9778593
  entropy:           900.0175254
  heat_capacity:     346.0775582
  energy:            229.0335322

- temperature:       660.0000000
  free_energy:      -365.0045228
  entropy:           905.3019654
  heat_capacity:     346.1701759
  energy:            232.4947743

- temperature:       670.0000000
  free_energy:      -374.0836383
  entropy:           910.5082993
  heat_capacity:     346.2587556
  energy:            235.9569223

- temperature:       680.0000000
  free_energy:      -383.2144360
  entropy:           915.6387835
  heat_capacity:     346.3435275
  energy:            239.4199368

- temperature:       690.0000000
  free_energy:      -392.3961683
  entropy:           920.6955785
  heat_capacity:     346.4247058
  energy:            242.8837808

- temperature:       700.0000000
  free_energy:      -401.6281088
  entropy:           925.6807549
  heat_capacity:     346.5024899
  energy:            246.3484196

- temperature:       710.0000000
  free_energy:      -410.9095513
  entropy:           930.5962976
  heat_capacity:     346.5770657
  energy:            249.8138199

- temperature:       720.0000000
  free_energy:      -420.2398090
  entropy:           935.4441108
  heat_capacity:     346.6486065
  energy:            253.2799508

- temperature:       730.0000000
  free_energy:      -429.6182139
  entropy:           940.2260224
  heat_capacity:     346.7172741
  energy:            256.7467825

- temperature:       740.0000000
  free_energy:      -439.0441157
  entropy:           944.9437876
  heat_capacity:     346.7832197
  energy:            260.2142872

- temperature:       750.0000000
  free_energy:      -448.5168814
  entropy:           949.5990930
  heat_capacity:     346.8465848
  energy:            263.6824383

- temperature:       760.0000000
  free_energy:      -458.0358947
  entropy:           954.1935598
  heat_capacity:     346.9075017
  energy:            267.1512107

- temperature:       770.0000000
  free_energy:      -467.6005550
  entropy:           958.7287476
  heat_capacity:     346.9660947
  energy:            270.6205806

- temperature:       780.0000000
  free_energy:      -477.2102771
  entropy:           963.2061569
  heat_capacity:     347.0224799
  energy:            274.0905252

- temperature:       790.0000000
  free_energy:      -486.8644904
  entropy:           967.6272324
  heat_capacity:     347.0767665
  energy:            277.5610232

- temperature:       800.0000000
  free_energy:      -496.5626386
  entropy:           971.9933657
  heat_capacity:     347.1290571
  energy:            281.0320539

- temperature:       810.0000000
  free_energy:      -506.3041791
  entropy:           976.3058976
  heat_capacity:     347.1794480
  energy:            284.5035980

- temperature:       820.0000000
  free_energy:      -516.0885822
  entropy:           980.5661208
  heat_capacity:     347.2280298
  energy:            287.9756368

- temperature:       830.0000000
  free_energy:      -525.9153313
  entropy:           984.7752821
  heat_capacity:     347.2748879
  energy:            291.4481528

- temperature:       840.0000000
  free_energy:      -535.7839217
  entropy:           988.9345843
  heat_capacity:     347.3201026
  energy:            294.9211291

- temperature:       850.0000000
  free_energy:      -545.6938606
  entropy:           993.0451886
  heat_capacity:     347.3637496
  energy:            298.3945497

- temperature:       860.0000000
  free_energy:      -555.6446669
  entropy:           997.1082163
  heat_capacity:     347.4059003
  energy:            301.8683991

- temperature:       870.0000000
  free_energy:      -565.6358700
  entropy:          1001.1247505
  heat_capacity:     347.4466223
  energy:            305.3426629

- temperature:       880.0000000
  free_energy:      -575.6670104
  entropy:          1005.0958380
  heat_capacity:     347.4859791
  energy:            308.8173270

- temperature:       890.0000000
  free_energy:      -585.7376386
  entropy:          1009.0224908
  heat_capacity:     347.5240310
  energy:            312.2923781

- temperature:       900.0000000
  free_energy:      -595.8473153
  entropy:          1012.9056876
  heat_capacity:     347.5608348
  energy:            315.7678035

- temperature:       910.0000000
  free_energy:      -605.9956107
  entropy:          1016.7463753
  heat_capacity:     347.5964444
  energy:            319.2435909

- temperature:       920.0000000
  free_energy:      -616.1821042
  entropy:          1020.5454704
  heat_capacity:     347.6309108
  energy:            322.7197286

- temperature:       930.0000000
  free_energy:      -626.4063844
  entropy:          1024.3038600
  heat_capacity:     347.6642823
  energy:            326.1962054

- temperature:       940.0000000
  free_energy:      -636.6680486
  entropy:          1028.0224035
  heat_capacity:     347.6966047
  energy:            329.6730107

- temperature:       950.0000000
  free_energy:      -646.9667024
  entropy:          1031.7019333
  heat_capacity:     347.7279213
  energy:            333.1501342

- temperature:       960.0000000
  free_energy:      -657.3019599
  entropy:          1035.3432561
  heat_capacity:     347.7582735
  energy:            336.6275659

- temperature:       970.0000000
  free_energy:      -667.6734428
  entropy:          1038.9471540
  heat_capacity:     347.7877002
  energy:            340.1052966

- temperature:       980.0000000
  free_energy:      -678.0807808
  entropy:          1042.5143854
  heat_capacity:     347.8162387
  energy:            343.5833170

- temperature:       990.0000000
  free_energy:      -688.5236108
  entropy:          1046.0456861
  heat_capacity:     347.8439243
  energy:            347.0616185

- temperature:      1000.0000000
  free_energy:      -699.0015771
  entropy:          1049.5417698
  heat_capacity:     347.8707905
  energy:            350.5401927
