phonopy:
  version: "2.37.1"
  frequency_unit_conversion_factor: 15.633302
  symmetry_tolerance: 1.00000e-05

space_group:
  type: "P1"
  number: 1
  Hall_symbol: "P 1"

primitive_matrix:
- [ -1.000000000000000, -0.000000000000000, -1.000000000000000 ]
- [  0.000000000000000,  1.000000000000000, -0.000000000000000 ]
- [  0.000000000000000,  0.000000000000000, -1.000000000000000 ]

supercell_matrix:
- [   2,   0,   0 ]
- [   0,   2,   0 ]
- [   0,   0,   1 ]

primitive_cell:
  lattice:
  - [    -5.924778887820043,     0.000000000000000,     0.000000000000000 ] # a
  - [    -2.105894964076435,     7.545301445807961,     0.000000000000000 ] # b
  - [    -2.126444345814736,     3.301289013437442,    -9.010613559183133 ] # c
  points:
  - symbol: Li # 1
    coordinates: [  0.199771789433969,  0.874841472726436,  0.280421498885878 ]
    mass: 6.940000
  - symbol: Li # 2
    coordinates: [  0.761527778175464,  0.284401462088757,  0.662283390666493 ]
    mass: 6.940000
  - symbol: Li # 3
    coordinates: [  0.967464130624066,  0.869605191592997,  0.774651401205653 ]
    mass: 6.940000
  - symbol: Li # 4
    coordinates: [  0.921600578793102,  0.655265559074248,  0.593047892265983 ]
    mass: 6.940000
  - symbol: Li # 5
    coordinates: [  0.896635414126393,  0.265752013885016,  0.194415258684333 ]
    mass: 6.940000
  - symbol: Li # 6
    coordinates: [  0.508293059693801,  0.477354564155268,  0.366122790685036 ]
    mass: 6.940000
  - symbol: Li # 7
    coordinates: [  0.257103004590538,  0.654390353524372,  0.077808668668246 ]
    mass: 6.940000
  - symbol: Li # 8
    coordinates: [  0.483305215412531,  0.084958022685465,  0.971681502634222 ]
    mass: 6.940000
  - symbol: Li # 9
    coordinates: [  0.147614567596245,  0.461012548158363,  0.899414450375157 ]
    mass: 6.940000
  - symbol: Li # 10
    coordinates: [  0.461340530500111,  0.871751239077684,  0.786569585934614 ]
    mass: 6.940000
  - symbol: Li # 11
    coordinates: [  0.191864434731530,  0.066763132359324,  0.495155878668948 ]
    mass: 6.940000
  - symbol: Li # 12
    coordinates: [  0.688832648319204,  0.867045821852226,  0.299203066019398 ]
    mass: 6.940000
  - symbol: Sn # 13
    coordinates: [  0.410531967489630,  0.669863617076603,  0.591901414608851 ]
    mass: 118.710000
  - symbol: Sn # 14
    coordinates: [  0.001738126460189,  0.488525970939938,  0.363741521808931 ]
    mass: 118.710000
  - symbol: Sn # 15
    coordinates: [  0.740119159342352,  0.694208340517664,  0.069172203623395 ]
    mass: 118.710000
  - symbol: Sn # 16
    coordinates: [  0.707324258186974,  0.056881891353416,  0.495816450574364 ]
    mass: 118.710000
  - symbol: Sn # 17
    coordinates: [  0.398572826509473,  0.243827765448566,  0.206187865689665 ]
    mass: 118.710000
  - symbol: Sn # 18
    coordinates: [  0.992254422913129,  0.052671604923957,  0.983184140489972 ]
    mass: 118.710000
  - symbol: Sn # 19
    coordinates: [  0.648739005248840,  0.461623175285101,  0.894026668279827 ]
    mass: 118.710000
  - symbol: Sn # 20
    coordinates: [  0.262221796779474,  0.273066254172639,  0.671600284616655 ]
    mass: 118.710000
  reciprocal_lattice: # without 2pi
  - [    -0.168782670026010,    -0.047107272967686,     0.022572517433046 ] # a*
  - [    -0.000000000000000,     0.132532809614331,     0.048557082758685 ] # b*
  - [    -0.000000000000000,     0.000000000000000,    -0.110980233857755 ] # c*

unit_cell:
  lattice:
  - [     5.924778887820043,     0.000000000000000,     0.000000000000000 ] # a
  - [    -2.105894964076435,     7.545301445807961,     0.000000000000000 ] # b
  - [    -3.798334542005307,    -3.301289013437442,     9.010613559183133 ] # c
  points:
  - symbol: Li # 1
    coordinates: [  0.519806711680152,  0.874841472726436,  0.719578501114122 ]
    mass: 6.940000
    reduced_to: 1
  - symbol: Li # 2
    coordinates: [  0.576188831158044,  0.284401462088757,  0.337716609333507 ]
    mass: 6.940000
    reduced_to: 2
  - symbol: Li # 3
    coordinates: [  0.257884468170281,  0.869605191592997,  0.225348598794347 ]
    mass: 6.940000
    reduced_to: 3
  - symbol: Li # 4
    coordinates: [  0.485351528940915,  0.655265559074248,  0.406952107734017 ]
    mass: 6.940000
    reduced_to: 4
  - symbol: Li # 5
    coordinates: [  0.908949327189274,  0.265752013885016,  0.805584741315667 ]
    mass: 6.940000
    reduced_to: 5
  - symbol: Li # 6
    coordinates: [  0.125584149621164,  0.477354564155268,  0.633877209314964 ]
    mass: 6.940000
    reduced_to: 6
  - symbol: Li # 7
    coordinates: [  0.665088326741216,  0.654390353524372,  0.922191331331754 ]
    mass: 6.940000
    reduced_to: 7
  - symbol: Li # 8
    coordinates: [  0.545013281953247,  0.084958022685465,  0.028318497365778 ]
    mass: 6.940000
    reduced_to: 8
  - symbol: Li # 9
    coordinates: [  0.952970982028598,  0.461012548158363,  0.100585549624843 ]
    mass: 6.940000
    reduced_to: 9
  - symbol: Li # 10
    coordinates: [  0.752089883565276,  0.871751239077684,  0.213430414065386 ]
    mass: 6.940000
    reduced_to: 10
  - symbol: Li # 11
    coordinates: [  0.312979686599522,  0.066763132359324,  0.504844121331052 ]
    mass: 6.940000
    reduced_to: 11
  - symbol: Li # 12
    coordinates: [  0.011964285661398,  0.867045821852226,  0.700796933980602 ]
    mass: 6.940000
    reduced_to: 12
  - symbol: Sn # 13
    coordinates: [  0.997566617901519,  0.669863617076603,  0.408098585391149 ]
    mass: 118.710000
    reduced_to: 13
  - symbol: Sn # 14
    coordinates: [  0.634520351730880,  0.488525970939939,  0.636258478191069 ]
    mass: 118.710000
    reduced_to: 14
  - symbol: Sn # 15
    coordinates: [  0.190708637034254,  0.694208340517664,  0.930827796376605 ]
    mass: 118.710000
    reduced_to: 15
  - symbol: Sn # 16
    coordinates: [  0.796859291238661,  0.056881891353416,  0.504183549425636 ]
    mass: 118.710000
    reduced_to: 16
  - symbol: Sn # 17
    coordinates: [  0.395239307800862,  0.243827765448566,  0.793812134310335 ]
    mass: 118.710000
    reduced_to: 17
  - symbol: Sn # 18
    coordinates: [  0.024561436596899,  0.052671604923957,  0.016815859510028 ]
    mass: 118.710000
    reduced_to: 18
  - symbol: Sn # 19
    coordinates: [  0.457234326471333,  0.461623175285101,  0.105973331720173 ]
    mass: 118.710000
    reduced_to: 19
  - symbol: Sn # 20
    coordinates: [  0.066177918603871,  0.273066254172639,  0.328399715383345 ]
    mass: 118.710000
    reduced_to: 20

supercell:
  lattice:
  - [    11.849557775640086,     0.000000000000000,     0.000000000000000 ] # a
  - [    -4.211789928152870,    15.090602891615921,     0.000000000000000 ] # b
  - [    -3.798334542005307,    -3.301289013437442,     9.010613559183133 ] # c
  points:
  - symbol: Li # 1
    coordinates: [  0.259903355840076,  0.437420736363218,  0.719578501114122 ]
    mass: 6.940000
    reduced_to: 1
  - symbol: Li # 2
    coordinates: [  0.759903355840076,  0.437420736363218,  0.719578501114122 ]
    mass: 6.940000
    reduced_to: 1
  - symbol: Li # 3
    coordinates: [  0.259903355840076,  0.937420736363218,  0.719578501114122 ]
    mass: 6.940000
    reduced_to: 1
  - symbol: Li # 4
    coordinates: [  0.759903355840076,  0.937420736363218,  0.719578501114122 ]
    mass: 6.940000
    reduced_to: 1
  - symbol: Li # 5
    coordinates: [  0.288094415579022,  0.142200731044378,  0.337716609333507 ]
    mass: 6.940000
    reduced_to: 5
  - symbol: Li # 6
    coordinates: [  0.788094415579022,  0.142200731044378,  0.337716609333507 ]
    mass: 6.940000
    reduced_to: 5
  - symbol: Li # 7
    coordinates: [  0.288094415579022,  0.642200731044378,  0.337716609333507 ]
    mass: 6.940000
    reduced_to: 5
  - symbol: Li # 8
    coordinates: [  0.788094415579022,  0.642200731044378,  0.337716609333507 ]
    mass: 6.940000
    reduced_to: 5
  - symbol: Li # 9
    coordinates: [  0.128942234085140,  0.434802595796499,  0.225348598794347 ]
    mass: 6.940000
    reduced_to: 9
  - symbol: Li # 10
    coordinates: [  0.628942234085140,  0.434802595796499,  0.225348598794347 ]
    mass: 6.940000
    reduced_to: 9
  - symbol: Li # 11
    coordinates: [  0.128942234085140,  0.934802595796499,  0.225348598794347 ]
    mass: 6.940000
    reduced_to: 9
  - symbol: Li # 12
    coordinates: [  0.628942234085140,  0.934802595796499,  0.225348598794347 ]
    mass: 6.940000
    reduced_to: 9
  - symbol: Li # 13
    coordinates: [  0.242675764470458,  0.327632779537124,  0.406952107734017 ]
    mass: 6.940000
    reduced_to: 13
  - symbol: Li # 14
    coordinates: [  0.742675764470458,  0.327632779537124,  0.406952107734017 ]
    mass: 6.940000
    reduced_to: 13
  - symbol: Li # 15
    coordinates: [  0.242675764470458,  0.827632779537124,  0.406952107734017 ]
    mass: 6.940000
    reduced_to: 13
  - symbol: Li # 16
    coordinates: [  0.742675764470458,  0.827632779537124,  0.406952107734017 ]
    mass: 6.940000
    reduced_to: 13
  - symbol: Li # 17
    coordinates: [  0.454474663594637,  0.132876006942508,  0.805584741315667 ]
    mass: 6.940000
    reduced_to: 17
  - symbol: Li # 18
    coordinates: [  0.954474663594637,  0.132876006942508,  0.805584741315667 ]
    mass: 6.940000
    reduced_to: 17
  - symbol: Li # 19
    coordinates: [  0.454474663594637,  0.632876006942508,  0.805584741315667 ]
    mass: 6.940000
    reduced_to: 17
  - symbol: Li # 20
    coordinates: [  0.954474663594637,  0.632876006942508,  0.805584741315667 ]
    mass: 6.940000
    reduced_to: 17
  - symbol: Li # 21
    coordinates: [  0.062792074810582,  0.238677282077634,  0.633877209314964 ]
    mass: 6.940000
    reduced_to: 21
  - symbol: Li # 22
    coordinates: [  0.562792074810582,  0.238677282077634,  0.633877209314964 ]
    mass: 6.940000
    reduced_to: 21
  - symbol: Li # 23
    coordinates: [  0.062792074810582,  0.738677282077634,  0.633877209314964 ]
    mass: 6.940000
    reduced_to: 21
  - symbol: Li # 24
    coordinates: [  0.562792074810582,  0.738677282077634,  0.633877209314964 ]
    mass: 6.940000
    reduced_to: 21
  - symbol: Li # 25
    coordinates: [  0.332544163370608,  0.327195176762186,  0.922191331331754 ]
    mass: 6.940000
    reduced_to: 25
  - symbol: Li # 26
    coordinates: [  0.832544163370608,  0.327195176762186,  0.922191331331754 ]
    mass: 6.940000
    reduced_to: 25
  - symbol: Li # 27
    coordinates: [  0.332544163370608,  0.827195176762186,  0.922191331331754 ]
    mass: 6.940000
    reduced_to: 25
  - symbol: Li # 28
    coordinates: [  0.832544163370608,  0.827195176762186,  0.922191331331754 ]
    mass: 6.940000
    reduced_to: 25
  - symbol: Li # 29
    coordinates: [  0.272506640976623,  0.042479011342733,  0.028318497365778 ]
    mass: 6.940000
    reduced_to: 29
  - symbol: Li # 30
    coordinates: [  0.772506640976623,  0.042479011342733,  0.028318497365778 ]
    mass: 6.940000
    reduced_to: 29
  - symbol: Li # 31
    coordinates: [  0.272506640976623,  0.542479011342732,  0.028318497365778 ]
    mass: 6.940000
    reduced_to: 29
  - symbol: Li # 32
    coordinates: [  0.772506640976623,  0.542479011342732,  0.028318497365778 ]
    mass: 6.940000
    reduced_to: 29
  - symbol: Li # 33
    coordinates: [  0.476485491014299,  0.230506274079182,  0.100585549624843 ]
    mass: 6.940000
    reduced_to: 33
  - symbol: Li # 34
    coordinates: [  0.976485491014299,  0.230506274079182,  0.100585549624843 ]
    mass: 6.940000
    reduced_to: 33
  - symbol: Li # 35
    coordinates: [  0.476485491014299,  0.730506274079182,  0.100585549624843 ]
    mass: 6.940000
    reduced_to: 33
  - symbol: Li # 36
    coordinates: [  0.976485491014299,  0.730506274079182,  0.100585549624843 ]
    mass: 6.940000
    reduced_to: 33
  - symbol: Li # 37
    coordinates: [  0.376044941782638,  0.435875619538842,  0.213430414065386 ]
    mass: 6.940000
    reduced_to: 37
  - symbol: Li # 38
    coordinates: [  0.876044941782638,  0.435875619538842,  0.213430414065386 ]
    mass: 6.940000
    reduced_to: 37
  - symbol: Li # 39
    coordinates: [  0.376044941782638,  0.935875619538842,  0.213430414065386 ]
    mass: 6.940000
    reduced_to: 37
  - symbol: Li # 40
    coordinates: [  0.876044941782638,  0.935875619538842,  0.213430414065386 ]
    mass: 6.940000
    reduced_to: 37
  - symbol: Li # 41
    coordinates: [  0.156489843299761,  0.033381566179662,  0.504844121331052 ]
    mass: 6.940000
    reduced_to: 41
  - symbol: Li # 42
    coordinates: [  0.656489843299761,  0.033381566179662,  0.504844121331052 ]
    mass: 6.940000
    reduced_to: 41
  - symbol: Li # 43
    coordinates: [  0.156489843299761,  0.533381566179662,  0.504844121331052 ]
    mass: 6.940000
    reduced_to: 41
  - symbol: Li # 44
    coordinates: [  0.656489843299761,  0.533381566179662,  0.504844121331052 ]
    mass: 6.940000
    reduced_to: 41
  - symbol: Li # 45
    coordinates: [  0.005982142830699,  0.433522910926113,  0.700796933980602 ]
    mass: 6.940000
    reduced_to: 45
  - symbol: Li # 46
    coordinates: [  0.505982142830699,  0.433522910926113,  0.700796933980602 ]
    mass: 6.940000
    reduced_to: 45
  - symbol: Li # 47
    coordinates: [  0.005982142830699,  0.933522910926113,  0.700796933980602 ]
    mass: 6.940000
    reduced_to: 45
  - symbol: Li # 48
    coordinates: [  0.505982142830699,  0.933522910926113,  0.700796933980602 ]
    mass: 6.940000
    reduced_to: 45
  - symbol: Sn # 49
    coordinates: [  0.498783308950760,  0.334931808538302,  0.408098585391149 ]
    mass: 118.710000
    reduced_to: 49
  - symbol: Sn # 50
    coordinates: [  0.998783308950760,  0.334931808538302,  0.408098585391149 ]
    mass: 118.710000
    reduced_to: 49
  - symbol: Sn # 51
    coordinates: [  0.498783308950760,  0.834931808538302,  0.408098585391149 ]
    mass: 118.710000
    reduced_to: 49
  - symbol: Sn # 52
    coordinates: [  0.998783308950760,  0.834931808538302,  0.408098585391149 ]
    mass: 118.710000
    reduced_to: 49
  - symbol: Sn # 53
    coordinates: [  0.317260175865440,  0.244262985469969,  0.636258478191069 ]
    mass: 118.710000
    reduced_to: 53
  - symbol: Sn # 54
    coordinates: [  0.817260175865440,  0.244262985469969,  0.636258478191069 ]
    mass: 118.710000
    reduced_to: 53
  - symbol: Sn # 55
    coordinates: [  0.317260175865440,  0.744262985469969,  0.636258478191069 ]
    mass: 118.710000
    reduced_to: 53
  - symbol: Sn # 56
    coordinates: [  0.817260175865440,  0.744262985469969,  0.636258478191069 ]
    mass: 118.710000
    reduced_to: 53
  - symbol: Sn # 57
    coordinates: [  0.095354318517127,  0.347104170258832,  0.930827796376605 ]
    mass: 118.710000
    reduced_to: 57
  - symbol: Sn # 58
    coordinates: [  0.595354318517127,  0.347104170258832,  0.930827796376605 ]
    mass: 118.710000
    reduced_to: 57
  - symbol: Sn # 59
    coordinates: [  0.095354318517127,  0.847104170258832,  0.930827796376605 ]
    mass: 118.710000
    reduced_to: 57
  - symbol: Sn # 60
    coordinates: [  0.595354318517127,  0.847104170258832,  0.930827796376605 ]
    mass: 118.710000
    reduced_to: 57
  - symbol: Sn # 61
    coordinates: [  0.398429645619331,  0.028440945676708,  0.504183549425636 ]
    mass: 118.710000
    reduced_to: 61
  - symbol: Sn # 62
    coordinates: [  0.898429645619331,  0.028440945676708,  0.504183549425636 ]
    mass: 118.710000
    reduced_to: 61
  - symbol: Sn # 63
    coordinates: [  0.398429645619331,  0.528440945676708,  0.504183549425636 ]
    mass: 118.710000
    reduced_to: 61
  - symbol: Sn # 64
    coordinates: [  0.898429645619331,  0.528440945676708,  0.504183549425636 ]
    mass: 118.710000
    reduced_to: 61
  - symbol: Sn # 65
    coordinates: [  0.197619653900431,  0.121913882724283,  0.793812134310335 ]
    mass: 118.710000
    reduced_to: 65
  - symbol: Sn # 66
    coordinates: [  0.697619653900431,  0.121913882724283,  0.793812134310335 ]
    mass: 118.710000
    reduced_to: 65
  - symbol: Sn # 67
    coordinates: [  0.197619653900431,  0.621913882724283,  0.793812134310335 ]
    mass: 118.710000
    reduced_to: 65
  - symbol: Sn # 68
    coordinates: [  0.697619653900431,  0.621913882724283,  0.793812134310335 ]
    mass: 118.710000
    reduced_to: 65
  - symbol: Sn # 69
    coordinates: [  0.012280718298450,  0.026335802461979,  0.016815859510028 ]
    mass: 118.710000
    reduced_to: 69
  - symbol: Sn # 70
    coordinates: [  0.512280718298450,  0.026335802461979,  0.016815859510028 ]
    mass: 118.710000
    reduced_to: 69
  - symbol: Sn # 71
    coordinates: [  0.012280718298450,  0.526335802461979,  0.016815859510028 ]
    mass: 118.710000
    reduced_to: 69
  - symbol: Sn # 72
    coordinates: [  0.512280718298450,  0.526335802461979,  0.016815859510028 ]
    mass: 118.710000
    reduced_to: 69
  - symbol: Sn # 73
    coordinates: [  0.228617163235666,  0.230811587642551,  0.105973331720173 ]
    mass: 118.710000
    reduced_to: 73
  - symbol: Sn # 74
    coordinates: [  0.728617163235666,  0.230811587642551,  0.105973331720173 ]
    mass: 118.710000
    reduced_to: 73
  - symbol: Sn # 75
    coordinates: [  0.228617163235666,  0.730811587642551,  0.105973331720173 ]
    mass: 118.710000
    reduced_to: 73
  - symbol: Sn # 76
    coordinates: [  0.728617163235666,  0.730811587642551,  0.105973331720173 ]
    mass: 118.710000
    reduced_to: 73
  - symbol: Sn # 77
    coordinates: [  0.033088959301935,  0.136533127086319,  0.328399715383345 ]
    mass: 118.710000
    reduced_to: 77
  - symbol: Sn # 78
    coordinates: [  0.533088959301935,  0.136533127086319,  0.328399715383345 ]
    mass: 118.710000
    reduced_to: 77
  - symbol: Sn # 79
    coordinates: [  0.033088959301935,  0.636533127086319,  0.328399715383345 ]
    mass: 118.710000
    reduced_to: 77
  - symbol: Sn # 80
    coordinates: [  0.533088959301935,  0.636533127086319,  0.328399715383345 ]
    mass: 118.710000
    reduced_to: 77

displacements:
- atom:    1
  displacement:
    [   0.0100000000000000,  0.0000000000000000,  0.0000000000000000 ]
  forces:
  - [  -0.0035996122751385,  0.0093141179531813, -0.0068545900285244 ]
  - [   0.0119162555783987,  0.0095992097631097, -0.0032138638198376 ]
  - [   0.0123392492532730,  0.0095916092395782, -0.0031710304319859 ]
  - [   0.0123297832906246,  0.0095728076994419, -0.0031548291444778 ]
  - [  -0.0153294447809458, -0.0072858110070229,  0.0284009687602520 ]
  - [  -0.0152786159887910, -0.0071643106639385,  0.0283324085175991 ]
  - [  -0.0152669278904796, -0.0071501433849335,  0.0283722132444382 ]
  - [  -0.0154349245131016, -0.0072882939130068,  0.0279034040868282 ]
  - [  -0.0164695624262094,  0.0194806400686502, -0.0054265484213829 ]
  - [  -0.0164268482476473,  0.0197267513722181, -0.0054817004129291 ]
  - [  -0.0163990259170532,  0.0194646455347538, -0.0054176049306989 ]
  - [  -0.0163992457091808,  0.0194653980433941, -0.0054240291938186 ]
  - [   0.0272180065512657,  0.0155364843085408, -0.0116715822368860 ]
  - [   0.0270084086805582,  0.0156215596944094, -0.0108182067051530 ]
  - [   0.0268395505845547,  0.0155717134475708, -0.0109346285462379 ]
  - [   0.0268159173429012,  0.0156106604263186, -0.0108981840312481 ]
  - [  -0.0034578591585159,  0.0029467195272446, -0.0227297060191631 ]
  - [  -0.0032851919531822,  0.0027373172342777, -0.0225792340934277 ]
  - [  -0.0029976814985275,  0.0041871704161167, -0.0222872346639633 ]
  - [  -0.0033277235925198,  0.0025853477418423, -0.0225204005837440 ]
  - [  -0.0166784785687923, -0.0059830117970705,  0.0228928700089455 ]
  - [  -0.0170076228678226, -0.0073233991861343,  0.0223785005509853 ]
  - [  -0.0172117091715336, -0.0068507101386786,  0.0220674090087414 ]
  - [  -0.0169537104666233, -0.0070928633213043,  0.0224056802690029 ]
  - [  -0.0325371548533440, -0.0185807310044765, -0.0025377282872796 ]
  - [  -0.0325822047889233, -0.0180258620530367, -0.0031975777819753 ]
  - [  -0.0323565527796745, -0.0174703262746334, -0.0029063150286674 ]
  - [  -0.0325050540268421, -0.0179672464728355, -0.0032196454703808 ]
  - [  -0.0099562192335725, -0.0189178399741650, -0.0035785818472505 ]
  - [  -0.0099790170788765, -0.0189483780413866, -0.0036616232246161 ]
  - [  -0.0097886091098189, -0.0190652459859848, -0.0046887230128050 ]
  - [  -0.0099254902452230, -0.0189087074249983, -0.0034911679103971 ]
  - [   0.0171364508569241,  0.0118529498577118, -0.0037215072661638 ]
  - [   0.0171702858060598,  0.0118119008839130, -0.0039022960700095 ]
  - [   0.0170479416847229,  0.0120897777378559, -0.0037564053200185 ]
  - [   0.0171051584184170,  0.0119149535894394, -0.0037248693406582 ]
  - [  -0.0003763269633055, -0.0065609291195869,  0.0132796764373779 ]
  - [  -0.0003366619348526, -0.0066576898097992,  0.0133443158119917 ]
  - [  -0.0003675715997815, -0.0066138263791800,  0.0132715199142694 ]
  - [  -0.0003490019589663, -0.0066025406122208,  0.0132603067904711 ]
  - [   0.0065725296735764,  0.0354496240615845, -0.0063103549182415 ]
  - [   0.0064531378448009,  0.0350934416055679, -0.0064789801836014 ]
  - [   0.0067496299743652,  0.0341924503445625, -0.0056853294372559 ]
  - [   0.0064046755433083,  0.0350673273205757, -0.0064474605023861 ]
  - [   0.0208707731217146, -0.0000597424805164,  0.0048522055149078 ]
  - [   0.0200279317796230,  0.0001102499663830,  0.0041950903832912 ]
  - [   0.0155631247907877, -0.0001242943108082,  0.0042917318642139 ]
  - [   0.0155668128281832, -0.0001256316900253,  0.0042968131601810 ]
  - [   0.0098921023309231, -0.0009783655405045, -0.0169881954789162 ]
  - [   0.0102413073182106, -0.0011415071785450, -0.0168604124337435 ]
  - [   0.0095747783780098, -0.0008712112903595, -0.0168008320033550 ]
  - [   0.0096309781074524, -0.0009365379810333, -0.0167883224785328 ]
  - [  -0.0134726883843541, -0.0164749138057232,  0.0119998995214701 ]
  - [  -0.0137979071587324, -0.0163718424737453,  0.0122694298624992 ]
  - [  -0.0142392469570041, -0.0164366699755192,  0.0122500490397215 ]
  - [  -0.0141298947855830, -0.0166087709367275,  0.0122128017246723 ]
  - [  -0.0084844380617142, -0.0125709399580956,  0.0219035819172859 ]
  - [  -0.0083471424877644, -0.0117543525993824,  0.0213589966297150 ]
  - [  -0.0082031954079866, -0.0118711404502392,  0.0212839189916849 ]
  - [  -0.0083623602986336, -0.0119407139718533,  0.0212859660387039 ]
  - [   0.0040170066058636,  0.0230762884020805,  0.0073958965949714 ]
  - [   0.0037899613380432,  0.0231066923588514,  0.0073964186012745 ]
  - [   0.0036611631512642,  0.0223794318735600,  0.0079044904559851 ]
  - [   0.0041645430028439,  0.0230258591473103,  0.0076432339847088 ]
  - [   0.0265709981322289,  0.0039283614605665, -0.0000238046050072 ]
  - [   0.0265505760908127,  0.0037646647542715,  0.0000153779983521 ]
  - [   0.0276966132223606,  0.0030631236732006,  0.0000867359340191 ]
  - [   0.0269137434661388,  0.0039233230054379,  0.0000074096024036 ]
  - [  -0.0265654809772968, -0.0048396028578281,  0.0074088834226131 ]
  - [  -0.0265410467982292, -0.0047927200794220,  0.0074354633688927 ]
  - [  -0.0262552686035633, -0.0049301944673061,  0.0071406848728657 ]
  - [  -0.0243582129478455, -0.0051464643329382,  0.0093702375888824 ]
  - [   0.0127902068197727,  0.0046203420497477, -0.0173545572906733 ]
  - [   0.0128295775502920,  0.0044109453447163, -0.0173973757773638 ]
  - [   0.0128381177783012,  0.0044351606629789, -0.0172566697001457 ]
  - [   0.0128159979358315,  0.0042927716858685, -0.0174631513655186 ]
  - [   0.0124724134802818, -0.0335196256637573, -0.0231836996972561 ]
  - [   0.0125019997358322, -0.0336104556918144, -0.0232644528150558 ]
  - [   0.0125391855835915, -0.0335286557674408, -0.0231877323240042 ]
  - [   0.0127140469849110, -0.0335295647382736, -0.0234533865004778 ]
- atom:    1
  displacement:
    [  -0.0100000000000000,  0.0000000000000000,  0.0000000000000000 ]
  forces:
  - [   0.0282880645245314,  0.0097579136490822,  0.0005542561411858 ]
  - [   0.0127343265339732,  0.0095575265586376, -0.0030972212553024 ]
  - [   0.0123104378581047,  0.0095628900453448, -0.0031356550753117 ]
  - [   0.0123186688870192,  0.0095822624862194, -0.0031530261039734 ]
  - [  -0.0152057949453592, -0.0071447305381298,  0.0281018093228340 ]
  - [  -0.0152556262910366, -0.0072669237852097,  0.0281692966818810 ]
  - [  -0.0152677437290549, -0.0072827413678169,  0.0281287319958210 ]
  - [  -0.0151006970554590, -0.0071433708071709,  0.0285957939922810 ]
  - [  -0.0163285303860903,  0.0194275286048651, -0.0054347058758140 ]
  - [  -0.0163684133440256,  0.0191826783120632, -0.0053763845935464 ]
  - [  -0.0163981132209301,  0.0194478482007980, -0.0054464815184474 ]
  - [  -0.0163987725973129,  0.0194454248994589, -0.0054345959797502 ]
  - [   0.0263417176902294,  0.0156479105353355, -0.0101056424900889 ]
  - [   0.0265455003827810,  0.0155687900260091, -0.0109530845656991 ]
  - [   0.0267218407243490,  0.0156165109947324, -0.0108342729508877 ]
  - [   0.0267464760690928,  0.0155782857909799, -0.0108730252832174 ]
  - [  -0.0031690858304501,  0.0025069452822208, -0.0223452486097813 ]
  - [  -0.0033396296203136,  0.0027136281132698, -0.0224938541650772 ]
  - [  -0.0036241095513105,  0.0012712217867374, -0.0227804221212864 ]
  - [  -0.0033018924295902,  0.0028665997087955, -0.0225531011819839 ]
  - [  -0.0172302760183811, -0.0083939470350742,  0.0219023376703262 ]
  - [  -0.0168971493840218, -0.0070473253726959,  0.0224194861948490 ]
  - [  -0.0166965462267399, -0.0075244270265102,  0.0227364003658295 ]
  - [  -0.0169538594782352, -0.0072796829044819,  0.0223947465419769 ]
  - [  -0.0324888937175274, -0.0173716060817242, -0.0038705812767148 ]
  - [  -0.0324353240430355, -0.0179366245865822, -0.0032051429152489 ]
  - [  -0.0326638780534267, -0.0184933766722679, -0.0034992415457964 ]
  - [  -0.0325168222188950, -0.0179910715669394, -0.0031837522983551 ]
  - [  -0.0099507663398981, -0.0189322605729103, -0.0036588385701180 ]
  - [  -0.0099259074777365, -0.0189026352018118, -0.0035753287374973 ]
  - [  -0.0101194111630321, -0.0187808573246002, -0.0025426540523767 ]
  - [  -0.0099774654954672, -0.0189392492175102, -0.0037424396723509 ]
  - [   0.0171085000038147,  0.0119961984455585, -0.0038136076182127 ]
  - [   0.0170755106955767,  0.0120445117354393, -0.0036309501156211 ]
  - [   0.0171927101910114,  0.0117594227194786, -0.0037815705873072 ]
  - [   0.0171377342194319,  0.0119354501366615, -0.0038116667419672 ]
  - [  -0.0003561284393072, -0.0066954214125872,  0.0131940990686417 ]
  - [  -0.0003981804475188, -0.0066009927541018,  0.0131291318684816 ]
  - [  -0.0003652563318610, -0.0066491607576609,  0.0132042653858662 ]
  - [  -0.0003837319090962, -0.0066595189273357,  0.0132150836288929 ]
  - [   0.0063066519796848,  0.0347306989133358, -0.0066296458244324 ]
  - [   0.0064269416034222,  0.0350787527859211, -0.0064659416675568 ]
  - [   0.0061266832053661,  0.0359810031950474, -0.0072584338486195 ]
  - [   0.0064741894602776,  0.0351062156260014, -0.0064946748316288 ]
  - [   0.0101711601018906, -0.0001466609537601,  0.0037646479904652 ]
  - [   0.0112392697483301, -0.0003235489130020,  0.0044220015406609 ]
  - [   0.0156006850302219, -0.0000878870487213,  0.0043325386941433 ]
  - [   0.0155958421528339, -0.0000874884426594,  0.0043285042047501 ]
  - [   0.0093574151396751, -0.0009312331676483, -0.0166188925504684 ]
  - [   0.0090009309351444, -0.0007725507020950, -0.0167677868157625 ]
  - [   0.0096785798668861, -0.0010295398533344, -0.0168155524879694 ]
  - [   0.0096140764653683, -0.0009692870080471, -0.0168236698955297 ]
  - [  -0.0146858384832740, -0.0166374705731869,  0.0122982710599899 ]
  - [  -0.0143648758530617, -0.0167179778218269,  0.0120398253202438 ]
  - [  -0.0139397894963622, -0.0166633613407612,  0.0120618753135204 ]
  - [  -0.0140408743172884, -0.0164839290082455,  0.0120967812836170 ]
  - [  -0.0081353019922972, -0.0109829045832157,  0.0207749493420124 ]
  - [  -0.0082869511097670, -0.0118135921657085,  0.0213298853486776 ]
  - [  -0.0084208305925131, -0.0117028206586838,  0.0214055180549622 ]
  - [  -0.0082617085427046, -0.0116318836808205,  0.0214052908122540 ]
  - [   0.0036201104521751,  0.0234072934836149,  0.0075270598754287 ]
  - [   0.0038446933031082,  0.0233832187950611,  0.0075285295024514 ]
  - [   0.0039754249155521,  0.0241005010902882,  0.0070282728411257 ]
  - [   0.0034386925399303,  0.0234832782298326,  0.0072661228477955 ]
  - [   0.0266756713390350,  0.0037155020982027, -0.0000971257686615 ]
  - [   0.0266963131725788,  0.0038750153034925, -0.0001313947141171 ]
  - [   0.0255187191069126,  0.0046156775206327, -0.0001938939094543 ]
  - [   0.0263397023081779,  0.0037196520715952, -0.0001286678016186 ]
  - [  -0.0265438929200172, -0.0048593915998936,  0.0074346214532852 ]
  - [  -0.0265674963593483, -0.0049069300293922,  0.0074090510606766 ]
  - [  -0.0268516615033150, -0.0047658160328865,  0.0077045485377312 ]
  - [  -0.0287356004118919, -0.0045395251363516,  0.0055271200835705 ]
  - [   0.0128160864114761,  0.0041288756765425, -0.0174357257783413 ]
  - [   0.0127811739221215,  0.0043398505076766, -0.0173887461423874 ]
  - [   0.0127701479941607,  0.0043121012859046, -0.0175324287265539 ]
  - [   0.0127925602719188,  0.0044551361352205, -0.0173268336802721 ]
  - [   0.0127266235649586, -0.0337279587984085, -0.0233309194445610 ]
  - [   0.0126980692148209, -0.0336386747658253, -0.0232578683644533 ]
  - [   0.0126608498394489, -0.0337224975228310, -0.0233331285417080 ]
  - [   0.0124840848147869, -0.0337234996259212, -0.0230669975280762 ]
- atom:    1
  displacement:
    [  -0.0026882614096469,  0.0096318871771529,  0.0000000000000000 ]
  forces:
  - [   0.0164377018809319, -0.0027022073045373, -0.0014945715665817 ]
  - [   0.0124558685347438,  0.0095084719359875, -0.0030980780720711 ]
  - [   0.0123345898464322,  0.0095052495598793, -0.0031460039317608 ]
  - [   0.0123184155672789,  0.0095740295946598, -0.0031549185514450 ]
  - [  -0.0151439523324370, -0.0070933140814304,  0.0278663076460361 ]
  - [  -0.0151990558952093, -0.0070923622697592,  0.0282809659838676 ]
  - [  -0.0152343148365617, -0.0071514099836349,  0.0280588716268539 ]