# Thermal properties / unit cell (natom)

unit:
  temperature:   K
  free_energy:   kJ/mol
  entropy:       J/K/mol
  heat_capacity: J/K/mol

natom: 20   
cutoff_frequency: 0.00000
num_modes: 166320
num_integrated_modes: 165824

zero_point_energy:      67.7488589

thermal_properties:
- temperature:         0.0000000
  free_energy:        67.7488589
  entropy:             0.0000000
  heat_capacity:       0.0000000
  energy:             67.7488589

- temperature:        10.0000000
  free_energy:        67.7353035
  entropy:             4.6588007
  heat_capacity:      11.6308853
  energy:             67.7818915

- temperature:        20.0000000
  free_energy:        67.6003385
  entropy:            25.1301001
  heat_capacity:      56.1159438
  energy:             68.1029405

- temperature:        30.0000000
  free_energy:        67.1946598
  entropy:            56.9877906
  heat_capacity:     102.2482494
  energy:             68.9042935

- temperature:        40.0000000
  free_energy:        66.4529091
  entropy:            91.3698371
  heat_capacity:     136.8009176
  energy:             70.1077026

- temperature:        50.0000000
  free_energy:        65.3701882
  entropy:           124.9580926
  heat_capacity:     164.6141324
  energy:             71.6180928

- temperature:        60.0000000
  free_energy:        63.9581656
  entropy:           157.2390530
  heat_capacity:     190.0855023
  energy:             73.3925088

- temperature:        70.0000000
  free_energy:        62.2291098
  entropy:           188.4082767
  heat_capacity:     214.8724363
  energy:             75.4176892

- temperature:        80.0000000
  free_energy:        60.1929499
  entropy:           218.6885629
  heat_capacity:     239.0675611
  energy:             77.6880350

- temperature:        90.0000000
  free_energy:        57.8579015
  entropy:           248.1970636
  heat_capacity:     262.2428413
  energy:             80.1956373

- temperature:       100.0000000
  free_energy:        55.2314709
  entropy:           276.9655007
  heat_capacity:     283.9627293
  energy:             82.9280209

- temperature:       110.0000000
  free_energy:        52.3210972
  entropy:           304.9818341
  heat_capacity:     303.9505143
  energy:             85.8690990

- temperature:       120.0000000
  free_energy:        49.1344270
  entropy:           332.2204460
  heat_capacity:     322.0972936
  energy:             89.0008805

- temperature:       130.0000000
  free_energy:        45.6793581
  entropy:           358.6584476
  heat_capacity:     338.4201014
  energy:             92.3049563

- temperature:       140.0000000
  free_energy:        41.9639726
  entropy:           384.2824699
  heat_capacity:     353.0150025
  energy:             95.7635184

- temperature:       150.0000000
  free_energy:        37.9964310
  entropy:           409.0901595
  heat_capacity:     366.0199772
  energy:             99.3599549

- temperature:       160.0000000
  free_energy:        33.7848659
  entropy:           433.0891722
  heat_capacity:     377.5896099
  energy:            103.0791334

- temperature:       170.0000000
  free_energy:        29.3372913
  entropy:           456.2952392
  heat_capacity:     387.8794365
  energy:            106.9074820

- temperature:       180.0000000
  free_energy:        24.6615323
  entropy:           478.7300972
  heat_capacity:     397.0371174
  energy:            110.8329497

- temperature:       190.0000000
  free_energy:        19.7651741
  entropy:           500.4196281
  heat_capacity:     405.1980558
  energy:            114.8449034

- temperature:       200.0000000
  free_energy:        14.6555293
  entropy:           521.3923282
  heat_capacity:     412.4837408
  energy:            118.9339949

- temperature:       210.0000000
  free_energy:         9.3396173
  entropy:           541.6781106
  heat_capacity:     419.0016679
  energy:            123.0920205

- temperature:       220.0000000
  free_energy:         3.8241553
  entropy:           561.3074059
  heat_capacity:     424.8461067
  energy:            127.3117847

- temperature:       230.0000000
  free_energy:        -1.8844436
  entropy:           580.3105066
  heat_capacity:     430.0992711
  energy:            131.5869730

- temperature:       240.0000000
  free_energy:        -7.7800665
  entropy:           598.7171041
  heat_capacity:     434.8326304
  energy:            135.9120384

- temperature:       250.0000000
  free_energy:       -13.8568933
  entropy:           616.5559756
  heat_capacity:     439.1082144
  energy:            140.2821006

- temperature:       260.0000000
  free_energy:       -20.1093860
  entropy:           633.8547806
  heat_capacity:     442.9798373
  energy:            144.6928570

- temperature:       270.0000000
  free_energy:       -26.5322769
  entropy:           650.6399410
  heat_capacity:     446.4942045
  energy:            149.1405071

- temperature:       280.0000000
  free_energy:       -33.1205565
  entropy:           666.9365807
  heat_capacity:     449.6918927
  energy:            153.6216861

- temperature:       290.0000000
  free_energy:       -39.8694597
  entropy:           682.7685077
  heat_capacity:     452.6082047
  energy:            158.1334076

- temperature:       300.0000000
  free_energy:       -46.7744528
  entropy:           698.1582268
  heat_capacity:     455.2739084
  energy:            162.6730152

- temperature:       310.0000000
  free_energy:       -53.8312211
  entropy:           713.1269722
  heat_capacity:     457.7158725
  energy:            167.2381403

- temperature:       320.0000000
  free_energy:       -61.0356558
  entropy:           727.6947544
  heat_capacity:     459.9576098
  energy:            171.8266656

- temperature:       330.0000000
  free_energy:       -68.3838426
  entropy:           741.8804141
  heat_capacity:     462.0197420
  energy:            176.4366941

- temperature:       340.0000000
  free_energy:       -75.8720496
  entropy:           755.7016823
  heat_capacity:     463.9203960
  energy:            181.0665224

- temperature:       350.0000000
  free_energy:       -83.4967173
  entropy:           769.1752414
  heat_capacity:     465.6755428
  energy:            185.7146172

- temperature:       360.0000000
  free_energy:       -91.2544478
  entropy:           782.3167867
  heat_capacity:     467.2992858
  energy:            190.3795954

- temperature:       370.0000000
  free_energy:       -99.1419956
  entropy:           795.1410873
  heat_capacity:     468.8041080
  energy:            195.0602067

- temperature:       380.0000000
  free_energy:      -107.1562585
  entropy:           807.6620440
  heat_capacity:     470.2010831
  energy:            199.7553182

- temperature:       390.0000000
  free_energy:      -115.2942691
  entropy:           819.8927458
  heat_capacity:     471.5000566
  energy:            204.4639018

- temperature:       400.0000000
  free_energy:      -123.5531871
  entropy:           831.8455228
  heat_capacity:     472.7098012
  energy:            209.1850220

- temperature:       410.0000000
  free_energy:      -131.9302919
  entropy:           843.5319964
  heat_capacity:     473.8381508
  energy:            213.9178266

- temperature:       420.0000000
  free_energy:      -140.4229759
  entropy:           854.9631264
  heat_capacity:     474.8921153
  energy:            218.6615372

- temperature:       430.0000000
  free_energy:      -149.0287379
  entropy:           866.1492554
  heat_capacity:     475.8779802
  energy:            223.4154420

- temperature:       440.0000000
  free_energy:      -157.7451770
  entropy:           877.1001492
  heat_capacity:     476.8013929
  energy:            228.1788887

- temperature:       450.0000000
  free_energy:      -166.5699875
  entropy:           887.8250359
  heat_capacity:     477.6674374
  energy:            232.9512786

- temperature:       460.0000000
  free_energy:      -175.5009535
  entropy:           898.3326413
  heat_capacity:     478.4806989
  energy:            237.7320615

- temperature:       470.0000000
  free_energy:      -184.5359437
  entropy:           908.6312217
  heat_capacity:     479.2453208
  energy:            242.5207305

- temperature:       480.0000000
  free_energy:      -193.6729073
  entropy:           918.7285950
  heat_capacity:     479.9650534
  energy:            247.3168183

- temperature:       490.0000000
  free_energy:      -202.9098696
  entropy:           928.6321693
  heat_capacity:     480.6432978
  energy:            252.1198933

- temperature:       500.0000000
  free_energy:      -212.2449281
  entropy:           938.3489689
  heat_capacity:     481.2831431
  energy:            256.9295563

- temperature:       510.0000000
  free_energy:      -221.6762487
  entropy:           947.8856593
  heat_capacity:     481.8873998
  energy:            261.7454376

- temperature:       520.0000000
  free_energy:      -231.2020621
  entropy:           957.2485699
  heat_capacity:     482.4586291
  energy:            266.5671943

- temperature:       530.0000000
  free_energy:      -240.8206609
  entropy:           966.4437147
  heat_capacity:     482.9991685
  energy:            271.3945079

- temperature:       540.0000000
  free_energy:      -250.5303962
  entropy:           975.4768124
  heat_capacity:     483.5111546
  energy:            276.2270825

- temperature:       550.0000000
  free_energy:      -260.3296751
  entropy:           984.3533045
  heat_capacity:     483.9965435
  energy:            281.0646424

- temperature:       560.0000000
  free_energy:      -270.2169576
  entropy:           993.0783719
  heat_capacity:     484.4571280
  energy:            285.9069307

- temperature:       570.0000000
  free_energy:      -280.1907543
  entropy:          1001.6569509
  heat_capacity:     484.8945540
  energy:            290.7537077

- temperature:       580.0000000
  free_energy:      -290.2496240
  entropy:          1010.0937477
  heat_capacity:     485.3103345
  energy:            295.6047496

- temperature:       590.0000000
  free_energy:      -300.3921716
  entropy:          1018.3932518
  heat_capacity:     485.7058619
  energy:            300.4598469

- temperature:       600.0000000
  free_energy:      -310.6170457
  entropy:          1026.5597490
  heat_capacity:     486.0824195
  energy:            305.3188036

- temperature:       610.0000000
  free_energy:      -320.9229369
  entropy:          1034.5973327
  heat_capacity:     486.4411915
  energy:            310.1814360

- temperature:       620.0000000
  free_energy:      -331.3085757
  entropy:          1042.5099155
  heat_capacity:     486.7832717
  energy:            315.0475718

- temperature:       630.0000000
  free_energy:      -341.7727310
  entropy:          1050.3012385
  heat_capacity:     487.1096718
  energy:            319.9170492

- temperature:       640.0000000
  free_energy:      -352.3142083
  entropy:          1057.9748819
  heat_capacity:     487.4213286
  energy:            324.7897161

- temperature:       650.0000000
  free_energy:      -362.9318479
  entropy:          1065.5342729
  heat_capacity:     487.7191106
  energy:            329.6654295

- temperature:       660.0000000
  free_energy:      -373.6245238
  entropy:          1072.9826949
  heat_capacity:     488.0038237
  energy:            334.5440548

- temperature:       670.0000000
  free_energy:      -384.3911424
  entropy:          1080.3232945
  heat_capacity:     488.2762164
  energy:            339.4254650

- temperature:       680.0000000
  free_energy:      -395.2306404
  entropy:          1087.5590894
  heat_capacity:     488.5369848
  energy:            344.3095404

- temperature:       690.0000000
  free_energy:      -406.1419845
  entropy:          1094.6929747
  heat_capacity:     488.7867769
  energy:            349.1961681

- temperature:       700.0000000
  free_energy:      -417.1241695
  entropy:          1101.7277297
  heat_capacity:     489.0261964
  energy:            354.0852413

- temperature:       710.0000000
  free_energy:      -428.1762175
  entropy:          1108.6660237
  heat_capacity:     489.2558063
  energy:            358.9766593

- temperature:       720.0000000
  free_energy:      -439.2971770
  entropy:          1115.5104215
  heat_capacity:     489.4761323
  energy:            363.8703265

- temperature:       730.0000000
  free_energy:      -450.4861212
  entropy:          1122.2633888
  heat_capacity:     489.6876653
  energy:            368.7661526

- temperature:       740.0000000
  free_energy:      -461.7421479
  entropy:          1128.9272972
  heat_capacity:     489.8908646
  energy:            373.6640521

- temperature:       750.0000000
  free_energy:      -473.0643779
  entropy:          1135.5044287
  heat_capacity:     490.0861599
  energy:            378.5639436

- temperature:       760.0000000
  free_energy:      -484.4519545
  entropy:          1141.9969800
  heat_capacity:     490.2739537
  energy:            383.4657503

- temperature:       770.0000000
  free_energy:      -495.9040426
  entropy:          1148.4070670
  heat_capacity:     490.4546234
  energy:            388.3693989

- temperature:       780.0000000
  free_energy:      -507.4198278
  entropy:          1154.7367282
  heat_capacity:     490.6285232
  energy:            393.2748202

- temperature:       790.0000000
  free_energy:      -518.9985157
  entropy:          1160.9879286
  heat_capacity:     490.7959855
  energy:            398.1819479

- temperature:       800.0000000
  free_energy:      -530.6393312
  entropy:          1167.1625633
  heat_capacity:     490.9573226
  energy:            403.0907195

- temperature:       810.0000000
  free_energy:      -542.3415178
  entropy:          1173.2624602
  heat_capacity:     491.1128283
  energy:            408.0010749

- temperature:       820.0000000
  free_energy:      -554.1043371
  entropy:          1179.2893837
  heat_capacity:     491.2627790
  energy:            412.9129575

- temperature:       830.0000000
  free_energy:      -565.9270679
  entropy:          1185.2450371
  heat_capacity:     491.4074351
  energy:            417.8263129

- temperature:       840.0000000
  free_energy:      -577.8090058
  entropy:          1191.1310657
  heat_capacity:     491.5470419
  energy:            422.7410894

- temperature:       850.0000000
  free_energy:      -589.7494625
  entropy:          1196.9490590
  heat_capacity:     491.6818307
  energy:            427.6572377

- temperature:       860.0000000
  free_energy:      -601.7477653
  entropy:          1202.7005535
  heat_capacity:     491.8120197
  energy:            432.5747107

- temperature:       870.0000000
  free_energy:      -613.8032568
  entropy:          1208.3870348
  heat_capacity:     491.9378152
  energy:            437.4934634

- temperature:       880.0000000
  free_energy:      -625.9152941
  entropy:          1214.0099398
  heat_capacity:     492.0594118
  energy:            442.4134530

- temperature:       890.0000000
  free_energy:      -638.0832483
  entropy:          1219.5706591
  heat_capacity:     492.1769937
  energy:            447.3346383

- temperature:       900.0000000
  free_energy:      -650.3065045
  entropy:          1225.0705384
  heat_capacity:     492.2907349
  energy:            452.2569800

- temperature:       910.0000000
  free_energy:      -662.5844607
  entropy:          1230.5108806
  heat_capacity:     492.4008005
  energy:            457.1804407

- temperature:       920.0000000
  free_energy:      -674.9165278
  entropy:          1235.8929480
  heat_capacity:     492.5073464
  energy:            462.1049843

- temperature:       930.0000000
  free_energy:      -687.3021295
  entropy:          1241.2179633
  heat_capacity:     492.6105207
  energy:            467.0305764

- temperature:       940.0000000
  free_energy:      -699.7407009
  entropy:          1246.4871115
  heat_capacity:     492.7104637
  energy:            471.9571840

- temperature:       950.0000000
  free_energy:      -712.2316893
  entropy:          1251.7015417
  heat_capacity:     492.8073085
  energy:            476.8847753

- temperature:       960.0000000
  free_energy:      -724.7745531
  entropy:          1256.8623680
  heat_capacity:     492.9011813
  energy:            481.8133202

- temperature:       970.0000000
  free_energy:      -737.3687616
  entropy:          1261.9706712
  heat_capacity:     492.9922023
  energy:            486.7427895

- temperature:       980.0000000
  free_energy:      -750.0137949
  entropy:          1267.0275000
  heat_capacity:     493.0804853
  energy:            491.6731551

- temperature:       990.0000000
  free_energy:      -762.7091434
  entropy:          1272.0338725
  heat_capacity:     493.1661388
  energy:            496.6043904

- temperature:      1000.0000000
  free_energy:      -775.4543075
  entropy:          1276.9907770
  heat_capacity:     493.2492659
  energy:            501.5364695
