# Thermal properties / unit cell (natom)

unit:
  temperature:   K
  free_energy:   kJ/mol
  entropy:       J/K/mol
  heat_capacity: J/K/mol

natom: 8    
cutoff_frequency: 0.00000
num_modes: 190440
num_integrated_modes: 190440

zero_point_energy:      31.7406111

thermal_properties:
- temperature:         0.0000000
  free_energy:        31.7406111
  entropy:             0.0000000
  heat_capacity:       0.0000000
  energy:             31.7406111

- temperature:        10.0000000
  free_energy:        31.7393133
  entropy:             0.4013793
  heat_capacity:       1.1524899
  energy:             31.7433271

- temperature:        20.0000000
  free_energy:        31.7242405
  entropy:             3.1892813
  heat_capacity:       9.0472447
  energy:             31.7880261

- temperature:        30.0000000
  free_energy:        31.6648727
  entropy:             9.1053665
  heat_capacity:      21.1626317
  energy:             31.9380337

- temperature:        40.0000000
  free_energy:        31.5360034
  entropy:            16.8830093
  heat_capacity:      33.4097841
  energy:             32.2113238

- temperature:        50.0000000
  free_energy:        31.3241149
  entropy:            25.6062100
  heat_capacity:      45.1347999
  energy:             32.6044254

- temperature:        60.0000000
  free_energy:        31.0221836
  entropy:            34.8450888
  heat_capacity:      56.5156821
  energy:             33.1128889

- temperature:        70.0000000
  free_energy:        30.6261777
  entropy:            44.3970567
  heat_capacity:      67.6596897
  energy:             33.7339716

- temperature:        80.0000000
  free_energy:        30.1335976
  entropy:            54.1432583
  heat_capacity:      78.4935741
  energy:             34.4650583

- temperature:        90.0000000
  free_energy:        29.5429709
  entropy:            63.9922767
  heat_capacity:      88.8577109
  energy:             35.3022758

- temperature:       100.0000000
  free_energy:        28.8536757
  entropy:            73.8645376
  heat_capacity:      98.5987612
  energy:             36.2401295

- temperature:       110.0000000
  free_energy:        28.0658348
  entropy:            83.6908027
  heat_capacity:     107.6133776
  energy:             37.2718231

- temperature:       120.0000000
  free_energy:        27.1802066
  entropy:            93.4134038
  heat_capacity:     115.8549509
  energy:             38.3898150

- temperature:       130.0000000
  free_energy:        26.1980656
  entropy:           102.9867352
  heat_capacity:     123.3232819
  energy:             39.5863411

- temperature:       140.0000000
  free_energy:        25.1210846
  entropy:           112.3765859
  heat_capacity:     130.0500090
  energy:             40.8538066

- temperature:       150.0000000
  free_energy:        23.9512271
  entropy:           121.5587294
  heat_capacity:     136.0855919
  energy:             42.1850365

- temperature:       160.0000000
  free_energy:        22.6906562
  entropy:           130.5172290
  heat_capacity:     141.4895696
  energy:             43.5734128

- temperature:       170.0000000
  free_energy:        21.3416597
  entropy:           139.2427646
  heat_capacity:     146.3240046
  energy:             45.0129296

- temperature:       180.0000000
  free_energy:        19.9065919
  entropy:           147.7311378
  heat_capacity:     150.6494331
  energy:             46.4981967

- temperature:       190.0000000
  free_energy:        18.3878289
  entropy:           155.9820127
  heat_capacity:     154.5225921
  energy:             48.0244113

- temperature:       200.0000000
  free_energy:        16.7877351
  entropy:           163.9978960
  heat_capacity:     157.9953212
  energy:             49.5873143

- temperature:       210.0000000
  free_energy:        15.1086393
  entropy:           171.7833311
  heat_capacity:     161.1142002
  energy:             51.1831388

- temperature:       220.0000000
  free_energy:        13.3528169
  entropy:           179.3442747
  heat_capacity:     163.9206210
  energy:             52.8085574

- temperature:       230.0000000
  free_energy:        11.5224792
  entropy:           186.6876206
  heat_capacity:     166.4510983
  energy:             54.4606319

- temperature:       240.0000000
  free_energy:         9.6197650
  entropy:           193.8208411
  heat_capacity:     168.7376944
  energy:             56.1367668

- temperature:       250.0000000
  free_energy:         7.6467368
  entropy:           200.7517200
  heat_capacity:     170.8084835
  energy:             57.8346668

- temperature:       260.0000000
  free_energy:         5.6053787
  entropy:           207.4881562
  heat_capacity:     172.6880125
  energy:             59.5522993

- temperature:       270.0000000
  free_energy:         3.4975956
  entropy:           214.0380213
  heat_capacity:     174.3977346
  energy:             61.2878614

- temperature:       280.0000000
  free_energy:         1.3252143
  entropy:           220.4090586
  heat_capacity:     175.9564039
  energy:             63.0397508

- temperature:       290.0000000
  free_energy:        -0.9100147
  entropy:           226.6088121
  heat_capacity:     177.3804285
  energy:             64.8065408

- temperature:       300.0000000
  free_energy:        -3.2064153
  entropy:           232.6445797
  heat_capacity:     178.6841810
  energy:             66.5869586

- temperature:       310.0000000
  free_energy:        -5.5623831
  entropy:           238.5233833
  heat_capacity:     179.8802698
  energy:             68.3798658

- temperature:       320.0000000
  free_energy:        -7.9763822
  entropy:           244.2519513
  heat_capacity:     180.9797742
  energy:             70.1842422

- temperature:       330.0000000
  free_energy:       -10.4469428
  entropy:           249.8367112
  heat_capacity:     181.9924478
  energy:             71.9991719

- temperature:       340.0000000
  free_energy:       -12.9726575
  entropy:           255.2837884
  heat_capacity:     182.9268940
  energy:             73.8238305

- temperature:       350.0000000
  free_energy:       -15.5521791
  entropy:           260.5990101
  heat_capacity:     183.7907163
  energy:             75.6574745

- temperature:       360.0000000
  free_energy:       -18.1842167
  entropy:           265.7879130
  heat_capacity:     184.5906490
  energy:             77.4994320

- temperature:       370.0000000
  free_energy:       -20.8675338
  entropy:           270.8557522
  heat_capacity:     185.3326681
  energy:             79.3490945

- temperature:       380.0000000
  free_energy:       -23.6009449
  entropy:           275.8075129
  heat_capacity:     186.0220882
  energy:             81.2059101

- temperature:       390.0000000
  free_energy:       -26.3833129
  entropy:           280.6479223
  heat_capacity:     186.6636450
  energy:             83.0693768

- temperature:       400.0000000
  free_energy:       -29.2135471
  entropy:           285.3814616
  heat_capacity:     187.2615671
  energy:             84.9390376

- temperature:       410.0000000
  free_energy:       -32.0906001
  entropy:           290.0123791
  heat_capacity:     187.8196377
  energy:             86.8144753

- temperature:       420.0000000
  free_energy:       -35.0134660
  entropy:           294.5447020
  heat_capacity:     188.3412483
  energy:             88.6953088

- temperature:       430.0000000
  free_energy:       -37.9811782
  entropy:           298.9822493
  heat_capacity:     188.8294452
  energy:             90.5811889

- temperature:       440.0000000
  free_energy:       -40.9928072
  entropy:           303.3286425
  heat_capacity:     189.2869694
  energy:             92.4717955

- temperature:       450.0000000
  free_energy:       -44.0474587
  entropy:           307.5873179
  heat_capacity:     189.7162924
  energy:             94.3668344

- temperature:       460.0000000
  free_energy:       -47.1442721
  entropy:           311.7615367
  heat_capacity:     190.1196459
  energy:             96.2660348

- temperature:       470.0000000
  free_energy:       -50.2824183
  entropy:           315.8543952
  heat_capacity:     190.4990494
  energy:             98.1691475

- temperature:       480.0000000
  free_energy:       -53.4610986
  entropy:           319.8688347
  heat_capacity:     190.8563330
  energy:            100.0759421

- temperature:       490.0000000
  free_energy:       -56.6795429
  entropy:           323.8076507
  heat_capacity:     191.1931581
  energy:            101.9862059

- temperature:       500.0000000
  free_energy:       -59.9370084
  entropy:           327.6735010
  heat_capacity:     191.5110353
  energy:            103.8997421

- temperature:       510.0000000
  free_energy:       -63.2327781
  entropy:           331.4689142
  heat_capacity:     191.8113405
  energy:            105.8163681

- temperature:       520.0000000
  free_energy:       -66.5661599
  entropy:           335.1962970
  heat_capacity:     192.0953286
  energy:            107.7359145

- temperature:       530.0000000
  free_energy:       -69.9364850
  entropy:           338.8579416
  heat_capacity:     192.3641460
  energy:            109.6582241

- temperature:       540.0000000
  free_energy:       -73.3431069
  entropy:           342.4560321
  heat_capacity:     192.6188413
  energy:            111.5831504

- temperature:       550.0000000
  free_energy:       -76.7854007
  entropy:           345.9926505
  heat_capacity:     192.8603754
  energy:            113.5105571

- temperature:       560.0000000
  free_energy:       -80.2627617
  entropy:           349.4697833
  heat_capacity:     193.0896296
  energy:            115.4403170

- temperature:       570.0000000
  free_energy:       -83.7746044
  entropy:           352.8893261
  heat_capacity:     193.3074136
  energy:            117.3723114

- temperature:       580.0000000
  free_energy:       -87.3203623
  entropy:           356.2530892
  heat_capacity:     193.5144721
  energy:            119.3064295

- temperature:       590.0000000
  free_energy:       -90.8994861
  entropy:           359.5628025
  heat_capacity:     193.7114910
  energy:            121.2425674

- temperature:       600.0000000
  free_energy:       -94.5114437
  entropy:           362.8201194
  heat_capacity:     193.8991029
  energy:            123.1806280

- temperature:       610.0000000
  free_energy:       -98.1557191
  entropy:           366.0266215
  heat_capacity:     194.0778916
  energy:            125.1205201

- temperature:       620.0000000
  free_energy:      -101.8318118
  entropy:           369.1838225
  heat_capacity:     194.2483970
  energy:            127.0621582

- temperature:       630.0000000
  free_energy:      -105.5392360
  entropy:           372.2931715
  heat_capacity:     194.4111184
  energy:            129.0054621

- temperature:       640.0000000
  free_energy:      -109.2775203
  entropy:           375.3560570
  heat_capacity:     194.5665187
  energy:            130.9503562

- temperature:       650.0000000
  free_energy:      -113.0462067
  entropy:           378.3738095
  heat_capacity:     194.7150269
  energy:            132.8967695

- temperature:       660.0000000
  free_energy:      -116.8448503
  entropy:           381.3477051
  heat_capacity:     194.8570414
  energy:            134.8446351

- temperature:       670.0000000
  free_energy:      -120.6730187
  entropy:           384.2789681
  heat_capacity:     194.9929326
  energy:            136.7938899

- temperature:       680.0000000
  free_energy:      -124.5302915
  entropy:           387.1687734
  heat_capacity:     195.1230448
  energy:            138.7444744

- temperature:       690.0000000
  free_energy:      -128.4162598
  entropy:           390.0182498
  heat_capacity:     195.2476988
  energy:            140.6963326

- temperature:       700.0000000
  free_energy:      -132.3305257
  entropy:           392.8284813
  heat_capacity:     195.3671936
  energy:            142.6494112

- temperature:       710.0000000
  free_energy:      -136.2727020
  entropy:           395.6005102
  heat_capacity:     195.4818080
  energy:            144.6036602

- temperature:       720.0000000
  free_energy:      -140.2424119
  entropy:           398.3353387
  heat_capacity:     195.5918025
  energy:            146.5590320

- temperature:       730.0000000
  free_energy:      -144.2392880
  entropy:           401.0339311
  heat_capacity:     195.6974205
  energy:            148.5154817

- temperature:       740.0000000
  free_energy:      -148.2629728
  entropy:           403.6972154
  heat_capacity:     195.7988897
  energy:            150.4729666

- temperature:       750.0000000
  free_energy:      -152.3131176
  entropy:           406.3260853
  heat_capacity:     195.8964233
  energy:            152.4314463

- temperature:       760.0000000
  free_energy:      -156.3893827
  entropy:           408.9214017
  heat_capacity:     195.9902210
  energy:            154.3908826

- temperature:       770.0000000
  free_energy:      -160.4914366
  entropy:           411.4839942
  heat_capacity:     196.0804702
  energy:            156.3512389

- temperature:       780.0000000
  free_energy:      -164.6189562
  entropy:           414.0146627
  heat_capacity:     196.1673464
  energy:            158.3124807

- temperature:       790.0000000
  free_energy:      -168.7716260
  entropy:           416.5141787
  heat_capacity:     196.2510150
  energy:            160.2745752

- temperature:       800.0000000
  free_energy:      -172.9491384
  entropy:           418.9832866
  heat_capacity:     196.3316309
  energy:            162.2374909

- temperature:       810.0000000
  free_energy:      -177.1511928
  entropy:           421.4227048
  heat_capacity:     196.4093403
  energy:            164.2011981

- temperature:       820.0000000
  free_energy:      -181.3774958
  entropy:           423.8331272
  heat_capacity:     196.4842803
  energy:            166.1656684

- temperature:       830.0000000
  free_energy:      -185.6277609
  entropy:           426.2152239
  heat_capacity:     196.5565805
  energy:            168.1308749

- temperature:       840.0000000
  free_energy:      -189.9017080
  entropy:           428.5696425
  heat_capacity:     196.6263627
  energy:            170.0967917

- temperature:       850.0000000
  free_energy:      -194.1990636
  entropy:           430.8970091
  heat_capacity:     196.6937421
  energy:            172.0633941

- temperature:       860.0000000
  free_energy:      -198.5195601
  entropy:           433.1979290
  heat_capacity:     196.7588271
  energy:            174.0306589

- temperature:       870.0000000
  free_energy:      -202.8629360
  entropy:           435.4729877
  heat_capacity:     196.8217203
  energy:            175.9985634

- temperature:       880.0000000
  free_energy:      -207.2289355
  entropy:           437.7227520
  heat_capacity:     196.8825187
  energy:            177.9670863

- temperature:       890.0000000
  free_energy:      -211.6173085
  entropy:           439.9477703
  heat_capacity:     196.9413137
  energy:            179.9362071

- temperature:       900.0000000
  free_energy:      -216.0278102
  entropy:           442.1485737
  heat_capacity:     196.9981921
  energy:            181.9059062

- temperature:       910.0000000
  free_energy:      -220.4602010
  entropy:           444.3256767
  heat_capacity:     197.0532360
  energy:            183.8761648

- temperature:       920.0000000
  free_energy:      -224.9142464
  entropy:           446.4795776
  heat_capacity:     197.1065231
  energy:            185.8469650

- temperature:       930.0000000
  free_energy:      -229.3897168
  entropy:           448.6107596
  heat_capacity:     197.1581271
  energy:            187.8182897

- temperature:       940.0000000
  free_energy:      -233.8863874
  entropy:           450.7196911
  heat_capacity:     197.2081178
  energy:            189.7901222

- temperature:       950.0000000
  free_energy:      -238.4040380
  entropy:           452.8068261
  heat_capacity:     197.2565616
  energy:            191.7624469

- temperature:       960.0000000
  free_energy:      -242.9424528
  entropy:           454.8726055
  heat_capacity:     197.3035214
  energy:            193.7352485

- temperature:       970.0000000
  free_energy:      -247.5014203
  entropy:           456.9174566
  heat_capacity:     197.3490570
  energy:            195.7085125

- temperature:       980.0000000
  free_energy:      -252.0807335
  entropy:           458.9417945
  heat_capacity:     197.3932252
  energy:            197.6822251

- temperature:       990.0000000
  free_energy:      -256.6801892
  entropy:           460.9460221
  heat_capacity:     197.4360800
  energy:            199.6563727

- temperature:      1000.0000000
  free_energy:      -261.2995882
  entropy:           462.9305307
  heat_capacity:     197.4776728
  energy:            201.6309425
