# Thermal properties / unit cell (natom)

unit:
  temperature:   K
  free_energy:   kJ/mol
  entropy:       J/K/mol
  heat_capacity: J/K/mol

natom: 8    
cutoff_frequency: 0.00000
num_modes: 139968
num_integrated_modes: 139966

zero_point_energy:       7.0259960

thermal_properties:
- temperature:         0.0000000
  free_energy:         7.0259960
  entropy:             0.0000000
  heat_capacity:       0.0000000
  energy:              7.0259960

- temperature:        10.0000000
  free_energy:         7.0087302
  entropy:             6.8986853
  heat_capacity:      20.3477287
  energy:              7.0777170

- temperature:        20.0000000
  free_energy:         6.7907901
  entropy:            40.2285799
  heat_capacity:      83.2211395
  energy:              7.5953617

- temperature:        30.0000000
  free_energy:         6.1738476
  entropy:            83.3033524
  heat_capacity:     128.2048987
  energy:              8.6729482

- temperature:        40.0000000
  free_energy:         5.1336457
  entropy:           123.9978462
  heat_capacity:     153.4775760
  energy:             10.0935595

- temperature:        50.0000000
  free_energy:         3.7099619
  entropy:           159.9393958
  heat_capacity:     167.9288207
  energy:             11.7069317

- temperature:        60.0000000
  free_energy:         1.9498492
  entropy:           191.3937520
  heat_capacity:     176.6988777
  energy:             13.4334743

- temperature:        70.0000000
  free_energy:        -0.1053802
  entropy:           219.0856339
  heat_capacity:     182.3414476
  energy:             15.2306142

- temperature:        80.0000000
  free_energy:        -2.4216157
  entropy:           243.6986620
  heat_capacity:     186.1574642
  energy:             17.0742772

- temperature:        90.0000000
  free_energy:        -4.9709574
  entropy:           265.7888664
  heat_capacity:     188.8471051
  energy:             18.9500405

- temperature:       100.0000000
  free_energy:        -7.7304487
  entropy:           285.7925856
  heat_capacity:     190.8088400
  energy:             20.8488099

- temperature:       110.0000000
  free_energy:       -10.6809990
  entropy:           304.0508571
  heat_capacity:     192.2811033
  energy:             22.7645953

- temperature:       120.0000000
  free_energy:       -13.8065484
  entropy:           320.8320931
  heat_capacity:     193.4129321
  energy:             24.6933028

- temperature:       130.0000000
  free_energy:       -17.0934338
  entropy:           336.3498371
  heat_capacity:     194.3010617
  energy:             26.6320450

- temperature:       140.0000000
  free_energy:       -20.5299100
  entropy:           350.7760009
  heat_capacity:     195.0103588
  energy:             28.5787301

- temperature:       150.0000000
  free_energy:       -24.1057847
  entropy:           364.2506091
  heat_capacity:     195.5855698
  energy:             30.5318067

- temperature:       160.0000000
  free_energy:       -27.8121369
  entropy:           376.8889867
  heat_capacity:     196.0583352
  energy:             32.4901009

- temperature:       170.0000000
  free_energy:       -31.6410986
  entropy:           388.7871020
  heat_capacity:     196.4515216
  energy:             34.4527088

- temperature:       180.0000000
  free_energy:       -35.5856815
  entropy:           400.0255792
  heat_capacity:     196.7819760
  energy:             36.4189227

- temperature:       190.0000000
  free_energy:       -39.6396402
  entropy:           410.6727465
  heat_capacity:     197.0623263
  energy:             38.3881816

- temperature:       200.0000000
  free_energy:       -43.7973609
  entropy:           420.7869772
  heat_capacity:     197.3021847
  energy:             40.3600345

- temperature:       210.0000000
  free_energy:       -48.0537715
  entropy:           430.4185083
  heat_capacity:     197.5089700
  energy:             42.3341152

- temperature:       220.0000000
  free_energy:       -52.4042678
  entropy:           439.6108678
  heat_capacity:     197.6884805
  energy:             44.3101231

- temperature:       230.0000000
  free_energy:       -56.8446520
  entropy:           448.4020056
  heat_capacity:     197.8453003
  energy:             46.2878093

- temperature:       240.0000000
  free_energy:       -61.3710818
  entropy:           456.8251985
  heat_capacity:     197.9830910
  energy:             48.2669658

- temperature:       250.0000000
  free_energy:       -65.9800276
  entropy:           464.9097809
  heat_capacity:     198.1048059
  energy:             50.2474176

- temperature:       260.0000000
  free_energy:       -70.6682357
  entropy:           472.6817388
  heat_capacity:     198.2128477
  energy:             52.2290164

- temperature:       270.0000000
  free_energy:       -75.4326977
  entropy:           480.1641973
  heat_capacity:     198.3091870
  energy:             54.2116356

- temperature:       280.0000000
  free_energy:       -80.2706238
  entropy:           487.3778227
  heat_capacity:     198.3954525
  energy:             56.1951666

- temperature:       290.0000000
  free_energy:       -85.1794200
  entropy:           494.3411573
  heat_capacity:     198.4729994
  energy:             58.1795156

- temperature:       300.0000000
  free_energy:       -90.1566685
  entropy:           501.0708992
  heat_capacity:     198.5429626
  energy:             60.1646013

- temperature:       310.0000000
  free_energy:       -95.2001098
  entropy:           507.5821374
  heat_capacity:     198.6062986
  energy:             62.1503528

- temperature:       320.0000000
  free_energy:      -100.3076286
  entropy:           513.8885515
  heat_capacity:     198.6638178
  energy:             64.1367079

- temperature:       330.0000000
  free_energy:      -105.4772397
  entropy:           520.0025811
  heat_capacity:     198.7162106
  energy:             66.1236121

- temperature:       340.0000000
  free_energy:      -110.7070769
  entropy:           525.9355702
  heat_capacity:     198.7640678
  energy:             68.1110170

- temperature:       350.0000000
  free_energy:      -115.9953823
  entropy:           531.6978923
  heat_capacity:     198.8078979
  energy:             70.0988800

- temperature:       360.0000000
  free_energy:      -121.3404976
  entropy:           537.2990572
  heat_capacity:     198.8481399
  energy:             72.0871630

- temperature:       370.0000000
  free_energy:      -126.7408555
  entropy:           542.7478043
  heat_capacity:     198.8851747
  energy:             74.0758321

- temperature:       380.0000000
  free_energy:      -132.1949725
  entropy:           548.0521827
  heat_capacity:     198.9193340
  energy:             76.0648569

- temperature:       390.0000000
  free_energy:      -137.7014427
  entropy:           553.2196228
  heat_capacity:     198.9509077
  energy:             78.0542102

- temperature:       400.0000000
  free_energy:      -143.2589315
  entropy:           558.2569970
  heat_capacity:     198.9801502
  energy:             80.0438673

- temperature:       410.0000000
  free_energy:      -148.8661704
  entropy:           563.1706745
  heat_capacity:     199.0072853
  energy:             82.0338062

- temperature:       420.0000000
  free_energy:      -154.5219524
  entropy:           567.9665692
  heat_capacity:     199.0325106
  energy:             84.0240067

- temperature:       430.0000000
  free_energy:      -160.2251275
  entropy:           572.6501817
  heat_capacity:     199.0560010
  energy:             86.0144506

- temperature:       440.0000000
  free_energy:      -165.9745989
  entropy:           577.2266370
  heat_capacity:     199.0779121
  energy:             88.0051214

- temperature:       450.0000000
  free_energy:      -171.7693191
  entropy:           581.7007180
  heat_capacity:     199.0983821
  energy:             89.9960040

- temperature:       460.0000000
  free_energy:      -177.6082869
  entropy:           586.0768948
  heat_capacity:     199.1175348
  energy:             91.9870847

- temperature:       470.0000000
  free_energy:      -183.4905446
  entropy:           590.3593517
  heat_capacity:     199.1354806
  energy:             93.9783507

- temperature:       480.0000000
  free_energy:      -189.4151747
  entropy:           594.5520109
  heat_capacity:     199.1523189
  energy:             95.9697906

- temperature:       490.0000000
  free_energy:      -195.3812978
  entropy:           598.6585540
  heat_capacity:     199.1681388
  energy:             97.9613937

- temperature:       500.0000000
  free_energy:      -201.3880702
  entropy:           602.6824410
  heat_capacity:     199.1830209
  energy:             99.9531502

- temperature:       510.0000000
  free_energy:      -207.4346819
  entropy:           606.6269278
  heat_capacity:     199.1970378
  energy:            101.9450512

- temperature:       520.0000000
  free_energy:      -213.5203544
  entropy:           610.4950821
  heat_capacity:     199.2102552
  energy:            103.9370883

- temperature:       530.0000000
  free_energy:      -219.6443388
  entropy:           614.2897975
  heat_capacity:     199.2227329
  energy:            105.9292539

- temperature:       540.0000000
  free_energy:      -225.8059147
  entropy:           618.0138062
  heat_capacity:     199.2345249
  energy:            107.9215407

- temperature:       550.0000000
  free_energy:      -232.0043879
  entropy:           621.6696911
  heat_capacity:     199.2456806
  energy:            109.9139422

- temperature:       560.0000000
  free_energy:      -238.2390896
  entropy:           625.2598963
  heat_capacity:     199.2562449
  energy:            111.9064523

- temperature:       570.0000000
  free_energy:      -244.5093746
  entropy:           628.7867367
  heat_capacity:     199.2662590
  energy:            113.8990653

- temperature:       580.0000000
  free_energy:      -250.8146204
  entropy:           632.2524073
  heat_capacity:     199.2757602
  energy:            115.8917758

- temperature:       590.0000000
  free_energy:      -257.1542258
  entropy:           635.6589910
  heat_capacity:     199.2847832
  energy:            117.8845789

- temperature:       600.0000000
  free_energy:      -263.5276099
  entropy:           639.0084664
  heat_capacity:     199.2933593
  energy:            119.8774700

- temperature:       610.0000000
  free_energy:      -269.9342110
  entropy:           642.3027143
  heat_capacity:     199.3015177
  energy:            121.8704447

- temperature:       620.0000000
  free_energy:      -276.3734860
  entropy:           645.5435243
  heat_capacity:     199.3092850
  energy:            123.8634990

- temperature:       630.0000000
  free_energy:      -282.8449091
  entropy:           648.7326004
  heat_capacity:     199.3166858
  energy:            125.8566292

- temperature:       640.0000000
  free_energy:      -289.3479710
  entropy:           651.8715666
  heat_capacity:     199.3237428
  energy:            127.8498316

- temperature:       650.0000000
  free_energy:      -295.8821786
  entropy:           654.9619716
  heat_capacity:     199.3304770
  energy:            129.8431030

- temperature:       660.0000000
  free_energy:      -302.4470535
  entropy:           658.0052934
  heat_capacity:     199.3369078
  energy:            131.8364401

- temperature:       670.0000000
  free_energy:      -309.0421322
  entropy:           661.0029438
  heat_capacity:     199.3430531
  energy:            133.8298402

- temperature:       680.0000000
  free_energy:      -315.6669647
  entropy:           663.9562720
  heat_capacity:     199.3489295
  energy:            135.8233003

- temperature:       690.0000000
  free_energy:      -322.3211142
  entropy:           666.8665683
  heat_capacity:     199.3545526
  energy:            137.8168179

- temperature:       700.0000000
  free_energy:      -329.0041567
  entropy:           669.7350675
  heat_capacity:     199.3599366
  energy:            139.8103906

- temperature:       710.0000000
  free_energy:      -335.7156802
  entropy:           672.5629522
  heat_capacity:     199.3650949
  energy:            141.8040159

- temperature:       720.0000000
  free_energy:      -342.4552842
  entropy:           675.3513554
  heat_capacity:     199.3700400
  energy:            143.7976917

- temperature:       730.0000000
  free_energy:      -349.2225793
  entropy:           678.1013635
  heat_capacity:     199.3747835
  energy:            145.7914160

- temperature:       740.0000000
  free_energy:      -356.0171869
  entropy:           680.8140185
  heat_capacity:     199.3793362
  energy:            147.7851868

- temperature:       750.0000000
  free_energy:      -362.8387385
  entropy:           683.4903209
  heat_capacity:     199.3837081
  energy:            149.7790021

- temperature:       760.0000000
  free_energy:      -369.6868754
  entropy:           686.1312312
  heat_capacity:     199.3879087
  energy:            151.7728604

- temperature:       770.0000000
  free_energy:      -376.5612482
  entropy:           688.7376728
  heat_capacity:     199.3919468
  energy:            153.7667598

- temperature:       780.0000000
  free_energy:      -383.4615169
  entropy:           691.3105329
  heat_capacity:     199.3958308
  energy:            155.7606988

- temperature:       790.0000000
  free_energy:      -390.3873498
  entropy:           693.8506655
  heat_capacity:     199.3995683
  energy:            157.7546759

- temperature:       800.0000000
  free_energy:      -397.3384239
  entropy:           696.3588919
  heat_capacity:     199.4031666
  energy:            159.7486897

- temperature:       810.0000000
  free_energy:      -404.3144239
  entropy:           698.8360034
  heat_capacity:     199.4066326
  energy:            161.7427388

- temperature:       820.0000000
  free_energy:      -411.3150427
  entropy:           701.2827618
  heat_capacity:     199.4099726
  energy:            163.7368219

- temperature:       830.0000000
  free_energy:      -418.3399804
  entropy:           703.6999016
  heat_capacity:     199.4131928
  energy:            165.7309378

- temperature:       840.0000000
  free_energy:      -425.3889444
  entropy:           706.0881307
  heat_capacity:     199.4162987
  energy:            167.7250854

- temperature:       850.0000000
  free_energy:      -432.4616490
  entropy:           708.4481323
  heat_capacity:     199.4192956
  energy:            169.7192635

- temperature:       860.0000000
  free_energy:      -439.5578152
  entropy:           710.7805653
  heat_capacity:     199.4221888
  energy:            171.7134710

- temperature:       870.0000000
  free_energy:      -446.6771705
  entropy:           713.0860660
  heat_capacity:     199.4249828
  energy:            173.7077069

- temperature:       880.0000000
  free_energy:      -453.8194488
  entropy:           715.3652489
  heat_capacity:     199.4276821
  energy:            175.7019703

- temperature:       890.0000000
  free_energy:      -460.9843897
  entropy:           717.6187078
  heat_capacity:     199.4302910
  energy:            177.6962602

- temperature:       900.0000000
  free_energy:      -468.1717391
  entropy:           719.8470166
  heat_capacity:     199.4328135
  energy:            179.6905758

- temperature:       910.0000000
  free_energy:      -475.3812481
  entropy:           722.0507300
  heat_capacity:     199.4352534
  energy:            181.6849162

- temperature:       920.0000000
  free_energy:      -482.6126735
  entropy:           724.2303849
  heat_capacity:     199.4376141
  energy:            183.6792806

- temperature:       930.0000000
  free_energy:      -489.8657773
  entropy:           726.3865006
  heat_capacity:     199.4398992
  energy:            185.6736683

- temperature:       940.0000000
  free_energy:      -497.1403267
  entropy:           728.5195799
  heat_capacity:     199.4421117
  energy:            187.6680784

- temperature:       950.0000000
  free_energy:      -504.4360938
  entropy:           730.6301095
  heat_capacity:     199.4442548
  energy:            189.6625103

- temperature:       960.0000000
  free_energy:      -511.7528553
  entropy:           732.7185610
  heat_capacity:     199.4463313
  energy:            191.6569633

- temperature:       970.0000000
  free_energy:      -519.0903929
  entropy:           734.7853913
  heat_capacity:     199.4483440
  energy:            193.6514367

- temperature:       980.0000000
  free_energy:      -526.4484926
  entropy:           736.8310434
  heat_capacity:     199.4502954
  energy:            195.6459299

- temperature:       990.0000000
  free_energy:      -533.8269446
  entropy:           738.8559465
  heat_capacity:     199.4521880
  energy:            197.6404424

- temperature:      1000.0000000
  free_energy:      -541.2255437
  entropy:           740.8605172
  heat_capacity:     199.4540241
  energy:            199.6349735
