phonopy:
  version: "2.37.1"
  frequency_unit_conversion_factor: 15.633302
  symmetry_tolerance: 1.00000e-05

space_group:
  type: "P1"
  number: 1
  Hall_symbol: "P 1"

primitive_matrix:
- [ -1.000000000000000,  0.000000000000000,  0.000000000000000 ]
- [  0.000000000000000, -1.000000000000000,  0.000000000000000 ]
- [  0.000000000000000,  0.000000000000000,  1.000000000000000 ]

supercell_matrix:
- [   3,   0,   0 ]
- [   0,   2,   0 ]
- [   0,   0,   2 ]

primitive_cell:
  lattice:
  - [    -4.797180834239545,     0.000000000000000,     0.000000000000000 ] # a
  - [    -0.000449998272793,    -5.886186107029772,     0.000000000000000 ] # b
  - [    -2.398467826034915,    -1.926585944355261,     6.927214580551288 ] # c
  points:
  - symbol: Li # 1
    coordinates: [  0.568538708748088,  0.066875307945245,  0.095618931253915 ]
    mass: 6.940000
  - symbol: Li # 2
    coordinates: [  0.762437295737239,  0.857219093567125,  0.708163202246876 ]
    mass: 6.940000
  - symbol: Li # 3
    coordinates: [  0.363591330729123,  0.268473567992118,  0.505379953901514 ]
    mass: 6.940000
  - symbol: Li # 4
    coordinates: [  0.966014015841913,  0.667409783156786,  0.300549914964676 ]
    mass: 6.940000
  - symbol: Li # 5
    coordinates: [  0.169625932300389,  0.478247174625555,  0.892973458135461 ]
    mass: 6.940000
  - symbol: Li # 6
    coordinates: [  0.966025881354125,  0.167365268499074,  0.300524654232072 ]
    mass: 6.940000
  - symbol: Sn # 7
    coordinates: [  0.560852868999908,  0.549019777807306,  0.110822855167645 ]
    mass: 118.710000
  - symbol: Sn # 8
    coordinates: [  0.161256389453411,  0.971656516868914,  0.910221293558153 ]
    mass: 118.710000
  - symbol: Sn # 9
    coordinates: [  0.371250524514646,  0.786198560307508,  0.490207077765439 ]
    mass: 118.710000
  - symbol: Sn # 10
    coordinates: [  0.770798465196400,  0.363812057097965,  0.690839709493054 ]
    mass: 118.710000
  reciprocal_lattice: # without 2pi
  - [    -0.208455764865600,     0.000015936420024,    -0.072170962294491 ] # a*
  - [    -0.000000000000000,    -0.169889293647327,    -0.047249341193547 ] # b*
  - [    -0.000000000000000,    -0.000000000000000,     0.144358167106239 ] # c*

unit_cell:
  lattice:
  - [     4.797180834239545,     0.000000000000000,     0.000000000000000 ] # a
  - [     0.000449998272793,     5.886186107029772,     0.000000000000000 ] # b
  - [    -2.398467826034916,    -1.926585944355261,     6.927214580551288 ] # c
  points:
  - symbol: Li # 1
    coordinates: [  0.431461291251912,  0.933124692054755,  0.095618931253915 ]
    mass: 6.940000
    reduced_to: 1
  - symbol: Li # 2
    coordinates: [  0.237562704262761,  0.142780906432875,  0.708163202246876 ]
    mass: 6.940000
    reduced_to: 2
  - symbol: Li # 3
    coordinates: [  0.636408669270877,  0.731526432007882,  0.505379953901514 ]
    mass: 6.940000
    reduced_to: 3
  - symbol: Li # 4
    coordinates: [  0.033985984158087,  0.332590216843214,  0.300549914964676 ]
    mass: 6.940000
    reduced_to: 4
  - symbol: Li # 5
    coordinates: [  0.830374067699611,  0.521752825374445,  0.892973458135461 ]
    mass: 6.940000
    reduced_to: 5
  - symbol: Li # 6
    coordinates: [  0.033974118645875,  0.832634731500926,  0.300524654232072 ]
    mass: 6.940000
    reduced_to: 6
  - symbol: Sn # 7
    coordinates: [  0.439147131000092,  0.450980222192694,  0.110822855167645 ]
    mass: 118.710000
    reduced_to: 7
  - symbol: Sn # 8
    coordinates: [  0.838743610546589,  0.028343483131086,  0.910221293558153 ]
    mass: 118.710000
    reduced_to: 8
  - symbol: Sn # 9
    coordinates: [  0.628749475485354,  0.213801439692492,  0.490207077765439 ]
    mass: 118.710000
    reduced_to: 9
  - symbol: Sn # 10
    coordinates: [  0.229201534803600,  0.636187942902035,  0.690839709493054 ]
    mass: 118.710000
    reduced_to: 10

supercell:
  lattice:
  - [    14.391542502718636,     0.000000000000000,     0.000000000000000 ] # a
  - [     0.000899996545587,    11.772372214059544,     0.000000000000000 ] # b
  - [    -4.796935652069831,    -3.853171888710522,    13.854429161102576 ] # c
  points:
  - symbol: Li # 1
    coordinates: [  0.143820430417304,  0.466562346027377,  0.047809465626957 ]
    mass: 6.940000
    reduced_to: 1
  - symbol: Li # 2
    coordinates: [  0.477153763750637,  0.466562346027377,  0.047809465626957 ]
    mass: 6.940000
    reduced_to: 1
  - symbol: Li # 3
    coordinates: [  0.810487097083971,  0.466562346027377,  0.047809465626957 ]
    mass: 6.940000
    reduced_to: 1
  - symbol: Li # 4
    coordinates: [  0.143820430417304,  0.966562346027377,  0.047809465626957 ]
    mass: 6.940000
    reduced_to: 1
  - symbol: Li # 5
    coordinates: [  0.477153763750637,  0.966562346027377,  0.047809465626957 ]
    mass: 6.940000
    reduced_to: 1
  - symbol: Li # 6
    coordinates: [  0.810487097083971,  0.966562346027377,  0.047809465626957 ]
    mass: 6.940000
    reduced_to: 1
  - symbol: Li # 7
    coordinates: [  0.143820430417304,  0.466562346027377,  0.547809465626957 ]
    mass: 6.940000
    reduced_to: 1
  - symbol: Li # 8
    coordinates: [  0.477153763750637,  0.466562346027377,  0.547809465626957 ]
    mass: 6.940000
    reduced_to: 1
  - symbol: Li # 9
    coordinates: [  0.810487097083971,  0.466562346027377,  0.547809465626957 ]
    mass: 6.940000
    reduced_to: 1
  - symbol: Li # 10
    coordinates: [  0.143820430417304,  0.966562346027377,  0.547809465626957 ]
    mass: 6.940000
    reduced_to: 1
  - symbol: Li # 11
    coordinates: [  0.477153763750637,  0.966562346027377,  0.547809465626957 ]
    mass: 6.940000
    reduced_to: 1
  - symbol: Li # 12
    coordinates: [  0.810487097083971,  0.966562346027377,  0.547809465626957 ]
    mass: 6.940000
    reduced_to: 1
  - symbol: Li # 13
    coordinates: [  0.079187568087587,  0.071390453216437,  0.354081601123438 ]
    mass: 6.940000
    reduced_to: 13
  - symbol: Li # 14
    coordinates: [  0.412520901420920,  0.071390453216437,  0.354081601123438 ]
    mass: 6.940000
    reduced_to: 13
  - symbol: Li # 15
    coordinates: [  0.745854234754254,  0.071390453216437,  0.354081601123438 ]
    mass: 6.940000
    reduced_to: 13
  - symbol: Li # 16
    coordinates: [  0.079187568087587,  0.571390453216437,  0.354081601123438 ]
    mass: 6.940000
    reduced_to: 13
  - symbol: Li # 17
    coordinates: [  0.412520901420920,  0.571390453216437,  0.354081601123438 ]
    mass: 6.940000
    reduced_to: 13
  - symbol: Li # 18
    coordinates: [  0.745854234754254,  0.571390453216437,  0.354081601123438 ]
    mass: 6.940000
    reduced_to: 13
  - symbol: Li # 19
    coordinates: [  0.079187568087587,  0.071390453216437,  0.854081601123438 ]
    mass: 6.940000
    reduced_to: 13
  - symbol: Li # 20
    coordinates: [  0.412520901420920,  0.071390453216437,  0.854081601123438 ]
    mass: 6.940000
    reduced_to: 13
  - symbol: Li # 21
    coordinates: [  0.745854234754254,  0.071390453216437,  0.854081601123438 ]
    mass: 6.940000
    reduced_to: 13
  - symbol: Li # 22
    coordinates: [  0.079187568087587,  0.571390453216437,  0.854081601123438 ]
    mass: 6.940000
    reduced_to: 13
  - symbol: Li # 23
    coordinates: [  0.412520901420920,  0.571390453216437,  0.854081601123438 ]
    mass: 6.940000
    reduced_to: 13
  - symbol: Li # 24
    coordinates: [  0.745854234754254,  0.571390453216437,  0.854081601123438 ]
    mass: 6.940000
    reduced_to: 13
  - symbol: Li # 25
    coordinates: [  0.212136223090292,  0.365763216003941,  0.252689976950757 ]
    mass: 6.940000
    reduced_to: 25
  - symbol: Li # 26
    coordinates: [  0.545469556423626,  0.365763216003941,  0.252689976950757 ]
    mass: 6.940000
    reduced_to: 25
  - symbol: Li # 27
    coordinates: [  0.878802889756959,  0.365763216003941,  0.252689976950757 ]
    mass: 6.940000
    reduced_to: 25
  - symbol: Li # 28
    coordinates: [  0.212136223090292,  0.865763216003941,  0.252689976950757 ]
    mass: 6.940000
    reduced_to: 25
  - symbol: Li # 29
    coordinates: [  0.545469556423626,  0.865763216003941,  0.252689976950757 ]
    mass: 6.940000
    reduced_to: 25
  - symbol: Li # 30
    coordinates: [  0.878802889756959,  0.865763216003941,  0.252689976950757 ]
    mass: 6.940000
    reduced_to: 25
  - symbol: Li # 31
    coordinates: [  0.212136223090292,  0.365763216003941,  0.752689976950757 ]
    mass: 6.940000
    reduced_to: 25
  - symbol: Li # 32
    coordinates: [  0.545469556423626,  0.365763216003941,  0.752689976950757 ]
    mass: 6.940000
    reduced_to: 25
  - symbol: Li # 33
    coordinates: [  0.878802889756959,  0.365763216003941,  0.752689976950757 ]
    mass: 6.940000
    reduced_to: 25
  - symbol: Li # 34
    coordinates: [  0.212136223090292,  0.865763216003941,  0.752689976950757 ]
    mass: 6.940000
    reduced_to: 25
  - symbol: Li # 35
    coordinates: [  0.545469556423626,  0.865763216003941,  0.752689976950757 ]
    mass: 6.940000
    reduced_to: 25
  - symbol: Li # 36
    coordinates: [  0.878802889756959,  0.865763216003941,  0.752689976950757 ]
    mass: 6.940000
    reduced_to: 25
  - symbol: Li # 37
    coordinates: [  0.011328661386029,  0.166295108421607,  0.150274957482338 ]
    mass: 6.940000
    reduced_to: 37
  - symbol: Li # 38
    coordinates: [  0.344661994719362,  0.166295108421607,  0.150274957482338 ]
    mass: 6.940000
    reduced_to: 37
  - symbol: Li # 39
    coordinates: [  0.677995328052696,  0.166295108421607,  0.150274957482338 ]
    mass: 6.940000
    reduced_to: 37
  - symbol: Li # 40
    coordinates: [  0.011328661386029,  0.666295108421607,  0.150274957482338 ]
    mass: 6.940000
    reduced_to: 37
  - symbol: Li # 41
    coordinates: [  0.344661994719362,  0.666295108421607,  0.150274957482338 ]
    mass: 6.940000
    reduced_to: 37
  - symbol: Li # 42
    coordinates: [  0.677995328052696,  0.666295108421607,  0.150274957482338 ]
    mass: 6.940000
    reduced_to: 37
  - symbol: Li # 43
    coordinates: [  0.011328661386029,  0.166295108421607,  0.650274957482338 ]
    mass: 6.940000
    reduced_to: 37
  - symbol: Li # 44
    coordinates: [  0.344661994719362,  0.166295108421607,  0.650274957482338 ]
    mass: 6.940000
    reduced_to: 37
  - symbol: Li # 45
    coordinates: [  0.677995328052696,  0.166295108421607,  0.650274957482338 ]
    mass: 6.940000
    reduced_to: 37
  - symbol: Li # 46
    coordinates: [  0.011328661386029,  0.666295108421607,  0.650274957482338 ]
    mass: 6.940000
    reduced_to: 37
  - symbol: Li # 47
    coordinates: [  0.344661994719362,  0.666295108421607,  0.650274957482338 ]
    mass: 6.940000
    reduced_to: 37
  - symbol: Li # 48
    coordinates: [  0.677995328052696,  0.666295108421607,  0.650274957482338 ]
    mass: 6.940000
    reduced_to: 37
  - symbol: Li # 49
    coordinates: [  0.276791355899870,  0.260876412687223,  0.446486729067731 ]
    mass: 6.940000
    reduced_to: 49
  - symbol: Li # 50
    coordinates: [  0.610124689233204,  0.260876412687223,  0.446486729067731 ]
    mass: 6.940000
    reduced_to: 49
  - symbol: Li # 51
    coordinates: [  0.943458022566537,  0.260876412687223,  0.446486729067731 ]
    mass: 6.940000
    reduced_to: 49
  - symbol: Li # 52
    coordinates: [  0.276791355899870,  0.760876412687223,  0.446486729067731 ]
    mass: 6.940000
    reduced_to: 49
  - symbol: Li # 53
    coordinates: [  0.610124689233204,  0.760876412687223,  0.446486729067731 ]
    mass: 6.940000
    reduced_to: 49
  - symbol: Li # 54
    coordinates: [  0.943458022566537,  0.760876412687223,  0.446486729067731 ]
    mass: 6.940000
    reduced_to: 49
  - symbol: Li # 55
    coordinates: [  0.276791355899870,  0.260876412687223,  0.946486729067731 ]
    mass: 6.940000
    reduced_to: 49
  - symbol: Li # 56
    coordinates: [  0.610124689233204,  0.260876412687223,  0.946486729067731 ]
    mass: 6.940000
    reduced_to: 49
  - symbol: Li # 57
    coordinates: [  0.943458022566537,  0.260876412687223,  0.946486729067731 ]
    mass: 6.940000
    reduced_to: 49
  - symbol: Li # 58
    coordinates: [  0.276791355899870,  0.760876412687223,  0.946486729067731 ]
    mass: 6.940000
    reduced_to: 49
  - symbol: Li # 59
    coordinates: [  0.610124689233204,  0.760876412687223,  0.946486729067731 ]
    mass: 6.940000
    reduced_to: 49
  - symbol: Li # 60
    coordinates: [  0.943458022566537,  0.760876412687223,  0.946486729067731 ]
    mass: 6.940000
    reduced_to: 49
  - symbol: Li # 61
    coordinates: [  0.011324706215292,  0.416317365750463,  0.150262327116036 ]
    mass: 6.940000
    reduced_to: 61
  - symbol: Li # 62
    coordinates: [  0.344658039548625,  0.416317365750463,  0.150262327116036 ]
    mass: 6.940000
    reduced_to: 61
  - symbol: Li # 63
    coordinates: [  0.677991372881958,  0.416317365750463,  0.150262327116036 ]
    mass: 6.940000
    reduced_to: 61
  - symbol: Li # 64
    coordinates: [  0.011324706215292,  0.916317365750463,  0.150262327116036 ]
    mass: 6.940000
    reduced_to: 61
  - symbol: Li # 65
    coordinates: [  0.344658039548625,  0.916317365750463,  0.150262327116036 ]
    mass: 6.940000
    reduced_to: 61
  - symbol: Li # 66
    coordinates: [  0.677991372881958,  0.916317365750463,  0.150262327116036 ]
    mass: 6.940000
    reduced_to: 61
  - symbol: Li # 67
    coordinates: [  0.011324706215292,  0.416317365750463,  0.650262327116036 ]
    mass: 6.940000
    reduced_to: 61
  - symbol: Li # 68
    coordinates: [  0.344658039548625,  0.416317365750463,  0.650262327116036 ]
    mass: 6.940000
    reduced_to: 61
  - symbol: Li # 69
    coordinates: [  0.677991372881958,  0.416317365750463,  0.650262327116036 ]
    mass: 6.940000
    reduced_to: 61
  - symbol: Li # 70
    coordinates: [  0.011324706215292,  0.916317365750463,  0.650262327116036 ]
    mass: 6.940000
    reduced_to: 61
  - symbol: Li # 71
    coordinates: [  0.344658039548625,  0.916317365750463,  0.650262327116036 ]
    mass: 6.940000
    reduced_to: 61
  - symbol: Li # 72
    coordinates: [  0.677991372881958,  0.916317365750463,  0.650262327116036 ]
    mass: 6.940000
    reduced_to: 61
  - symbol: Sn # 73
    coordinates: [  0.146382377000031,  0.225490111096347,  0.055411427583822 ]
    mass: 118.710000
    reduced_to: 73
  - symbol: Sn # 74
    coordinates: [  0.479715710333364,  0.225490111096347,  0.055411427583822 ]
    mass: 118.710000
    reduced_to: 73
  - symbol: Sn # 75
    coordinates: [  0.813049043666697,  0.225490111096347,  0.055411427583822 ]
    mass: 118.710000
    reduced_to: 73
  - symbol: Sn # 76
    coordinates: [  0.146382377000031,  0.725490111096347,  0.055411427583822 ]
    mass: 118.710000
    reduced_to: 73
  - symbol: Sn # 77
    coordinates: [  0.479715710333364,  0.725490111096347,  0.055411427583822 ]
    mass: 118.710000
    reduced_to: 73
  - symbol: Sn # 78
    coordinates: [  0.813049043666697,  0.725490111096347,  0.055411427583822 ]
    mass: 118.710000
    reduced_to: 73
  - symbol: Sn # 79
    coordinates: [  0.146382377000031,  0.225490111096347,  0.555411427583822 ]
    mass: 118.710000
    reduced_to: 73
  - symbol: Sn # 80
    coordinates: [  0.479715710333364,  0.225490111096347,  0.555411427583822 ]
    mass: 118.710000
    reduced_to: 73
  - symbol: Sn # 81
    coordinates: [  0.813049043666697,  0.225490111096347,  0.555411427583822 ]
    mass: 118.710000
    reduced_to: 73
  - symbol: Sn # 82
    coordinates: [  0.146382377000031,  0.725490111096347,  0.555411427583822 ]
    mass: 118.710000
    reduced_to: 73
  - symbol: Sn # 83
    coordinates: [  0.479715710333364,  0.725490111096347,  0.555411427583822 ]
    mass: 118.710000
    reduced_to: 73
  - symbol: Sn # 84
    coordinates: [  0.813049043666697,  0.725490111096347,  0.555411427583822 ]
    mass: 118.710000
    reduced_to: 73
  - symbol: Sn # 85
    coordinates: [  0.279581203515530,  0.014171741565543,  0.455110646779076 ]
    mass: 118.710000
    reduced_to: 85
  - symbol: Sn # 86
    coordinates: [  0.612914536848863,  0.014171741565543,  0.455110646779076 ]
    mass: 118.710000
    reduced_to: 85
  - symbol: Sn # 87
    coordinates: [  0.946247870182196,  0.014171741565543,  0.455110646779076 ]
    mass: 118.710000
    reduced_to: 85
  - symbol: Sn # 88
    coordinates: [  0.279581203515530,  0.514171741565543,  0.455110646779076 ]
    mass: 118.710000
    reduced_to: 85
  - symbol: Sn # 89
    coordinates: [  0.612914536848863,  0.514171741565543,  0.455110646779076 ]
    mass: 118.710000
    reduced_to: 85
  - symbol: Sn # 90
    coordinates: [  0.946247870182196,  0.514171741565543,  0.455110646779076 ]
    mass: 118.710000
    reduced_to: 85
  - symbol: Sn # 91
    coordinates: [  0.279581203515530,  0.014171741565543,  0.955110646779076 ]
    mass: 118.710000
    reduced_to: 85
  - symbol: Sn # 92
    coordinates: [  0.612914536848863,  0.014171741565543,  0.955110646779076 ]
    mass: 118.710000
    reduced_to: 85
  - symbol: Sn # 93
    coordinates: [  0.946247870182196,  0.014171741565543,  0.955110646779076 ]
    mass: 118.710000
    reduced_to: 85
  - symbol: Sn # 94
    coordinates: [  0.279581203515530,  0.514171741565543,  0.955110646779076 ]
    mass: 118.710000
    reduced_to: 85
  - symbol: Sn # 95
    coordinates: [  0.612914536848863,  0.514171741565543,  0.955110646779076 ]
    mass: 118.710000
    reduced_to: 85
  - symbol: Sn # 96
    coordinates: [  0.946247870182196,  0.514171741565543,  0.955110646779076 ]
    mass: 118.710000
    reduced_to: 85
  - symbol: Sn # 97
    coordinates: [  0.209583158495118,  0.106900719846246,  0.245103538882720 ]
    mass: 118.710000
    reduced_to: 97
  - symbol: Sn # 98
    coordinates: [  0.542916491828451,  0.106900719846246,  0.245103538882720 ]
    mass: 118.710000
    reduced_to: 97
  - symbol: Sn # 99
    coordinates: [  0.876249825161785,  0.106900719846246,  0.245103538882720 ]
    mass: 118.710000
    reduced_to: 97
  - symbol: Sn # 100
    coordinates: [  0.209583158495118,  0.606900719846246,  0.245103538882720 ]
    mass: 118.710000
    reduced_to: 97
  - symbol: Sn # 101
    coordinates: [  0.542916491828451,  0.606900719846246,  0.245103538882720 ]
    mass: 118.710000
    reduced_to: 97
  - symbol: Sn # 102
    coordinates: [  0.876249825161785,  0.606900719846246,  0.245103538882720 ]
    mass: 118.710000
    reduced_to: 97
  - symbol: Sn # 103
    coordinates: [  0.209583158495118,  0.106900719846246,  0.745103538882720 ]
    mass: 118.710000
    reduced_to: 97
  - symbol: Sn # 104
    coordinates: [  0.542916491828451,  0.106900719846246,  0.745103538882720 ]
    mass: 118.710000
    reduced_to: 97
  - symbol: Sn # 105
    coordinates: [  0.876249825161785,  0.106900719846246,  0.745103538882720 ]
    mass: 118.710000
    reduced_to: 97
  - symbol: Sn # 106
    coordinates: [  0.209583158495118,  0.606900719846246,  0.745103538882720 ]
    mass: 118.710000
    reduced_to: 97
  - symbol: Sn # 107
    coordinates: [  0.542916491828451,  0.606900719846246,  0.745103538882720 ]
    mass: 118.710000
    reduced_to: 97
  - symbol: Sn # 108
    coordinates: [  0.876249825161785,  0.606900719846246,  0.745103538882720 ]
    mass: 118.710000
    reduced_to: 97
  - symbol: Sn # 109
    coordinates: [  0.076400511601200,  0.318093971451017,  0.345419854746527 ]
    mass: 118.710000
    reduced_to: 109
  - symbol: Sn # 110
    coordinates: [  0.409733844934533,  0.318093971451017,  0.345419854746527 ]
    mass: 118.710000
    reduced_to: 109
  - symbol: Sn # 111
    coordinates: [  0.743067178267867,  0.318093971451017,  0.345419854746527 ]
    mass: 118.710000
    reduced_to: 109
  - symbol: Sn # 112
    coordinates: [  0.076400511601200,  0.818093971451017,  0.345419854746527 ]
    mass: 118.710000
    reduced_to: 109
  - symbol: Sn # 113
    coordinates: [  0.409733844934533,  0.818093971451017,  0.345419854746527 ]
    mass: 118.710000
    reduced_to: 109
  - symbol: Sn # 114
    coordinates: [  0.743067178267867,  0.818093971451017,  0.345419854746527 ]
    mass: 118.710000
    reduced_to: 109
  - symbol: Sn # 115
    coordinates: [  0.076400511601200,  0.318093971451017,  0.845419854746527 ]
    mass: 118.710000
    reduced_to: 109
  - symbol: Sn # 116
    coordinates: [  0.409733844934533,  0.318093971451017,  0.845419854746527 ]
    mass: 118.710000
    reduced_to: 109
  - symbol: Sn # 117
    coordinates: [  0.743067178267867,  0.318093971451017,  0.845419854746527 ]
    mass: 118.710000
    reduced_to: 109
  - symbol: Sn # 118
    coordinates: [  0.076400511601200,  0.818093971451017,  0.845419854746527 ]
    mass: 118.710000
    reduced_to: 109
  - symbol: Sn # 119
    coordinates: [  0.409733844934533,  0.818093971451017,  0.845419854746527 ]
    mass: 118.710000
    reduced_to: 109
  - symbol: Sn # 120
    coordinates: [  0.743067178267867,  0.818093971451017,  0.845419854746527 ]
    mass: 118.710000
    reduced_to: 109

displacements:
- atom:    1
  displacement:
    [   0.0100000000000000,  0.0000000000000000,  0.0000000000000000 ]
  forces:
  - [  -0.0222693942487240,  0.0404298827052116,  0.0241365190595388 ]
  - [   0.0004518531495705,  0.0405177362263203,  0.0239785015583038 ]
  - [   0.0004635425284505,  0.0405230522155762,  0.0240548755973577 ]
  - [   0.0002292683202541,  0.0405216477811337,  0.0240168962627649 ]
  - [   0.0002781485673040,  0.0405153818428516,  0.0240004472434521 ]
  - [   0.0002771702129394,  0.0405279584228992,  0.0240332223474979 ]
  - [   0.0002850652963389,  0.0405205301940441,  0.0240095034241676 ]
  - [   0.0002861496177502,  0.0405173189938068,  0.0240188501775265 ]
  - [   0.0002843009133358,  0.0405264496803284,  0.0240189060568810 ]
  - [   0.0002852987672668,  0.0405145622789860,  0.0240248106420040 ]
  - [   0.0002852393663488,  0.0405192971229553,  0.0240164808928967 ]
  - [   0.0002858082880266,  0.0405259691178799,  0.0240090414881706 ]
  - [   0.0016634881030768,  0.0044084079563618, -0.0073244329541922 ]
  - [   0.0016639222158119,  0.0043955314904451, -0.0073115983977914 ]
  - [   0.0016613357001916,  0.0044007822871208, -0.0073184939101338 ]
  - [   0.0018183863721788,  0.0045110220089555, -0.0073718163184822 ]
  - [   0.0018182977801189,  0.0042923456057906, -0.0072632897645235 ]
  - [   0.0016508179251105,  0.0044004907831550, -0.0073221065104008 ]
  - [   0.0016163953114301,  0.0044023096561432, -0.0073190568946302 ]
  - [   0.0016002051997930,  0.0044364370405674, -0.0072954529896379 ]
  - [   0.0016021057963371,  0.0043682157993317, -0.0073425397276878 ]
  - [   0.0016011428087950,  0.0044020423665643, -0.0073184799402952 ]
  - [   0.0005568313645199,  0.0038881748914719, -0.0067301252856851 ]
  - [   0.0005518608377315,  0.0049175117164850, -0.0079104825854301 ]
  - [   0.0006530953105539, -0.0387926027178764, -0.0234657619148493 ]
  - [   0.0000214001629502, -0.0387036576867104, -0.0235841162502766 ]
  - [   0.0000187240948435, -0.0388868376612663, -0.0233428739011288 ]
  - [   0.0001585241698194, -0.0387920551002026, -0.0234641581773758 ]
  - [   0.0002141119039152, -0.0388149470090866, -0.0234744902700186 ]
  - [   0.0002145581238437, -0.0387727469205856, -0.0234556198120117 ]
  - [   0.0004955064505339, -0.0386825278401375, -0.0236016325652599 ]
  - [   0.0002459287643433, -0.0387937650084496, -0.0234647635370493 ]
  - [   0.0004967768327333, -0.0389019474387169, -0.0233182497322559 ]
  - [   0.0002534645609558, -0.0387924462556839, -0.0234591383486986 ]
  - [   0.0002203738549724, -0.0387933850288391, -0.0234655588865280 ]
  - [   0.0002527132164687, -0.0387924239039421, -0.0234712511301041 ]
  - [  -0.0001298087590840, -0.0008860273519531, -0.0012697001220658 ]
  - [  -0.0001309965300607, -0.0008095116936602, -0.0010662830900401 ]
  - [  -0.0002624501939863, -0.0008497868548147, -0.0011674908455461 ]
  - [   0.0000697429204592, -0.0008847244898789, -0.0014197307173163 ]
  - [   0.0000823731970740, -0.0008069183677435, -0.0009154347935691 ]
  - [  -0.0002837300417013, -0.0008498684037477, -0.0011662448523566 ]
  - [  -0.0002320186467841, -0.0008506916929036, -0.0011686977231875 ]
  - [  -0.0002699928299990, -0.0008455446222797, -0.0011603400344029 ]
  - [  -0.0002708235988393, -0.0008539201808162, -0.0011732690036297 ]
  - [  -0.0002576427650638, -0.0008496763184667, -0.0011681574396789 ]
  - [  -0.0002586019982118, -0.0008468428277411, -0.0011582862352952 ]
  - [  -0.0002594129764475, -0.0008520131232217, -0.0011760800844058 ]
  - [  -0.0013977605849504, -0.0033442880958319,  0.0068923141807318 ]
  - [  -0.0014010891318321, -0.0033445935696363,  0.0068918522447348 ]
  - [  -0.0014040339738131, -0.0033454643562436,  0.0068905828520656 ]
  - [  -0.0014570970088243, -0.0033450797200203,  0.0068970723077655 ]
  - [  -0.0014030989259481, -0.0033420789986849,  0.0068826815113425 ]
  - [  -0.0013930629938841, -0.0033470271155238,  0.0068985950201750 ]
  - [  -0.0011204021284357, -0.0035757422447205,  0.0068983249366283 ]
  - [  -0.0014300982002169, -0.0033450573682785,  0.0068907919339836 ]
  - [  -0.0011296583106741, -0.0031163478270173,  0.0068756141699851 ]
  - [  -0.0011978761758655, -0.0033073714002967,  0.0067086587660015 ]
  - [  -0.0014136924874038, -0.0033443439751863,  0.0068902312777936 ]
  - [  -0.0011975211091340, -0.0033915219828486,  0.0070741111412644 ]
  - [   0.0026590088382363, -0.0000502003822476, -0.0019163526594639 ]
  - [   0.0027024159207940, -0.0025854511186481,  0.0018351341132075 ]
  - [  -0.0001519626530353, -0.0013062371872365, -0.0000581881322432 ]
  - [  -0.0000740754039725, -0.0013625414576381, -0.0001140681270044 ]
  - [  -0.0000733454799047, -0.0012481660814956, -0.0000018043501768 ]
  - [  -0.0001336852874374, -0.0013060665223747, -0.0000584175722906 ]
  - [  -0.0001799690944608, -0.0013050521956757, -0.0000583792570978 ]
  - [  -0.0001613256754354, -0.0013053314760327, -0.0000521410547663 ]
  - [  -0.0001614168577362, -0.0013054981827736, -0.0000645898689982 ]
  - [  -0.0001511766458862, -0.0013054782757536, -0.0000586062087677 ]
  - [  -0.0001672131475061, -0.0013074369635433, -0.0000540497712791 ]
  - [  -0.0001662299182499, -0.0013030564878136, -0.0000611956347711 ]
  - [   0.0009471771772951, -0.0049441792070866,  0.0014563165605068 ]
  - [   0.0008741318015382, -0.0050198771059513,  0.0014091674238443 ]
  - [   0.0008743669604883, -0.0049349218606949,  0.0015067905187607 ]
  - [   0.0001833421119954, -0.0049968771636486,  0.0014591682702303 ]
  - [   0.0008881631656550, -0.0048974864184856,  0.0016866065561771 ]
  - [   0.0008889586897567, -0.0050558857619762,  0.0012298785150051 ]
  - [   0.0008560904534534, -0.0049740932881832,  0.0014925021678209 ]
  - [   0.0008402148960158, -0.0049637891352177,  0.0014404915273190 ]
  - [   0.0008598081767559, -0.0049922838807106,  0.0014423914253712 ]
  - [   0.0008455670904368, -0.0049756430089474,  0.0014564450830221 ]
  - [   0.0008524520089850, -0.0049814060330391,  0.0014603622257710 ]
  - [   0.0008555750828236, -0.0049753896892071,  0.0014559421688318 ]
  - [  -0.0007114983163774,  0.0066430456936359, -0.0312511846423149 ]
  - [  -0.0006942594773136,  0.0066464208066463, -0.0312349945306778 ]
  - [  -0.0007048724219203,  0.0066406242549419, -0.0312550589442253 ]
  - [  -0.0006715725176036,  0.0066401362419128, -0.0312371328473091 ]
  - [  -0.0007180295069702,  0.0066498313099146, -0.0312801860272884 ]
  - [  -0.0007047310355119,  0.0066389050334692, -0.0312233939766884 ]
  - [  -0.0007684314623475,  0.0067470446228981, -0.0311614386737347 ]
  - [  -0.0007458582404070,  0.0066435318440199, -0.0312434583902359 ]
  - [  -0.0007692949147895,  0.0065388865768909, -0.0313286967575550 ]
  - [   0.0082925651222467,  0.0099554099142551, -0.0358119569718838 ]
  - [  -0.0006433498929255,  0.0066436268389225, -0.0312443859875202 ]
  - [   0.0080806296318769,  0.0034283827990294, -0.0268108770251274 ]
  - [  -0.0005335872992873,  0.0028284937143326, -0.0014679487794638 ]
  - [  -0.0005882858531550,  0.0028319843113422, -0.0014996044337749 ]
  - [  -0.0005860222736374,  0.0028251819312572, -0.0014339704066515 ]
  - [  -0.0003417554544285,  0.0028186477720737, -0.0014998372644186 ]
  - [  -0.0005791531875730,  0.0029128603637218, -0.0014731884002686 ]
  - [  -0.0005790458526462,  0.0027461908757687, -0.0014585573226213 ]
  - [  -0.0006760067772120,  0.0029493793845177, -0.0013803634792566 ]
  - [  -0.0005709598772228,  0.0028281137347221, -0.0014623384922743 ]
  - [  -0.0006776393856853,  0.0027051642537117, -0.0015478841960430 ]
  - [  -0.0006755373906344,  0.0029272213578224, -0.0016121901571751 ]
  - [  -0.0005056204972789,  0.0028271973133087, -0.0014618150889874 ]
  - [  -0.0006756277289242,  0.0027269907295704, -0.0013158153742552 ]
  - [   0.0000716981012374, -0.0051194615662098,  0.0323472321033478 ]
  - [   0.0000708393490640, -0.0051242001354694,  0.0323559865355492 ]
  - [   0.0000684802798787, -0.0051214918494225,  0.0323552787303925 ]
  - [   0.0000134929578053, -0.0050282329320908,  0.0324696823954582 ]
  - [   0.0000133157736855, -0.0052176918834448,  0.0322358608245850 ]
  - [   0.0000132914428832, -0.0051239207386971,  0.0323554053902626 ]
  - [  -0.0005170601652935, -0.0051200259476900,  0.0323731824755669 ]
  - [   0.0000379055272788, -0.0052760969847441,  0.0323697850108147 ]
  - [   0.0000376453390345, -0.0049674268811941,  0.0323356762528419 ]
  - [   0.0000774644868216, -0.0051241684705019,  0.0323540680110455 ]
  - [   0.0000543156638741, -0.0050925128161907,  0.0323566645383835 ]
  - [   0.0000559156760573, -0.0051549561321735,  0.0323505252599716 ]
- atom:    1
  displacement:
    [  -0.0100000000000000,  0.0000000000000000,  0.0000000000000000 ]
  forces:
  - [   0.0228413101285696,  0.0404412001371384,  0.0241275355219841 ]
  - [   0.0001061528455466,  0.0405231378972530,  0.0240545030683279 ]
  - [   0.0001178720704047,  0.0405189208686352,  0.0239776745438576 ]
  - [   0.0003430604410823,  0.0405222065746784,  0.0240170285105705 ]
  - [   0.0002912131603807,  0.0405287742614746,  0.0240346789360046 ]
  - [   0.0002902693231590,  0.0405148491263390,  0.0239990036934614 ]