# Thermal properties / unit cell (natom)

unit:
  temperature:   K
  free_energy:   kJ/mol
  entropy:       J/K/mol
  heat_capacity: J/K/mol

natom: 2    
cutoff_frequency: 0.00000
num_modes: 146334
num_integrated_modes: 146260

zero_point_energy:       6.4155711

thermal_properties:
- temperature:         0.0000000
  free_energy:         6.4155711
  entropy:             0.0000000
  heat_capacity:       0.0000000
  energy:              6.4155711

- temperature:        10.0000000
  free_energy:         6.4137705
  entropy:             0.5531302
  heat_capacity:       1.2036976
  energy:              6.4193018

- temperature:        20.0000000
  free_energy:         6.3990827
  entropy:             2.7051842
  heat_capacity:       6.1464636
  energy:              6.4531864

- temperature:        30.0000000
  free_energy:         6.3546524
  entropy:             6.3283333
  heat_capacity:      11.9053587
  energy:              6.5445024

- temperature:        40.0000000
  free_energy:         6.2712423
  entropy:            10.3594285
  heat_capacity:      16.0528332
  energy:              6.6856195

- temperature:        50.0000000
  free_energy:         6.1478983
  entropy:            14.2732687
  heat_capacity:      19.0009069
  energy:              6.8615618

- temperature:        60.0000000
  free_energy:         5.9865588
  entropy:            17.9563276
  heat_capacity:      21.4264336
  energy:              7.0639385

- temperature:        70.0000000
  free_energy:         5.7894726
  entropy:            21.4295241
  heat_capacity:      23.6783471
  energy:              7.2895393

- temperature:        80.0000000
  free_energy:         5.5585282
  entropy:            24.7343186
  heat_capacity:      25.8574111
  energy:              7.5372737

- temperature:        90.0000000
  free_energy:         5.2952419
  entropy:            27.9019843
  heat_capacity:      27.9556542
  energy:              7.8064205

- temperature:       100.0000000
  free_energy:         5.0008825
  entropy:            30.9511759
  heat_capacity:      29.9381825
  energy:              8.0960001

- temperature:       110.0000000
  free_energy:         4.6765791
  entropy:            33.8920120
  heat_capacity:      31.7760866
  energy:              8.4047004

- temperature:       120.0000000
  free_energy:         4.3233848
  entropy:            36.7300308
  heat_capacity:      33.4544057
  energy:              8.7309885

- temperature:       130.0000000
  free_energy:         3.9423094
  entropy:            39.4687513
  heat_capacity:      34.9705715
  energy:              9.0732470

- temperature:       140.0000000
  free_energy:         3.5343312
  entropy:            42.1110533
  heat_capacity:      36.3305085
  energy:              9.4298786

- temperature:       150.0000000
  free_energy:         3.1004001
  entropy:            44.6598143
  heat_capacity:      37.5450403
  energy:              9.7993723

- temperature:       160.0000000
  free_energy:         2.6414364
  entropy:            47.1181375
  heat_capacity:      38.6272699
  energy:             10.1803384

- temperature:       170.0000000
  free_energy:         2.1583277
  entropy:            49.4893805
  heat_capacity:      39.5908867
  energy:             10.5715224

- temperature:       180.0000000
  free_energy:         1.6519272
  entropy:            51.7770995
  heat_capacity:      40.4491704
  energy:             10.9718051

- temperature:       190.0000000
  free_energy:         1.1230519
  entropy:            53.9849688
  heat_capacity:      41.2144637
  energy:             11.3801959

- temperature:       200.0000000
  free_energy:         0.5724816
  entropy:            56.1167010
  heat_capacity:      41.8979402
  energy:             11.7958218

- temperature:       210.0000000
  free_energy:         0.0009593
  entropy:            58.1759808
  heat_capacity:      42.5095467
  energy:             12.2179153

- temperature:       220.0000000
  free_energy:        -0.5908085
  entropy:            60.1664137
  heat_capacity:      43.0580437
  energy:             12.6458025

- temperature:       230.0000000
  free_energy:        -1.2021511
  entropy:            62.0914894
  heat_capacity:      43.5510948
  energy:             13.0788915

- temperature:       240.0000000
  free_energy:        -1.8324316
  entropy:            63.9545565
  heat_capacity:      43.9953766
  energy:             13.5166619

- temperature:       250.0000000
  free_energy:        -2.4810462
  entropy:            65.7588082
  heat_capacity:      44.3966934
  energy:             13.9586559

- temperature:       260.0000000
  free_energy:        -3.1474219
  entropy:            67.5072743
  heat_capacity:      44.7600865
  energy:             14.4044694

- temperature:       270.0000000
  free_energy:        -3.8310153
  entropy:            69.2028190
  heat_capacity:      45.0899351
  energy:             14.8537458

- temperature:       280.0000000
  free_energy:        -4.5313109
  entropy:            70.8481427
  heat_capacity:      45.3900464
  energy:             15.3061691

- temperature:       290.0000000
  free_energy:        -5.2478192
  entropy:            72.4457861
  heat_capacity:      45.6637341
  energy:             15.7614587

- temperature:       300.0000000
  free_energy:        -5.9800756
  entropy:            73.9981366
  heat_capacity:      45.9138871
  energy:             16.2193654

- temperature:       310.0000000
  free_energy:        -6.7276385
  entropy:            75.5074353
  heat_capacity:      46.1430290
  energy:             16.6796665

- temperature:       320.0000000
  free_energy:        -7.4900879
  entropy:            76.9757848
  heat_capacity:      46.3533683
  energy:             17.1421633

- temperature:       330.0000000
  free_energy:        -8.2670243
  entropy:            78.4051573
  heat_capacity:      46.5468423
  energy:             17.6066777

- temperature:       340.0000000
  free_energy:        -9.0580673
  entropy:            79.7974026
  heat_capacity:      46.7251541
  energy:             18.0730496

- temperature:       350.0000000
  free_energy:        -9.8628543
  entropy:            81.1542559
  heat_capacity:      46.8898040
  energy:             18.5411352

- temperature:       360.0000000
  free_energy:       -10.6810398
  entropy:            82.4773456
  heat_capacity:      47.0421171
  energy:             19.0108046

- temperature:       370.0000000
  free_energy:       -11.5122938
  entropy:            83.7682005
  heat_capacity:      47.1832662
  energy:             19.4819404

- temperature:       380.0000000
  free_energy:       -12.3563012
  entropy:            85.0282563
  heat_capacity:      47.3142915
  energy:             19.9544362

- temperature:       390.0000000
  free_energy:       -13.2127608
  entropy:            86.2588624
  heat_capacity:      47.4361178
  energy:             20.4281955

- temperature:       400.0000000
  free_energy:       -14.0813845
  entropy:            87.4612879
  heat_capacity:      47.5495694
  energy:             20.9031306

- temperature:       410.0000000
  free_energy:       -14.9618966
  entropy:            88.6367270
  heat_capacity:      47.6553818
  energy:             21.3791615

- temperature:       420.0000000
  free_energy:       -15.8540329
  entropy:            89.7863044
  heat_capacity:      47.7542136
  energy:             21.8562150

- temperature:       430.0000000
  free_energy:       -16.7575400
  entropy:            90.9110802
  heat_capacity:      47.8466550
  energy:             22.3342244

- temperature:       440.0000000
  free_energy:       -17.6721751
  entropy:            92.0120539
  heat_capacity:      47.9332364
  energy:             22.8131286

- temperature:       450.0000000
  free_energy:       -18.5977049
  entropy:            93.0901692
  heat_capacity:      48.0144352
  energy:             23.2928712

- temperature:       460.0000000
  free_energy:       -19.5339053
  entropy:            94.1463176
  heat_capacity:      48.0906818
  energy:             23.7734008

- temperature:       470.0000000
  free_energy:       -20.4805609
  entropy:            95.1813415
  heat_capacity:      48.1623652
  energy:             24.2546697

- temperature:       480.0000000
  free_energy:       -21.4374644
  entropy:            96.1960384
  heat_capacity:      48.2298377
  energy:             24.7366341

- temperature:       490.0000000
  free_energy:       -22.4044164
  entropy:            97.1911629
  heat_capacity:      48.2934184
  energy:             25.2192535

- temperature:       500.0000000
  free_energy:       -23.3812248
  entropy:            98.1674304
  heat_capacity:      48.3533972
  energy:             25.7024904

- temperature:       510.0000000
  free_energy:       -24.3677044
  entropy:            99.1255190
  heat_capacity:      48.4100381
  energy:             26.1863103

- temperature:       520.0000000
  free_energy:       -25.3636767
  entropy:           100.0660722
  heat_capacity:      48.4635813
  energy:             26.6706809

- temperature:       530.0000000
  free_energy:       -26.3689694
  entropy:           100.9897014
  heat_capacity:      48.5142463
  energy:             27.1555723

- temperature:       540.0000000
  free_energy:       -27.3834163
  entropy:           101.8969873
  heat_capacity:      48.5622335
  energy:             27.6409569

- temperature:       550.0000000
  free_energy:       -28.4068565
  entropy:           102.7884822
  heat_capacity:      48.6077266
  energy:             28.1268087

- temperature:       560.0000000
  free_energy:       -29.4391350
  entropy:           103.6647119
  heat_capacity:      48.6508936
  energy:             28.6131036

- temperature:       570.0000000
  free_energy:       -30.4801016
  entropy:           104.5261770
  heat_capacity:      48.6918891
  energy:             29.0998193

- temperature:       580.0000000
  free_energy:       -31.5296109
  entropy:           105.3733545
  heat_capacity:      48.7308551
  energy:             29.5869347

- temperature:       590.0000000
  free_energy:       -32.5875226
  entropy:           106.2066994
  heat_capacity:      48.7679220
  energy:             30.0744301

- temperature:       600.0000000
  free_energy:       -33.6537003
  entropy:           107.0266457
  heat_capacity:      48.8032104
  energy:             30.5622872

- temperature:       610.0000000
  free_energy:       -34.7280122
  entropy:           107.8336081
  heat_capacity:      48.8368313
  energy:             31.0504887

- temperature:       620.0000000
  free_energy:       -35.8103305
  entropy:           108.6279823
  heat_capacity:      48.8688873
  energy:             31.5390186

- temperature:       630.0000000
  free_energy:       -36.9005311
  entropy:           109.4101472
  heat_capacity:      48.8994734
  energy:             32.0278616

- temperature:       640.0000000
  free_energy:       -37.9984939
  entropy:           110.1804646
  heat_capacity:      48.9286773
  energy:             32.5170034

- temperature:       650.0000000
  free_energy:       -39.1041021
  entropy:           110.9392814
  heat_capacity:      48.9565805
  energy:             33.0064308

- temperature:       660.0000000
  free_energy:       -40.2172423
  entropy:           111.6869292
  heat_capacity:      48.9832587
  energy:             33.4961310

- temperature:       670.0000000
  free_energy:       -41.3378045
  entropy:           112.4237263
  heat_capacity:      49.0087819
  energy:             33.9860921

- temperature:       680.0000000
  free_energy:       -42.4656817
  entropy:           113.1499775
  heat_capacity:      49.0332156
  energy:             34.4763030

- temperature:       690.0000000
  free_energy:       -43.6007699
  entropy:           113.8659752
  heat_capacity:      49.0566205
  energy:             34.9667530

- temperature:       700.0000000
  free_energy:       -44.7429680
  entropy:           114.5720002
  heat_capacity:      49.0790531
  energy:             35.4574321

- temperature:       710.0000000
  free_energy:       -45.8921775
  entropy:           115.2683219
  heat_capacity:      49.1005662
  energy:             35.9483310

- temperature:       720.0000000
  free_energy:       -47.0483029
  entropy:           115.9551993
  heat_capacity:      49.1212093
  energy:             36.4394406

- temperature:       730.0000000
  free_energy:       -48.2112509
  entropy:           116.6328812
  heat_capacity:      49.1410282
  energy:             36.9307524

- temperature:       740.0000000
  free_energy:       -49.3809307
  entropy:           117.3016071
  heat_capacity:      49.1600660
  energy:             37.4222585

- temperature:       750.0000000
  free_energy:       -50.5572539
  entropy:           117.9616070
  heat_capacity:      49.1783631
  energy:             37.9139513

- temperature:       760.0000000
  free_energy:       -51.7401345
  entropy:           118.6131025
  heat_capacity:      49.1959572
  energy:             38.4058234

- temperature:       770.0000000
  free_energy:       -52.9294884
  entropy:           119.2563072
  heat_capacity:      49.2128836
  energy:             38.8978682

- temperature:       780.0000000
  free_energy:       -54.1252337
  entropy:           119.8914265
  heat_capacity:      49.2291756
  energy:             39.3900790

- temperature:       790.0000000
  free_energy:       -55.3272906
  entropy:           120.5186586
  heat_capacity:      49.2448643
  energy:             39.8824497

- temperature:       800.0000000
  free_energy:       -56.5355812
  entropy:           121.1381945
  heat_capacity:      49.2599790
  energy:             40.3749744

- temperature:       810.0000000
  free_energy:       -57.7500294
  entropy:           121.7502184
  heat_capacity:      49.2745473
  energy:             40.8676475

- temperature:       820.0000000
  free_energy:       -58.9705611
  entropy:           122.3549082
  heat_capacity:      49.2885950
  energy:             41.3604636

- temperature:       830.0000000
  free_energy:       -60.1971037
  entropy:           122.9524355
  heat_capacity:      49.3021466
  energy:             41.8534177

- temperature:       840.0000000
  free_energy:       -61.4295865
  entropy:           123.5429660
  heat_capacity:      49.3152250
  energy:             42.3465049

- temperature:       850.0000000
  free_energy:       -62.6679403
  entropy:           124.1266600
  heat_capacity:      49.3278519
  energy:             42.8397207

- temperature:       860.0000000
  free_energy:       -63.9120974
  entropy:           124.7036721
  heat_capacity:      49.3400479
  energy:             43.3330605

- temperature:       870.0000000
  free_energy:       -65.1619919
  entropy:           125.2741520
  heat_capacity:      49.3518321
  energy:             43.8265203

- temperature:       880.0000000
  free_energy:       -66.4175592
  entropy:           125.8382444
  heat_capacity:      49.3632230
  energy:             44.3200959

- temperature:       890.0000000
  free_energy:       -67.6787360
  entropy:           126.3960893
  heat_capacity:      49.3742376
  energy:             44.8137835

- temperature:       900.0000000
  free_energy:       -68.9454606
  entropy:           126.9478223
  heat_capacity:      49.3848924
  energy:             45.3075794

- temperature:       910.0000000
  free_energy:       -70.2176725
  entropy:           127.4935744
  heat_capacity:      49.3952028
  energy:             45.8014802

- temperature:       920.0000000
  free_energy:       -71.4953126
  entropy:           128.0334728
  heat_capacity:      49.4051834
  energy:             46.2954824

- temperature:       930.0000000
  free_energy:       -72.7783229
  entropy:           128.5676405
  heat_capacity:      49.4148481
  energy:             46.7895828

- temperature:       940.0000000
  free_energy:       -74.0666467
  entropy:           129.0961968
  heat_capacity:      49.4242101
  energy:             47.2837783

- temperature:       950.0000000
  free_energy:       -75.3602285
  entropy:           129.6192574
  heat_capacity:      49.4332818
  energy:             47.7780660

- temperature:       960.0000000
  free_energy:       -76.6590139
  entropy:           130.1369343
  heat_capacity:      49.4420751
  energy:             48.2724430

- temperature:       970.0000000
  free_energy:       -77.9629496
  entropy:           130.6493363
  heat_capacity:      49.4506011
  energy:             48.7669066

- temperature:       980.0000000
  free_energy:       -79.2719834
  entropy:           131.1565690
  heat_capacity:      49.4588706
  energy:             49.2614542

- temperature:       990.0000000
  free_energy:       -80.5860641
  entropy:           131.6587347
  heat_capacity:      49.4668938
  energy:             49.7560832

- temperature:      1000.0000000
  free_energy:       -81.9051415
  entropy:           132.1559328
  heat_capacity:      49.4746803
  energy:             50.2507913
