18
Lattice="5.4479785195952095 0.005342897721546313 -2.1663926029363387 -0.69838679898904 7.917767055581741 -1.7479887972373613 0.0017753095159133104 -0.009367684523254538 7.9220063061600206" Properties=species:S:1:pos:R:3:forces:R:3 structure_index=0 total_energy=-50.7763557434082 stress="0.01444247830659151 0.00047100664232857525 0.002493141684681177 0.000470975210191682 0.019935518503189087 -0.0010903488146141171 0.002493232721462846 -0.0010903198271989822 0.01807323656976223" pbc="T T T"
Li       3.92443458       2.61032162      -2.20930939      -0.03788362      -0.00441719       0.00421237
Li       0.78627856       7.65143193       5.33835514       0.03863033       0.00233592      -0.01116290
Li       1.84400128       6.86304439       0.20044744       0.02268311       0.02100868       0.01381003
Li       0.83862761       1.48368279       1.71823591       0.01477831       0.00368933       0.04685041
Li       4.51323081       6.86226378      -0.86070280      -0.00711937       0.02456848       0.02387360
Li       3.36639820       7.65468639       4.31047782      -0.03582913       0.00180335       0.02199399
Li       0.19689357       3.39612980       3.98041237       0.00765740      -0.02242522      -0.02227021
Li       1.37017424       6.03772149       3.05300777       0.00111433       0.02153045       0.00275298
Li       1.34386610       2.60669733      -1.19080991       0.03454831      -0.00263265      -0.01805448
Li      -0.36775559       5.12138837       6.60344524       0.00102643      -0.00001035       0.00394442
Li       3.34090382       4.22409738       0.06906823      -0.00091745      -0.02245086      -0.00270225
Li       2.86750220       3.39840178       2.92162146      -0.02329291      -0.02203184      -0.01142117
Li       4.56942925       0.86030261       3.15308994      -0.01469759      -0.00641976      -0.04492342
Sn       1.88504783       0.90161807       4.32874747      -0.00635832       0.01253764      -0.01842733
Sn       0.60375493       4.25490011       1.11646982      -0.00594286      -0.03046761      -0.02651519
Sn       4.10843952       6.00409717       2.00587964       0.00574971       0.03730620       0.02367401
Sn       3.52272275       1.44273342       0.54444138       0.00660857      -0.01422451       0.01525673
Sn       2.35680206       5.12541889       5.52173884      -0.00075526       0.00029993      -0.00089162
8
Lattice="4.854234147201291 -0.0014615864972080301 0.00083702277571243 0.0014306649241046848 5.196642142157169 -2.9919122196231234 -0.0018348863226799136 -0.00878957420097258 5.997543328900802" Properties=species:S:1:pos:R:3:forces:R:3 structure_index=1 total_energy=-22.157909393310547 stress="-0.04832508787512779 -0.0009248329442925751 -0.0009357812232337892 -0.0009247248526662588 -0.012194806709885597 -0.0017424485413357615 -0.0009358091047033668 -0.0017425536643713713 -0.011283522471785545" pbc="T T T"
Li       1.84494979       0.60227812       0.60736396       0.00045555       0.03469616      -0.00014805
Li       4.27316759       4.88169823       2.03185979      -0.00014661       0.01713455      -0.02908910
Li       4.27308843       2.14488988       3.60839921      -0.00066705      -0.03433380       0.00020676
Li       1.84543140       3.05815962       2.02898282       0.00018560      -0.01676901      -0.02869520
Li       4.27386637       4.88610201      -0.80524170      -0.00013027       0.01641858       0.02891437
Li       1.84613964       3.06215563      -0.80770332       0.00018717      -0.01684657       0.02857142
Sn       1.84573982       0.50670040       3.60559574      -0.00033810      -0.00032198       0.00054656
Sn       4.27213821       2.24082422       0.61008217       0.00045373       0.00002208      -0.00030675
16
Lattice="5.22146929829447 -0.000482019418054114 -0.10772086257956592 0.04308844622168155 6.292862759656194 -0.0671749970078821 0.08519797549452106 -0.047416683132815336 10.09388514073398" Properties=species:S:1:pos:R:3:forces:R:3 structure_index=2 total_energy=-50.169761657714844 stress="-0.003381806891411543 -0.0023612931836396456 0.0067499480210244656 -0.002361275488510728 0.01858494058251381 -0.0043914043344557285 0.006749890279024839 -0.004391382448375225 -0.0038642717991024256" pbc="T T T"
Li       2.17269445       5.95826738       7.84102070       0.00455211      -0.00975164       0.00549639
Li       3.81810693       2.90575719       2.70484869      -0.00933370      -0.00513960      -0.01469673
Li       3.03274920       4.34357340       5.23050572       0.00671257       0.02014905       0.01068000
Li       0.35253615       5.96866051       0.28128502       0.00274171      -0.00055809       0.00320964
Li       1.25064477       1.27915348       2.78571525       0.00653933      -0.02470944      -0.02653432
Li       0.44388243       5.95176268       5.31794031       0.01286529      -0.00049113      -0.01277944
Li       2.13758891       2.76585740       7.82176777       0.00003441       0.00675049       0.00915260
Li       0.34113693       2.90975277       0.29687614      -0.00520473      -0.00944421      -0.00827198
Li       3.84772276       5.92079029       2.67426734      -0.02047241      -0.00049052       0.01124138
Sn       4.71508364       1.20411129       7.86002746       0.01703570      -0.00585238      -0.00475224
Sn       2.90341909       4.41779099       0.24777839       0.00024352       0.01381992       0.00859054
Sn       0.45300427       2.81743710       5.17476686      -0.00028826       0.00828625       0.02725107
Sn       1.15886307       4.47538106       2.78503378      -0.01061533       0.01053651      -0.00394482
Sn       2.96817662       1.28006491       0.33167068      -0.00420860      -0.00244069       0.01224196
Sn       3.02355327       1.12429906       5.24835208       0.00295427       0.01285996      -0.00676990
Sn       4.83621121       4.37360011       7.71175428      -0.00355589      -0.01352449      -0.01011411
3
Lattice="4.193282511573223 -0.0017190934066470482 2.0573882260422764 1.5934921345796327 3.885206527654761 2.061509390732984 0.3180364056061573 0.2060160655547125 4.65174013768986" Properties=species:S:1:pos:R:3:forces:R:3 structure_index=3 total_energy=-10.29833698272705 stress="0.034945566207170486 0.006821246352046728 -0.0034367896150797606 0.006821167189627886 0.03789328783750534 -0.005288087297230959 -0.0034368757624179125 -0.005288111045956612 0.0313226543366909" pbc="T T T"
Li       1.68737136       3.74022011       2.85989847       0.00012844       0.00003314      -0.00015529
Sn       4.67186786       2.91629521       7.37839094       0.00076381       0.00545783      -0.00256426
Sn       1.62083398       0.88326821       2.98886455      -0.00089226      -0.00549097       0.00271957
6
Lattice="4.208856485402157 -0.00118645532098956 -2.145171525272168 0.002742577999298424 4.706917734158386 -0.002301737292623268 0.10634773756295017 0.0013216051376492113 5.405632799385853" Properties=species:S:1:pos:R:3:forces:R:3 structure_index=4 total_energy=-15.241785049438477 stress="0.020645327866077423 0.0021959173027426004 0.009624967351555824 0.002196099143475294 -0.031692467629909515 -0.000204249590751715 0.00962491612881422 -0.00020414784376043826 0.02157221920788288" pbc="T T T"
Li       0.92384627       2.58348947       0.57312264      -0.00867761       0.00041040      -0.01218292
Li       2.94536122       0.23100083      -0.65571528      -0.01329372      -0.00144162      -0.03323545
Li       1.70026378       0.23120234       2.09584982       0.01692500       0.00024642       0.03544489
Li       0.27312054       0.22952947       4.49369676      -0.00077702       0.00075442       0.00428102
Li       3.72550963       2.58186476       0.86725753       0.00517451       0.00261867       0.01385243
Sn       2.37701127       2.58573660       3.42560071       0.00064886      -0.00258829      -0.00815998
4
Lattice="3.342966552991794 -0.000300794044420291 -0.005743961509847798 0.0004575202881082529 4.984759935047991 -0.002275146361535886 0.008190189820572439 0.002270816134444505 5.012448688232808" Properties=species:S:1:pos:R:3:forces:R:3 structure_index=5 total_energy=-13.043534278869629 stress="0.01911116950213909 2.4724911781959236e-05 0.00010183249833062291 2.4740376829868183e-05 0.05999310314655304 5.756571772508323e-05 0.00010184210259467363 5.753693767474033e-05 0.05761915445327759" pbc="T T T"
Li       2.59502350       3.89005439       3.63001586      -0.00020938      -0.00011318      -0.03336413
Li       2.58946198       1.39599481       0.64551831       0.00021977       0.00015268       0.03328499
Sn       0.92312700       1.39750447       3.17542128      -0.00108490       0.00009648       0.00438974
Sn       0.91840565       3.88889307       1.10577601       0.00107451      -0.00013599      -0.00431060
7
Lattice="4.432967927402896 -0.0007811559428038458 1.4948813668867946 1.9657562719647486 3.9731910132981976 1.4955512247242537 0.005117747556209359 0.003086405893893448 7.297686018702616" Properties=species:S:1:pos:R:3:forces:R:3 structure_index=6 total_energy=-17.17795753479004 stress="-0.05647322162985802 0.0026977895759046078 -0.006103942636400461 0.0026978920213878155 -0.05969078093767166 -0.0035792619455605745 -0.0061038825660943985 -0.0035791248083114624 -0.04305095598101616" pbc="T T T"
Li       2.27212667       1.71120179       2.10208260      -0.00720856      -0.00392757       0.02287629
Li       0.48672714       0.60415018       7.38682626      -0.00510403      -0.00565876       0.02401813
Li       3.34270664       2.37489050       6.25037632       0.00891044       0.00614319      -0.02389989
Li       5.13406583       3.48676968       8.26311984       0.00380461       0.00400259      -0.02119673
Li       4.17799245       2.89427447       3.77224039      -0.00768703      -0.00416935       0.02521951
Li       1.43867805       1.19330391       4.57755224       0.00540581       0.00352497      -0.01882153
Sn       4.04101241       0.05665496       4.17813463       0.00187875       0.00008494      -0.00819579
12
Lattice="4.509772997605242 0.002364755000576955 1.4304116382285206 2.0109814636666914 6.910281887381722 1.4723300775083106 0.1671590472351511 -0.8192055363219614 7.298484157576402" Properties=species:S:1:pos:R:3:forces:R:3 structure_index=7 total_energy=-35.64142608642578 stress="-0.007134175859391689 -0.006632071454077959 -0.007161910645663738 -0.006631840020418167 0.005170099437236786 0.02086065523326397 -0.007161660585552454 0.020860495045781136 0.013174501247704029" pbc="T T T"
Li       0.84984836       1.85821051       2.41647050       0.00197371      -0.00774118      -0.00891043
Li       3.81713774       5.88652565       8.70091801      -0.00081009       0.00382688       0.00457773
Li       1.86347795       1.96623692       7.04553971       0.00103061      -0.00371386      -0.00575157
Li       1.93954925       4.90625327       6.80006594       0.00174673      -0.00793078      -0.00832023
Li       2.78560523       5.82991495       4.13167831       0.00070595      -0.00215719      -0.00452363
Li       2.72882763       2.84443531       4.31330241      -0.00104930       0.00229834       0.00517475
Li       2.65186120      -0.09384659       4.56115895      -0.00117648       0.00618572       0.00681876
Li       3.57564797       3.76614561       1.64214637      -0.00247492       0.00878732       0.01105811
Sn       5.45551855       4.74754229       3.53925017      -0.00363812       0.00923988       0.01082651
Sn       3.47941181       0.87809015       1.95095477       0.00311697      -0.00551334      -0.00904123
Sn       4.56951674       3.92833141       6.33340394       0.00269861      -0.00834138      -0.00808923
Sn       4.53203815       0.88720875       6.45728144      -0.00212367       0.00505954       0.00618041
8
Lattice="4.856238606634219 -0.00015137948285604352 0.0013243059039308865 0.0014318294748366105 5.189654299222212 -2.9953296778528293 -0.0020976769400947405 -0.0007786761549346206 5.993490597430715" Properties=species:S:1:pos:R:3:forces:R:3 structure_index=8 total_energy=-22.157562255859375 stress="-0.04141105338931084 -3.3572872780496255e-05 -0.0006136959418654442 -3.3544314646860585e-05 -0.033027831465005875 -7.721636393398512e-06 -0.0006135587464086711 -7.613457455590833e-06 -0.03278600797057152" pbc="T T T"
Li       2.20467483       1.40459677       4.19278194      -0.00013091       0.03755726      -0.00081193
Li       2.20618446       3.86357166      -0.38141861       0.00000463      -0.01760028      -0.03182328
Li       4.63325495       0.49589229       2.61550283      -0.00023628       0.01840795      -0.03213334
Li       2.20521366       3.86394512       2.77447068      -0.00028298      -0.01910440       0.03113572
Li       4.63331680       2.95489989       1.19615819       0.00035018      -0.03771020       0.00130589
Li       4.63411018       0.49645137      -0.22228406      -0.00010492       0.01772675       0.03126936
Sn       4.63272197       3.04369277       4.19412074       0.00019178       0.00077797      -0.00037454
Sn       2.20532527       1.31548594       1.19488849       0.00020851      -0.00005506       0.00143211
8
Lattice="5.907750871442348 0.0012120411831420827 -3.3964475501413487 -0.36319701111245545 4.679074312103575 -0.6303994780846138 -0.6052210845349408 0.7025437858910853 5.782992442329513" Properties=species:S:1:pos:R:3:forces:R:3 structure_index=9 total_energy=-24.27175521850586 stress="-0.0027893660590052605 -0.009352306835353374 -0.003634609514847398 -0.009352369233965874 -0.02477959729731083 -0.01803497038781643 -0.003634524066001177 -0.018035057932138443 -0.009050430729985237" pbc="T T T"
Li      -0.01514381       0.69494251       2.08249075      -0.00041958      -0.00000579      -0.00002438
Li       2.63620547       1.04549252       3.27678868      -0.00029033       0.00014712      -0.00086256
Li       0.88360538       3.38459453       3.86227361      -0.01042905       0.00006025       0.00619885
Li       4.02387577       3.38500751       2.05701163       0.01049387       0.00038903      -0.00575073
Li       2.93838421       0.69570913       0.38459051       0.00001556      -0.00018116      -0.00039889
Sn       1.34916733       3.04352259       1.03834790      -0.02055010       0.01381407      -0.03532569
Sn      -0.31813977       1.04487144       4.97395291       0.00034695       0.00022086       0.00000301
Sn       4.16342469       3.02637688      -0.90223604       0.02083268      -0.01444439       0.03616040
3
Lattice="3.328551798909461 -0.002035074622667584 1.20556728992604 -0.4318798208046119 3.3022401663035716 1.2059640221282055 0.022794332426782884 0.026627069454884387 5.136865923349398" Properties=species:S:1:pos:R:3:forces:R:3 structure_index=10 total_energy=-8.816834449768066 stress="-0.012207131832838058 0.0253286212682724 -0.04009167477488518 0.025328626856207848 -0.0084203677251935 -0.04850102588534355 -0.04009155556559563 -0.04850113019347191 0.08727271109819412" pbc="T T T"
Li       1.63119530       0.03484519       4.87102413       0.01243117       0.01453072      -0.02912638
Li       2.60347986       1.14294551       2.19385675      -0.01140087      -0.01361631       0.03166644
Sn       0.23817848       2.24199589       3.53461260      -0.00103031      -0.00091441      -0.00254004
4
Lattice="3.296686379107606 0.005725855254955598 -0.9146443843481031 -0.6724451728808368 5.057965700275411 -2.395388665588079 -0.056243575763808056 -0.20993572883528983 6.199675936897053" Properties=species:S:1:pos:R:3:forces:R:3 structure_index=11 total_energy=-14.371967315673828 stress="0.0381421335041523 -0.011891546659171581 -0.01921895705163479 -0.011891542933881283 0.04407106712460518 -0.04516882821917534 -0.019218992441892624 -0.04516880214214325 -0.024943873286247253" pbc="T T T"
Li       0.50867987       3.53737373       0.40100127      -0.00202148       0.02739082      -0.00730789
Sn      -0.42229869       3.82249484       3.45381156       0.00034007      -0.00774155      -0.00404499
Sn       1.60877758       1.37680428       4.34892737       0.00092885      -0.00529763       0.00979382
Sn       2.50299561       0.95615725       1.17863216       0.00075256      -0.01435166       0.00155905
20
Lattice="7.558451341927296 -0.10098095537785376 -2.329149544495115 -3.4558262150701324 6.438579264166863 -3.5315887732121007 -0.11270305695373592 0.10948947687784953 8.11462787096378" Properties=species:S:1:pos:R:3:forces:R:3 structure_index=12 total_energy=-59.4766845703125 stress="0.006764842197299004 -0.0005126865580677986 0.000517989625222981 -0.0005126183968968689 0.006878746673464775 -0.0005963216535747051 0.00051786849508062 -0.0005962853319942951 0.007774854078888893" pbc="T T T"
Li       0.07166372       1.48100373       5.01714874      -0.01276996      -0.02019895       0.01863910
Li      -2.36568556       5.02264591       2.16645001       0.00482993      -0.02256816      -0.00898438
Li       4.19305831       2.66005503      -1.83074333       0.03382465       0.00109141       0.03054031
Li       1.97582285       3.32368301       3.86513092      -0.02814976      -0.02704432       0.01782204
Li       0.27326067       4.10820215       1.41932427      -0.00819247      -0.00585972       0.00042113
Li      -0.79260704       4.37996007       4.48685726       0.00034971       0.03384730      -0.00576964
Li       3.96020600       0.20508425       1.50251918       0.00727546       0.02280042      -0.02493145
Li       4.90861870       2.36425615       3.14517525       0.01862103      -0.01705983      -0.01174603
Li      -0.60644559       1.80241652      -0.08498556      -0.01663513       0.01209739       0.01537252
Li       3.20102765       3.05534556       0.82256482       0.03676538      -0.02843141       0.00118085
Li       1.43917133       6.37273078      -4.88913890       0.01306722       0.02511025       0.03766454
Li       3.15721756       5.67828736      -2.56331668      -0.00239329       0.02487823       0.00979081
Li       1.04289685       1.02422099       2.13959082       0.01394485      -0.00260087      -0.03181118
Sn      -1.64034485       4.60829984      -0.79121770      -0.03291050       0.00144489      -0.02655629
Sn       3.95887299       5.21240916       2.71150931      -0.01805070      -0.00457550      -0.00483871
Sn       2.89760962       0.58549362       4.40669036      -0.00893395       0.00030576      -0.00659135
Sn       2.12367352       0.79171005      -0.76098949      -0.01948977       0.01820516      -0.04180394
Sn       1.26789735       3.67652784      -1.46642794      -0.00861183       0.00226959      -0.00667146
Sn       6.07297489       2.12524575       0.40682663       0.02946574       0.00238718       0.01797360
Sn       2.28305918       5.96832301       0.33012899      -0.00200658      -0.01609877       0.02029957
8
Lattice="4.8593732761382835 -0.00042062449791643234 0.001712844061921776 0.0006166568185059887 5.189060407308997 -2.994470525023951 -0.0015886913798742585 -0.0009042672998723447 5.99290415535321" Properties=species:S:1:pos:R:3:forces:R:3 structure_index=13 total_energy=-22.156307220458984 stress="-0.012285345233976841 -0.00010965880937874317 -0.00019636514480225742 -0.00010948068666039035 -0.014003889635205269 -7.275587995536625e-05 -0.000196416542166844 -7.271193317137659e-05 -0.013547390699386597" pbc="T T T"
Li       4.01041899       5.15029230       0.18305327       0.00012542       0.04997039      -0.00090488
Li       4.01124139       2.42812828      -1.39298638      -0.00002992      -0.02421853      -0.04112162
Li       1.58102189       4.24480963       1.75615140      -0.00023985       0.02350954       0.03997172
Li       4.01132061       2.42860302       1.75394533      -0.00055766      -0.02529754       0.04217025
Li       1.58190203       1.52169507       0.17926975      -0.00048323      -0.04871272       0.00148437
Li       1.58063992       4.24401119      -1.39177924       0.00075580       0.02523201      -0.04114559
Sn       4.01153046       5.06647576      -2.81395109       0.00017224       0.00003863       0.00028579
Sn       1.58046270       1.60627541       3.17668846       0.00025721      -0.00052179      -0.00074003
14
Lattice="5.643031056020219 -0.01792233480221217 0.03995218835283819 -2.7847642296537187 7.3391109150190195 -0.30640434911552733 -0.018120867500087016 -0.040144336187413934 8.376315198275378" Properties=species:S:1:pos:R:3:forces:R:3 structure_index=14 total_energy=-49.60016632080078 stress="-0.003949365112930536 -0.00328929559327662 -0.002595556201413274 -0.0032892683520913124 -0.0008226668578572571 0.003994193393737078 -0.0025955424644052982 0.003994216211140156 -0.007998840883374214" pbc="T T T"
Li      -1.14417100       6.27205283       6.36248967       0.00757828       0.00664121      -0.01398485
Li       2.72072410       2.05586866       7.22906624       0.00441464      -0.00358297      -0.00230516
Li       2.67500805       6.32466976       2.39184439      -0.00032779       0.00642192       0.01101734
Li       1.60862692       5.24459075       7.68087079       0.00438208      -0.00673260       0.00734293
Sn       1.63188985       1.04808395       4.36125497      -0.00815148       0.00798108      -0.00017871
Sn       4.52541774       2.03918467       3.02079450       0.00361547      -0.02321955      -0.00066098
Sn      -1.26534284       4.39070737       0.43411574       0.01690768      -0.02511852       0.00126974
Sn      -0.08267035       0.93229995       0.03113384      -0.02033232       0.01560585      -0.00091935
Sn      -0.08593674       7.31188395       0.91994720      -0.02547014       0.00434595       0.00142192
Sn      -0.14602314       3.17989938       6.15167223      -0.00527438       0.00862760      -0.01385702
Sn      -0.18260553       5.30771976       3.46544729      -0.00499313       0.00361572      -0.00109427
Sn       1.65235809       3.27025225       1.66816153       0.02485617       0.01010707       0.02464120
Sn       2.67249301       4.20462051       4.84725245       0.00129429      -0.00621013      -0.01001159
Sn       1.67622620       7.23833990       5.31502599       0.00150064       0.00151739      -0.00268123
5
Lattice="4.20179401024011 -0.0011336754045833388 2.0357896255208634 1.6088071221536868 3.882694551434002 2.034216924086124 -0.030955345609787785 -0.020955791598506402 5.411396017482165" Properties=species:S:1:pos:R:3:forces:R:3 structure_index=15 total_energy=-13.386528015136719 stress="-0.04318288713693619 0.018540799617767334 -0.05911803990602493 0.018540868535637856 -0.05708637088537216 -0.043397169560194016 -0.05911729857325554 -0.043397240340709686 0.04570678249001503" pbc="T T T"
Li       2.20937190       1.94123156       1.93698216      -0.00373623      -0.00239366       0.01253075
Li       4.58998817       3.53207750       7.73122583       0.00592869       0.00319608      -0.01067694
Li       1.11485116       1.21111720       4.20291564      -0.00315328      -0.00393517      -0.00154566
Li       4.07785661       0.38031904       3.43159912       0.00454403       0.00484719       0.00418374
Sn       3.40159036       2.73745469       4.83609379      -0.00358319      -0.00171444      -0.00449192
4
Lattice="4.562636830086181 -0.00027377203244195974 2.6347720995332264 1.5187065215577003 4.302405487387466 2.6341623165290167 0.00019746382755719748 -3.429160677212231e-05 5.269235693438887" Properties=species:S:1:pos:R:3:forces:R:3 structure_index=16 total_energy=-14.158897399902344 stress="-0.009550689719617367 0.005572075955569744 -0.0018130469834432006 0.005572028923779726 -0.01394147053360939 0.0012423581210896373 -0.0018130696844309568 0.0012424313463270664 -0.021768655627965927" pbc="T T T"
Li       1.11698426       1.10984667       4.17757736       0.00032360      -0.00019722       0.00036000
Sn       4.15721387       3.26100988       4.17637798       0.00026637      -0.00029511      -0.00040198
Sn       2.63911019       2.18560930       6.81293103       0.00031615       0.00040145       0.00062137
Sn       4.15769556       0.03336523       4.17555757      -0.00090613       0.00009087      -0.00057941
16
Lattice="4.987676861723216 0.004117738676650013 -0.018755488975160512 -0.007935149050618465 6.484820483987086 0.00017705279529419478 0.035762437464038135 -0.0007077425392742685 9.728842177751767" Properties=species:S:1:pos:R:3:forces:R:3 structure_index=17 total_energy=-48.44329833984375 stress="0.0047324830666184425 -0.00026314446586184204 -0.0005068834288977087 -0.00026323931524530053 0.00804439652711153 -5.818424324388616e-05 -0.0005068071186542511 -5.819882426294498e-05 -0.021545257419347763" pbc="T T T"
Li       4.94522904       5.95406255       2.07894016       0.00051250       0.00726145       0.00126389
Li       4.96422136       5.66532917       6.94597631      -0.00056736      -0.01002301      -0.00053465
Li       1.79264342       2.55509514       9.39107752       0.01960288       0.00357997      -0.00050152
Li       2.47972894       0.94634551       6.95218190      -0.00188471      -0.00219683       0.00112624
Li       3.14777401       2.57070063       4.51791236      -0.01993746      -0.00211750       0.00267942
Li       2.46099073       4.18507588       2.09578261      -0.00255402       0.00014871      -0.00245143
Li       1.79006307       5.79773524       9.38941480       0.01839127       0.00302513       0.00009675
Li       3.14147303       5.81464264       4.52180337      -0.01776317      -0.00326067      -0.00109446
Li       4.96498320       2.71088325       6.94633772       0.00127479       0.00924685      -0.00029388
Li       4.95113418       2.41932334       2.08119287      -0.00019281      -0.00699391      -0.00062949
Sn       2.45754574       0.94195314       2.09113728       0.00085565       0.00025857       0.00051774
Sn       4.33823729       0.93847868       9.27444075       0.01508228       0.00294954      -0.01022577
Sn       0.60321379       0.94673957       4.63870181      -0.01311934      -0.00250445       0.00879714
Sn       0.59641804       4.18887536       4.41879781      -0.01184087      -0.00247029      -0.00671265
Sn       2.47032505       4.18499886       6.95450376       0.00026297       0.00049116      -0.00013977
Sn       4.33757027       4.18022519       9.48670095       0.01187738       0.00260529       0.00810241
15
Lattice="5.30862489203361 0.030064399375554815 0.7965275401917644 0.46108634742199045 5.513375853723755 0.21497259856152892 -0.06631582034662889 -0.015428157470219046 9.754860126999482" Properties=species:S:1:pos:R:3:forces:R:3 structure_index=18 total_energy=-35.788394927978516 stress="0.008585379458963871 -0.008361347019672394 -0.008459514006972313 -0.008361066691577435 -0.0020601311698555946 0.006142744794487953 -0.008459415286779404 0.006142657250165939 -0.00858771987259388" pbc="T T T"
Li       4.16300077       1.46639041       4.82135350       0.01336144       0.02737537      -0.01277546
Li       0.08837594       1.16940904       8.78099416      -0.00454726       0.00481537      -0.00176830
Li       4.35889539       4.46503521       9.65313298       0.00700346       0.00608999      -0.00281318
Li       1.63480582       3.64409123       8.15217549      -0.01200379       0.02041122      -0.01483306
Li       4.29784597       2.98382258       2.38637592       0.03243033       0.00060404      -0.02051803
Li       1.83624338       4.60587975       1.22713448       0.00946735       0.01501341      -0.00346053
Li       2.64030809       1.73945937      10.05627166      -0.00791986      -0.02370562       0.01102069
Li       0.52669791       4.27936203       3.73202635      -0.02111675      -0.00333520       0.00029242
Li       2.60215334       0.49508664       7.36593191      -0.01354816      -0.02488111       0.00046966
Li       1.41875618       1.31947640       2.83518973       0.01238536      -0.00922416      -0.00191245
Li       3.09558875       4.68163960       5.01880535      -0.00193585       0.01330593       0.00706653
Li       4.28377382       2.88509374       7.30273620       0.00318003      -0.02789749       0.00982992
Li       1.42180752       2.35596461       5.61916082       0.00350403       0.00320650       0.04356444
Sn       0.48091892       5.37904636       6.30760372      -0.03116637      -0.00185547      -0.01448052
Sn       4.03693057       0.22332654       2.27243270       0.01090605       0.00007721       0.00031787
20
Lattice="7.144375745895887 0.019228518081483247 -2.51669242307557 -1.336310828966583 7.617277494005994 -2.7849622811190606 -0.08285384085150084 -0.015492482486179465 7.561055642811965" Properties=species:S:1:pos:R:3:forces:R:3 structure_index=19 total_energy=-60.9819450378418 stress="0.00972750224173069 -0.007661083247512579 -0.006262326613068581 -0.0076610250398516655 0.0015265803085640073 -0.011362030170857906 -0.00626230938360095 -0.011362002231180668 0.001257376978173852" pbc="T T T"
Li       4.54711590       0.12247792      -1.02876080      -0.04520029      -0.00251907       0.00547395
Li       5.99575138       3.00343810       3.85485576      -0.00766452      -0.00391919      -0.02856920
Li       5.09027113       4.80819415       1.19918421      -0.01088298       0.00231002      -0.01637221
Li       0.70014021       3.23406167       3.81410018      -0.01115053       0.00904936      -0.00321683
Li       3.24326020       4.60787546       3.77710113      -0.00291136       0.01551078      -0.00088398
Li       4.25185879       3.20029150      -1.17445443      -0.00033042       0.00657773      -0.01360554
Li       0.96360936       0.06347755       4.12183589       0.02366954      -0.00382181       0.01359032
Li       1.74643812       1.62360640      -1.05192788      -0.00439915       0.00004311       0.00878480
Li       0.03516959       1.72052865       1.42453087       0.01641073       0.00993396       0.00745626
Li      -1.08162092       6.14036327      -1.23336330      -0.02451203       0.01127093       0.00924568
Li       2.87369130       0.10523140       1.50987578       0.00475868      -0.01531724       0.00861214