phonopy:
  version: "2.37.1"
  frequency_unit_conversion_factor: 15.633302
  symmetry_tolerance: 1.00000e-05

space_group:
  type: "P1"
  number: 1
  Hall_symbol: "P 1"

primitive_matrix:
- [  1.000000000000000, -0.000000000000000,  0.000000000000000 ]
- [  0.000000000000000,  1.000000000000000,  0.000000000000000 ]
- [  0.000000000000000,  0.000000000000000,  1.000000000000000 ]

supercell_matrix:
- [   3,   0,   0 ]
- [   0,   3,   0 ]
- [   0,   0,   1 ]

primitive_cell:
  lattice:
  - [     4.436502117006341,     0.000000000000000,     0.000000000000000 ] # a
  - [     0.000518316733944,     4.601079691546610,     0.000000000000000 ] # b
  - [     2.215667151941550,     0.004527067835829,    11.956581522948410 ] # c
  points:
  - symbol: Li # 1
    coordinates: [  0.546579975556992,  0.397791355990016,  0.511365652793809 ]
    mass: 6.940000
  - symbol: Li # 2
    coordinates: [  0.454088665849838,  0.897309894217265,  0.697061484870211 ]
    mass: 6.940000
  - symbol: Li # 3
    coordinates: [  0.361791387155022,  0.396672130220039,  0.882791797903891 ]
    mass: 6.940000
  - symbol: Sn # 4
    coordinates: [  0.863566554036918,  0.896966224009625,  0.878289256967422 ]
    mass: 118.710000
  - symbol: Sn # 5
    coordinates: [  0.044531391528072,  0.897685686140867,  0.515729544273244 ]
    mass: 118.710000
  - symbol: Sn # 6
    coordinates: [  0.762898140345631,  0.396724037468572,  0.079524869777848 ]
    mass: 118.710000
  - symbol: Sn # 7
    coordinates: [  0.145507023771320,  0.397268688342020,  0.314403929755194 ]
    mass: 118.710000
  - symbol: Sn # 8
    coordinates: [  0.954235140672296,  0.397258816676014,  0.697014464557603 ]
    mass: 118.710000
  - symbol: Sn # 9
    coordinates: [  0.261790713094001,  0.896921457391688,  0.082753266551184 ]
    mass: 118.710000
  - symbol: Sn # 10
    coordinates: [  0.646505969979937,  0.896920106753673,  0.311613311709359 ]
    mass: 118.710000
  reciprocal_lattice: # without 2pi
  - [     0.225402800139940,    -0.000025391875608,    -0.041769251881604 ] # a*
  - [     0.000000000000000,     0.217340291201055,    -0.000082290597847 ] # b*
  - [     0.000000000000000,     0.000000000000000,     0.083635945448177 ] # c*

unit_cell:
  lattice:
  - [     4.436502117006341,     0.000000000000000,     0.000000000000000 ] # a
  - [     0.000518316733944,     4.601079691546610,     0.000000000000000 ] # b
  - [     2.215667151941550,     0.004527067835829,    11.956581522948410 ] # c
  points:
  - symbol: Li # 1
    coordinates: [  0.546579975556992,  0.397791355990016,  0.511365652793809 ]
    mass: 6.940000
    reduced_to: 1
  - symbol: Li # 2
    coordinates: [  0.454088665849838,  0.897309894217265,  0.697061484870211 ]
    mass: 6.940000
    reduced_to: 2
  - symbol: Li # 3
    coordinates: [  0.361791387155022,  0.396672130220039,  0.882791797903891 ]
    mass: 6.940000
    reduced_to: 3
  - symbol: Sn # 4
    coordinates: [  0.863566554036918,  0.896966224009625,  0.878289256967422 ]
    mass: 118.710000
    reduced_to: 4
  - symbol: Sn # 5
    coordinates: [  0.044531391528072,  0.897685686140867,  0.515729544273244 ]
    mass: 118.710000
    reduced_to: 5
  - symbol: Sn # 6
    coordinates: [  0.762898140345631,  0.396724037468572,  0.079524869777848 ]
    mass: 118.710000
    reduced_to: 6
  - symbol: Sn # 7
    coordinates: [  0.145507023771320,  0.397268688342020,  0.314403929755194 ]
    mass: 118.710000
    reduced_to: 7
  - symbol: Sn # 8
    coordinates: [  0.954235140672296,  0.397258816676014,  0.697014464557603 ]
    mass: 118.710000
    reduced_to: 8
  - symbol: Sn # 9
    coordinates: [  0.261790713094000,  0.896921457391688,  0.082753266551184 ]
    mass: 118.710000
    reduced_to: 9
  - symbol: Sn # 10
    coordinates: [  0.646505969979937,  0.896920106753673,  0.311613311709359 ]
    mass: 118.710000
    reduced_to: 10

supercell:
  lattice:
  - [    13.309506351019024,     0.000000000000000,     0.000000000000000 ] # a
  - [     0.001554950201832,    13.803239074639830,     0.000000000000000 ] # b
  - [     2.215667151941550,     0.004527067835829,    11.956581522948410 ] # c
  points:
  - symbol: Li # 1
    coordinates: [  0.182193325185664,  0.132597118663339,  0.511365652793809 ]
    mass: 6.940000
    reduced_to: 1
  - symbol: Li # 2
    coordinates: [  0.515526658518997,  0.132597118663339,  0.511365652793809 ]
    mass: 6.940000
    reduced_to: 1
  - symbol: Li # 3
    coordinates: [  0.848859991852331,  0.132597118663339,  0.511365652793809 ]
    mass: 6.940000
    reduced_to: 1
  - symbol: Li # 4
    coordinates: [  0.182193325185664,  0.465930451996672,  0.511365652793809 ]
    mass: 6.940000
    reduced_to: 1
  - symbol: Li # 5
    coordinates: [  0.515526658518997,  0.465930451996672,  0.511365652793809 ]
    mass: 6.940000
    reduced_to: 1
  - symbol: Li # 6
    coordinates: [  0.848859991852331,  0.465930451996672,  0.511365652793809 ]
    mass: 6.940000
    reduced_to: 1
  - symbol: Li # 7
    coordinates: [  0.182193325185664,  0.799263785330005,  0.511365652793809 ]
    mass: 6.940000
    reduced_to: 1
  - symbol: Li # 8
    coordinates: [  0.515526658518997,  0.799263785330005,  0.511365652793809 ]
    mass: 6.940000
    reduced_to: 1
  - symbol: Li # 9
    coordinates: [  0.848859991852331,  0.799263785330005,  0.511365652793809 ]
    mass: 6.940000
    reduced_to: 1
  - symbol: Li # 10
    coordinates: [  0.151362888616613,  0.299103298072422,  0.697061484870211 ]
    mass: 6.940000
    reduced_to: 10
  - symbol: Li # 11
    coordinates: [  0.484696221949946,  0.299103298072422,  0.697061484870211 ]
    mass: 6.940000
    reduced_to: 10
  - symbol: Li # 12
    coordinates: [  0.818029555283279,  0.299103298072422,  0.697061484870211 ]
    mass: 6.940000
    reduced_to: 10
  - symbol: Li # 13
    coordinates: [  0.151362888616613,  0.632436631405755,  0.697061484870211 ]
    mass: 6.940000
    reduced_to: 10
  - symbol: Li # 14
    coordinates: [  0.484696221949946,  0.632436631405755,  0.697061484870211 ]
    mass: 6.940000
    reduced_to: 10
  - symbol: Li # 15
    coordinates: [  0.818029555283279,  0.632436631405755,  0.697061484870211 ]
    mass: 6.940000
    reduced_to: 10
  - symbol: Li # 16
    coordinates: [  0.151362888616613,  0.965769964739088,  0.697061484870211 ]
    mass: 6.940000
    reduced_to: 10
  - symbol: Li # 17
    coordinates: [  0.484696221949946,  0.965769964739088,  0.697061484870211 ]
    mass: 6.940000
    reduced_to: 10
  - symbol: Li # 18
    coordinates: [  0.818029555283279,  0.965769964739088,  0.697061484870211 ]
    mass: 6.940000
    reduced_to: 10
  - symbol: Li # 19
    coordinates: [  0.120597129051674,  0.132224043406680,  0.882791797903891 ]
    mass: 6.940000
    reduced_to: 19
  - symbol: Li # 20
    coordinates: [  0.453930462385007,  0.132224043406680,  0.882791797903891 ]
    mass: 6.940000
    reduced_to: 19
  - symbol: Li # 21
    coordinates: [  0.787263795718341,  0.132224043406680,  0.882791797903891 ]
    mass: 6.940000
    reduced_to: 19
  - symbol: Li # 22
    coordinates: [  0.120597129051674,  0.465557376740013,  0.882791797903891 ]
    mass: 6.940000
    reduced_to: 19
  - symbol: Li # 23
    coordinates: [  0.453930462385007,  0.465557376740013,  0.882791797903891 ]
    mass: 6.940000
    reduced_to: 19
  - symbol: Li # 24
    coordinates: [  0.787263795718341,  0.465557376740013,  0.882791797903891 ]
    mass: 6.940000
    reduced_to: 19
  - symbol: Li # 25
    coordinates: [  0.120597129051674,  0.798890710073346,  0.882791797903891 ]
    mass: 6.940000
    reduced_to: 19
  - symbol: Li # 26
    coordinates: [  0.453930462385007,  0.798890710073346,  0.882791797903891 ]
    mass: 6.940000
    reduced_to: 19
  - symbol: Li # 27
    coordinates: [  0.787263795718341,  0.798890710073346,  0.882791797903891 ]
    mass: 6.940000
    reduced_to: 19
  - symbol: Sn # 28
    coordinates: [  0.287855518012306,  0.298988741336542,  0.878289256967422 ]
    mass: 118.710000
    reduced_to: 28
  - symbol: Sn # 29
    coordinates: [  0.621188851345639,  0.298988741336542,  0.878289256967422 ]
    mass: 118.710000
    reduced_to: 28
  - symbol: Sn # 30
    coordinates: [  0.954522184678973,  0.298988741336542,  0.878289256967422 ]
    mass: 118.710000
    reduced_to: 28
  - symbol: Sn # 31
    coordinates: [  0.287855518012306,  0.632322074669875,  0.878289256967422 ]
    mass: 118.710000
    reduced_to: 28
  - symbol: Sn # 32
    coordinates: [  0.621188851345639,  0.632322074669875,  0.878289256967422 ]
    mass: 118.710000
    reduced_to: 28
  - symbol: Sn # 33
    coordinates: [  0.954522184678973,  0.632322074669875,  0.878289256967422 ]
    mass: 118.710000
    reduced_to: 28
  - symbol: Sn # 34
    coordinates: [  0.287855518012306,  0.965655408003208,  0.878289256967422 ]
    mass: 118.710000
    reduced_to: 28
  - symbol: Sn # 35
    coordinates: [  0.621188851345639,  0.965655408003208,  0.878289256967422 ]
    mass: 118.710000
    reduced_to: 28
  - symbol: Sn # 36
    coordinates: [  0.954522184678973,  0.965655408003208,  0.878289256967422 ]
    mass: 118.710000
    reduced_to: 28
  - symbol: Sn # 37
    coordinates: [  0.014843797176024,  0.299228562046956,  0.515729544273244 ]
    mass: 118.710000
    reduced_to: 37
  - symbol: Sn # 38
    coordinates: [  0.348177130509357,  0.299228562046956,  0.515729544273244 ]
    mass: 118.710000
    reduced_to: 37
  - symbol: Sn # 39
    coordinates: [  0.681510463842691,  0.299228562046956,  0.515729544273244 ]
    mass: 118.710000
    reduced_to: 37
  - symbol: Sn # 40
    coordinates: [  0.014843797176024,  0.632561895380289,  0.515729544273244 ]
    mass: 118.710000
    reduced_to: 37
  - symbol: Sn # 41
    coordinates: [  0.348177130509357,  0.632561895380289,  0.515729544273244 ]
    mass: 118.710000
    reduced_to: 37
  - symbol: Sn # 42
    coordinates: [  0.681510463842691,  0.632561895380289,  0.515729544273244 ]
    mass: 118.710000
    reduced_to: 37
  - symbol: Sn # 43
    coordinates: [  0.014843797176024,  0.965895228713622,  0.515729544273244 ]
    mass: 118.710000
    reduced_to: 37
  - symbol: Sn # 44
    coordinates: [  0.348177130509357,  0.965895228713622,  0.515729544273244 ]
    mass: 118.710000
    reduced_to: 37
  - symbol: Sn # 45
    coordinates: [  0.681510463842691,  0.965895228713622,  0.515729544273244 ]
    mass: 118.710000
    reduced_to: 37
  - symbol: Sn # 46
    coordinates: [  0.254299380115210,  0.132241345822857,  0.079524869777848 ]
    mass: 118.710000
    reduced_to: 46
  - symbol: Sn # 47
    coordinates: [  0.587632713448544,  0.132241345822857,  0.079524869777848 ]
    mass: 118.710000
    reduced_to: 46
  - symbol: Sn # 48
    coordinates: [  0.920966046781877,  0.132241345822857,  0.079524869777848 ]
    mass: 118.710000
    reduced_to: 46
  - symbol: Sn # 49
    coordinates: [  0.254299380115210,  0.465574679156191,  0.079524869777848 ]
    mass: 118.710000
    reduced_to: 46
  - symbol: Sn # 50
    coordinates: [  0.587632713448544,  0.465574679156191,  0.079524869777848 ]
    mass: 118.710000
    reduced_to: 46
  - symbol: Sn # 51
    coordinates: [  0.920966046781877,  0.465574679156191,  0.079524869777848 ]
    mass: 118.710000
    reduced_to: 46
  - symbol: Sn # 52
    coordinates: [  0.254299380115210,  0.798908012489524,  0.079524869777848 ]
    mass: 118.710000
    reduced_to: 46
  - symbol: Sn # 53
    coordinates: [  0.587632713448544,  0.798908012489524,  0.079524869777848 ]
    mass: 118.710000
    reduced_to: 46
  - symbol: Sn # 54
    coordinates: [  0.920966046781877,  0.798908012489524,  0.079524869777848 ]
    mass: 118.710000
    reduced_to: 46
  - symbol: Sn # 55
    coordinates: [  0.048502341257107,  0.132422896114007,  0.314403929755194 ]
    mass: 118.710000
    reduced_to: 55
  - symbol: Sn # 56
    coordinates: [  0.381835674590440,  0.132422896114007,  0.314403929755194 ]
    mass: 118.710000
    reduced_to: 55
  - symbol: Sn # 57
    coordinates: [  0.715169007923773,  0.132422896114007,  0.314403929755194 ]
    mass: 118.710000
    reduced_to: 55
  - symbol: Sn # 58
    coordinates: [  0.048502341257107,  0.465756229447340,  0.314403929755194 ]
    mass: 118.710000
    reduced_to: 55
  - symbol: Sn # 59
    coordinates: [  0.381835674590440,  0.465756229447340,  0.314403929755194 ]
    mass: 118.710000
    reduced_to: 55
  - symbol: Sn # 60
    coordinates: [  0.715169007923773,  0.465756229447340,  0.314403929755194 ]
    mass: 118.710000
    reduced_to: 55
  - symbol: Sn # 61
    coordinates: [  0.048502341257107,  0.799089562780673,  0.314403929755194 ]
    mass: 118.710000
    reduced_to: 55
  - symbol: Sn # 62
    coordinates: [  0.381835674590440,  0.799089562780673,  0.314403929755194 ]
    mass: 118.710000
    reduced_to: 55
  - symbol: Sn # 63
    coordinates: [  0.715169007923773,  0.799089562780673,  0.314403929755194 ]
    mass: 118.710000
    reduced_to: 55
  - symbol: Sn # 64
    coordinates: [  0.318078380224099,  0.132419605558671,  0.697014464557603 ]
    mass: 118.710000
    reduced_to: 64
  - symbol: Sn # 65
    coordinates: [  0.651411713557432,  0.132419605558671,  0.697014464557603 ]
    mass: 118.710000
    reduced_to: 64
  - symbol: Sn # 66
    coordinates: [  0.984745046890765,  0.132419605558671,  0.697014464557603 ]
    mass: 118.710000
    reduced_to: 64
  - symbol: Sn # 67
    coordinates: [  0.318078380224099,  0.465752938892005,  0.697014464557603 ]
    mass: 118.710000
    reduced_to: 64
  - symbol: Sn # 68
    coordinates: [  0.651411713557432,  0.465752938892005,  0.697014464557603 ]
    mass: 118.710000
    reduced_to: 64
  - symbol: Sn # 69
    coordinates: [  0.984745046890765,  0.465752938892005,  0.697014464557603 ]
    mass: 118.710000
    reduced_to: 64
  - symbol: Sn # 70
    coordinates: [  0.318078380224099,  0.799086272225338,  0.697014464557603 ]
    mass: 118.710000
    reduced_to: 64
  - symbol: Sn # 71
    coordinates: [  0.651411713557432,  0.799086272225338,  0.697014464557603 ]
    mass: 118.710000
    reduced_to: 64
  - symbol: Sn # 72
    coordinates: [  0.984745046890765,  0.799086272225338,  0.697014464557603 ]
    mass: 118.710000
    reduced_to: 64
  - symbol: Sn # 73
    coordinates: [  0.087263571031333,  0.298973819130563,  0.082753266551184 ]
    mass: 118.710000
    reduced_to: 73
  - symbol: Sn # 74
    coordinates: [  0.420596904364667,  0.298973819130563,  0.082753266551184 ]
    mass: 118.710000
    reduced_to: 73
  - symbol: Sn # 75
    coordinates: [  0.753930237698000,  0.298973819130563,  0.082753266551184 ]
    mass: 118.710000
    reduced_to: 73
  - symbol: Sn # 76
    coordinates: [  0.087263571031333,  0.632307152463896,  0.082753266551184 ]
    mass: 118.710000
    reduced_to: 73
  - symbol: Sn # 77
    coordinates: [  0.420596904364667,  0.632307152463896,  0.082753266551184 ]
    mass: 118.710000
    reduced_to: 73
  - symbol: Sn # 78
    coordinates: [  0.753930237698000,  0.632307152463896,  0.082753266551184 ]
    mass: 118.710000
    reduced_to: 73
  - symbol: Sn # 79
    coordinates: [  0.087263571031333,  0.965640485797229,  0.082753266551184 ]
    mass: 118.710000
    reduced_to: 73
  - symbol: Sn # 80
    coordinates: [  0.420596904364667,  0.965640485797229,  0.082753266551184 ]
    mass: 118.710000
    reduced_to: 73
  - symbol: Sn # 81
    coordinates: [  0.753930237698000,  0.965640485797229,  0.082753266551184 ]
    mass: 118.710000
    reduced_to: 73
  - symbol: Sn # 82
    coordinates: [  0.215501989993312,  0.298973368917891,  0.311613311709359 ]
    mass: 118.710000
    reduced_to: 82
  - symbol: Sn # 83
    coordinates: [  0.548835323326646,  0.298973368917891,  0.311613311709359 ]
    mass: 118.710000
    reduced_to: 82
  - symbol: Sn # 84
    coordinates: [  0.882168656659979,  0.298973368917891,  0.311613311709359 ]
    mass: 118.710000
    reduced_to: 82
  - symbol: Sn # 85
    coordinates: [  0.215501989993312,  0.632306702251224,  0.311613311709359 ]
    mass: 118.710000
    reduced_to: 82
  - symbol: Sn # 86
    coordinates: [  0.548835323326646,  0.632306702251224,  0.311613311709359 ]
    mass: 118.710000
    reduced_to: 82
  - symbol: Sn # 87
    coordinates: [  0.882168656659979,  0.632306702251224,  0.311613311709359 ]
    mass: 118.710000
    reduced_to: 82
  - symbol: Sn # 88
    coordinates: [  0.215501989993312,  0.965640035584558,  0.311613311709359 ]
    mass: 118.710000
    reduced_to: 82
  - symbol: Sn # 89
    coordinates: [  0.548835323326646,  0.965640035584558,  0.311613311709359 ]
    mass: 118.710000
    reduced_to: 82
  - symbol: Sn # 90
    coordinates: [  0.882168656659979,  0.965640035584558,  0.311613311709359 ]
    mass: 118.710000
    reduced_to: 82

displacements:
- atom:    1
  displacement:
    [   0.0100000000000000,  0.0000000000000000,  0.0000000000000000 ]
  forces:
  - [  -0.0140334051102400, -0.0015572338597849,  0.0084429718554020 ]
  - [   0.0022047499660403, -0.0015589212998748,  0.0085509344935417 ]
  - [   0.0022063073702157, -0.0015657786279917,  0.0083980225026608 ]
  - [   0.0016769360518083, -0.0015633134171367,  0.0084740258753300 ]
  - [   0.0015054787509143, -0.0019390396773815,  0.0084647722542286 ]
  - [   0.0015117682050914, -0.0011941557750106,  0.0084842853248119 ]
  - [   0.0016767012421042, -0.0015626046806574,  0.0084742531180382 ]
  - [   0.0015044948086143, -0.0011845342814922,  0.0084650181233883 ]
  - [   0.0015131250256673, -0.0019314915407449,  0.0084843486547470 ]
  - [  -0.0001367249933537, -0.0001986166316783, -0.0006699964869767 ]
  - [  -0.0000407506668125, -0.0002036796213361, -0.0006870392244309 ]
  - [  -0.0000447392703791, -0.0001873957080534, -0.0006541607435793 ]
  - [   0.0000260775559582, -0.0001953939790837, -0.0006712335161865 ]
  - [   0.0000732889457140, -0.0001955787884071, -0.0006804543081671 ]
  - [   0.0000758449459681, -0.0001951383310370, -0.0006616702303290 ]
  - [  -0.0001377904263791, -0.0001921386137838, -0.0006712626200169 ]
  - [  -0.0000422752382292, -0.0001869169936981, -0.0006875814870000 ]
  - [  -0.0000465625271318, -0.0002043199347099, -0.0006537861190736 ]
  - [  -0.0036526592448354,  0.0018533255206421, -0.0096246600151062 ]
  - [  -0.0039695752784610,  0.0018534744158387, -0.0101906508207321 ]
  - [  -0.0039735822938383,  0.0018527648644522, -0.0090353060513735 ]
  - [  -0.0034427100326866,  0.0018560150638223, -0.0096183978021145 ]
  - [  -0.0033634011633694,  0.0018562506884336, -0.0096016861498356 ]
  - [  -0.0033678463660181,  0.0018478203564882, -0.0096282102167606 ]
  - [  -0.0034423633478582,  0.0018505388870835, -0.0096164662390947 ]
  - [  -0.0033644230570644,  0.0018496867269278, -0.0096018705517054 ]
  - [  -0.0033666514791548,  0.0018587429076433, -0.0096300318837166 ]
  - [   0.0029722331091762, -0.0005580562865362, -0.0186454728245735 ]
  - [   0.0030012894421816, -0.0005650889943354, -0.0186415687203407 ]
  - [   0.0029672095552087, -0.0005526248714887, -0.0186762325465679 ]
  - [   0.0029947031289339, -0.0005579224671237, -0.0185546129941940 ]
  - [   0.0029820520430803, -0.0005578800337389, -0.0186490267515182 ]
  - [   0.0029903128743172, -0.0005587089108303, -0.0187557935714722 ]
  - [   0.0029614185914397, -0.0005582960438915, -0.0186441279947758 ]
  - [   0.0029895501211286, -0.0005498819518834, -0.0186402797698975 ]
  - [   0.0029545379802585, -0.0005618522409350, -0.0186736416071653 ]
  - [   0.0023192269727588, -0.0040010218508542,  0.0212662573903799 ]
  - [   0.0023677824065089,  0.0008941473788582,  0.0214974619448185 ]
  - [  -0.0001187385059893, -0.0015848246403039,  0.0213820524513721 ]
  - [  -0.0002067019959213, -0.0015867296606302,  0.0214121602475643 ]
  - [  -0.0002063401043415, -0.0015861135907471,  0.0213512703776360 ]
  - [  -0.0001991344615817, -0.0015871316427365,  0.0213823895901442 ]
  - [   0.0023198213893920,  0.0008164228638634,  0.0212634988129139 ]
  - [   0.0023743007332087, -0.0040611890144646,  0.0214971713721752 ]
  - [  -0.0001071449369192, -0.0015873187221587,  0.0213809236884117 ]
  - [   0.0041779186576605,  0.0015007602050900,  0.0337627008557320 ]
  - [   0.0043029785156250,  0.0015002968721092,  0.0337081849575043 ]
  - [   0.0042969165369868,  0.0015002349391580,  0.0338227525353432 ]
  - [   0.0042862179689109,  0.0015429053455591,  0.0337894111871719 ]
  - [   0.0042716939933598,  0.0015001082792878,  0.0337478891015053 ]
  - [   0.0042743040248752,  0.0014560264535248,  0.0337570458650589 ]
  - [   0.0042863553389907,  0.0014563086442649,  0.0337902791798115 ]
  - [   0.0042718094773591,  0.0014985352754593,  0.0337479598820210 ]
  - [   0.0042751803994179,  0.0015428850892931,  0.0337565168738365 ]
  - [  -0.0015670346328989, -0.0014667994109914, -0.0314286984503269 ]
  - [  -0.0015572872944176, -0.0014761681668460, -0.0357133336365223 ]
  - [  -0.0033911408390850, -0.0014706808142364, -0.0335475578904152 ]
  - [  -0.0034116110764444, -0.0013556270860136, -0.0335423722863197 ]
  - [  -0.0034124553203583, -0.0015897490084171, -0.0335624665021896 ]
  - [  -0.0033649131655693, -0.0014698952436447, -0.0335503332316875 ]
  - [  -0.0034110161941499, -0.0015841918066144, -0.0335421487689018 ]
  - [  -0.0034118592739105, -0.0013548396527767, -0.0335633382201195 ]
  - [  -0.0033636242151260, -0.0014718174934387, -0.0335499271750450 ]
  - [   0.0025822315365076,  0.0004218958492856,  0.0034413626417518 ]
  - [  -0.0004650240880437,  0.0004268038901500,  0.0006666304543614 ]
  - [   0.0025326991453767,  0.0004313313402236, -0.0020571583881974 ]
  - [  -0.0006964707281440,  0.0003352519124746,  0.0005834238254465 ]
  - [  -0.0006425022147596,  0.0004285308532417,  0.0006638640188612 ]
  - [  -0.0006949478411116,  0.0005210535600781,  0.0007438409375027 ]
  - [  -0.0006962791085243,  0.0005231995601207,  0.0005839721998200 ]
  - [  -0.0006408896297216,  0.0004306237678975,  0.0006654880126007 ]
  - [  -0.0006957789883018,  0.0003398512490094,  0.0007418503519148 ]
  - [  -0.0041637402027845, -0.0019631376489997, -0.0394570156931877 ]
  - [  -0.0041412897408009, -0.0018663138616830, -0.0394855886697769 ]
  - [  -0.0041463309898973, -0.0019165168050677, -0.0395130775868893 ]
  - [  -0.0041217491962016, -0.0019144604448229, -0.0394669361412525 ]
  - [  -0.0041558868251741, -0.0019125824328512, -0.0395137816667557 ]
  - [  -0.0041715241968632, -0.0019147582352161, -0.0394773967564106 ]
  - [  -0.0041639879345894, -0.0018667298136279, -0.0394573584198952 ]
  - [  -0.0041403765790164, -0.0019611662719399, -0.0394848883152008 ]
  - [  -0.0041460236534476, -0.0019150278531015, -0.0395142920315266 ]
  - [   0.0023174122907221,  0.0035017086192966,  0.0376900024712086 ]
  - [   0.0024945344775915,  0.0035659647546709,  0.0377925932407379 ]
  - [   0.0024952592793852,  0.0034475415013731,  0.0376003421843052 ]
  - [   0.0025494876317680,  0.0035068639554083,  0.0376920998096466 ]
  - [   0.0025692584458739,  0.0035056713968515,  0.0377038642764091 ]
  - [   0.0025678523816168,  0.0035072672180831,  0.0376846268773079 ]
  - [   0.0023245904594660,  0.0035100593231618,  0.0376906283199787 ]
  - [   0.0024945037439466,  0.0034437631256878,  0.0377929657697678 ]
  - [   0.0024968476500362,  0.0035667228512466,  0.0376008041203022 ]
- atom:    1
  displacement:
    [  -0.0100000000000000,  0.0000000000000000,  0.0000000000000000 ]
  forces:
  - [   0.0177355408668518, -0.0015666846884415,  0.0084480419754982 ]
  - [   0.0014973597135395, -0.0015649106353521,  0.0083984024822712 ]
  - [   0.0014990606578067, -0.0015592351555824,  0.0085518173873425 ]
  - [   0.0020268168300390, -0.0015657367184758,  0.0084724351763725 ]
  - [   0.0021905733738095, -0.0011942535638809,  0.0084847435355186 ]
  - [   0.0021983971819282, -0.0019396068528295,  0.0084655135869980 ]
  - [   0.0020265176426619, -0.0015605760272592,  0.0084728188812733 ]
  - [   0.0021912618540227, -0.0019321450963616,  0.0084844827651978 ]
  - [   0.0021984053310007, -0.0011870525777340,  0.0084659568965435 ]
  - [   0.0002534298982937, -0.0001987758150790, -0.0006727022118866 ]
  - [   0.0001591022883076, -0.0001866338861873, -0.0006534385029227 ]
  - [   0.0001591979525983, -0.0002026756701525, -0.0006861502770334 ]
  - [   0.0000906962741283, -0.0001953334140126, -0.0006714265327901 ]
  - [   0.0000414249298046, -0.0001953013415914, -0.0006626858375967 ]
  - [   0.0000430343716289, -0.0001951894664671, -0.0006789939943701 ]
  - [   0.0002565833565313, -0.0001929376303451, -0.0006745986174792 ]
  - [   0.0001593099732418, -0.0002052298514172, -0.0006534303538501 ]
  - [   0.0001596582878847, -0.0001877151371446, -0.0006866918411106 ]
  - [  -0.0031235553324223,  0.0018534852424636, -0.0096052289009094 ]
  - [  -0.0028185013215989,  0.0018528320360929, -0.0090513825416565 ]
  - [  -0.0027921542059630,  0.0018536440329626, -0.0102094076573849 ]
  - [  -0.0033360342495143,  0.0018527247011662, -0.0096137411892414 ]
  - [  -0.0034109875559807,  0.0018500545993447, -0.0096315145492554 ]
  - [  -0.0034094983711839,  0.0018586283549666, -0.0096020586788654 ]
  - [  -0.0033344009425491,  0.0018542520701885, -0.0096120480448008 ]
  - [  -0.0034128176048398,  0.0018563894554973, -0.0096320267766714 ]
  - [  -0.0034091309644282,  0.0018475139513612, -0.0096039827913046 ]
  - [   0.0030030161142349, -0.0005607205675915, -0.0186634100973606 ]
  - [   0.0029813107103109, -0.0005502233980224, -0.0186672136187553 ]
  - [   0.0030148569494486, -0.0005660143797286, -0.0186338908970356 ]
  - [   0.0029830308631063, -0.0005578940035775, -0.0187504068017006 ]
  - [   0.0029983893036842, -0.0005580506403930, -0.0186608768999577 ]
  - [   0.0029853060841560, -0.0005581732839346, -0.0185481384396553 ]
  - [   0.0029927399009466, -0.0005548080080189, -0.0186632033437490 ]
  - [   0.0029695630073547, -0.0005649699596688, -0.0186662655323744 ]
  - [   0.0030030403286219, -0.0005503377760760, -0.0186294578015804 ]
  - [  -0.0028024232015014,  0.0009051448432729,  0.0214988775551319 ]
  - [  -0.0027418611571193, -0.0039899381808937,  0.0212665777653456 ]
  - [  -0.0003127204254270, -0.0015852574724704,  0.0213848501443863 ]
  - [  -0.0002026566071436, -0.0015863717999309,  0.0213505122810602 ]
  - [  -0.0002026688307524, -0.0015864246524870,  0.0214114803820848 ]
  - [  -0.0002068793401122, -0.0015870664501563,  0.0213830843567848 ]
  - [  -0.0027824547141790, -0.0040648644790053,  0.0214980896562338 ]
  - [  -0.0027270438149571,  0.0008123907027766,  0.0212649106979370 ]
  - [  -0.0003023883327842, -0.0015873380471021,  0.0213834680616856 ]
  - [   0.0043766405433416,  0.0015007979236543,  0.0337671041488647 ]
  - [   0.0042547732591629,  0.0015001902356744,  0.0338223129510880 ]
  - [   0.0042608655057847,  0.0015000645071268,  0.0337064117193222 ]
  - [   0.0042675081640482,  0.0014579878188670,  0.0337399691343307 ]
  - [   0.0042834435589612,  0.0014981944113970,  0.0337824448943138 ]
  - [   0.0042782938107848,  0.0015434026718140,  0.0337725505232811 ]
  - [   0.0042676459997892,  0.0015415358357131,  0.0337406396865845 ]
  - [   0.0042838067747653,  0.0015008910559118,  0.0337826609611511 ]
  - [   0.0042793615721166,  0.0014553489163518,  0.0337722785770893 ]
  - [  -0.0052036428824067, -0.0014752151910216, -0.0357404649257660 ]
  - [  -0.0051347985863686, -0.0014665178023279, -0.0314534083008766 ]
  - [  -0.0033366854768246, -0.0014709837269038, -0.0335564054548740 ]
  - [  -0.0033206827938557, -0.0015874519012868, -0.0335611663758755 ]
  - [  -0.0033190920948982, -0.0013550370931625, -0.0335400216281414 ]
  - [  -0.0033651180565357, -0.0014734826982021, -0.0335550792515278 ]
  - [  -0.0033211787231266, -0.0013564683031291, -0.0335624776780605 ]
  - [  -0.0033191516995430, -0.0015855617821217, -0.0335395559668541 ]
  - [  -0.0033644549548626, -0.0014683417975903, -0.0335545949637890 ]
  - [  -0.0037267031148076,  0.0004317951388657, -0.0020228205248713 ]
  - [  -0.0007502602529712,  0.0004267623880878,  0.0006576767191291 ]
  - [  -0.0038271648809314,  0.0004221763811074,  0.0034745214506984 ]
  - [  -0.0005682707997039,  0.0005195559933782,  0.0007445667870343 ]
  - [  -0.0006227479898371,  0.0004302463494241,  0.0006634605815634 ]
  - [  -0.0005653939442709,  0.0003348644822836,  0.0005813158350065 ]
  - [  -0.0005688853561878,  0.0003397860564291,  0.0007443361682817 ]
  - [  -0.0006211111322045,  0.0004293478559703,  0.0006648472044617 ]
  - [  -0.0005674818530679,  0.0005245294887573,  0.0005811676383018 ]
  - [  -0.0041346112266183, -0.0018675155006349, -0.0395126305520535 ]
  - [  -0.0041603744029999, -0.0019620324019343, -0.0394836850464344 ]
  - [  -0.0041544781997800, -0.0019153477624059, -0.0394576005637646 ]
  - [  -0.0041766827926040, -0.0019138145726174, -0.0395049080252647 ]
  - [  -0.0041470704600215, -0.0019130138680339, -0.0394582711160183 ]
  - [  -0.0041248630732298, -0.0019148797728121, -0.0394950285553932 ]
  - [  -0.0041346047073603, -0.0019608782604337, -0.0395118296146393 ]
  - [  -0.0041594509966671, -0.0018667813856155, -0.0394841209053993 ]
  - [  -0.0041544465348125, -0.0019160173833370, -0.0394582673907280 ]
  - [   0.0028091960120946,  0.0035056066699326,  0.0377046391367912 ]
  - [   0.0026315918657929,  0.0034455307759345,  0.0375952795147896 ]
  - [   0.0026263925246894,  0.0035637579858303,  0.0377861186861992 ]
  - [   0.0025759742129594,  0.0035066613927484,  0.0376949794590473 ]
  - [   0.0025539521593601,  0.0035055158659816,  0.0376832336187363 ]
  - [   0.0025563852395862,  0.0035077040083706,  0.0377025194466114 ]
  - [   0.0028009857051075,  0.0035067130811512,  0.0377039760351181 ]
  - [   0.0026298561133444,  0.0035665486939251,  0.0375952683389187 ]
  - [   0.0026233373209834,  0.0034451866522431,  0.0377863645553589 ]
- atom:    1
  displacement:
    [   0.0000011265110917,  0.0099999999365486,  0.0000000000000000 ]
  forces:
  - [   0.0018535112030804, -0.0118794012814760,  0.0085175596177578 ]
  - [   0.0018461293075234, -0.0018117092549801,  0.0084731541574001 ]