# Thermal properties / unit cell (natom)

unit:
  temperature:   K
  free_energy:   kJ/mol
  entropy:       J/K/mol
  heat_capacity: J/K/mol

natom: 4    
cutoff_frequency: 0.00000
num_modes: 165888
num_integrated_modes: 165886

zero_point_energy:      15.7703674

thermal_properties:
- temperature:         0.0000000
  free_energy:        15.7703674
  entropy:             0.0000000
  heat_capacity:       0.0000000
  energy:             15.7703674

- temperature:        10.0000000
  free_energy:        15.7698607
  entropy:             0.2063192
  heat_capacity:       0.7574880
  energy:             15.7719239

- temperature:        20.0000000
  free_energy:        15.7594660
  entropy:             2.3321071
  heat_capacity:       6.8078842
  energy:             15.8061081

- temperature:        30.0000000
  free_energy:        15.7167300
  entropy:             6.3802166
  heat_capacity:      13.2658791
  energy:             15.9081365

- temperature:        40.0000000
  free_energy:        15.6304996
  entropy:            10.8801542
  heat_capacity:      18.0811417
  energy:             16.0657057

- temperature:        50.0000000
  free_energy:        15.4991325
  entropy:            15.3908661
  heat_capacity:      22.5399402
  energy:             16.2686758

- temperature:        60.0000000
  free_energy:        15.3226262
  entropy:            19.9190192
  heat_capacity:      27.3548196
  energy:             16.5177673

- temperature:        70.0000000
  free_energy:        15.1004928
  entropy:            24.5233814
  heat_capacity:      32.5690522
  energy:             16.8171295

- temperature:        80.0000000
  free_energy:        14.8318338
  entropy:            29.2239423
  heat_capacity:      37.9632980
  energy:             17.1697492

- temperature:        90.0000000
  free_energy:        14.5157445
  entropy:            34.0047691
  heat_capacity:      43.2933299
  energy:             17.5761737

- temperature:       100.0000000
  free_energy:        14.1515834
  entropy:            38.8319996
  heat_capacity:      48.3761551
  energy:             18.0347833

- temperature:       110.0000000
  free_energy:        13.7390774
  entropy:            43.6674858
  heat_capacity:      53.1021706
  energy:             18.5425008

- temperature:       120.0000000
  free_energy:        13.2783237
  entropy:            48.4761794
  heat_capacity:      57.4210596
  energy:             19.0954652

- temperature:       130.0000000
  free_energy:        12.7697403
  entropy:            53.2291478
  heat_capacity:      61.3230019
  energy:             19.6895295

- temperature:       140.0000000
  free_energy:        12.2140012
  entropy:            57.9041581
  heat_capacity:      64.8228178
  energy:             20.3205834

- temperature:       150.0000000
  free_energy:        11.6119712
  entropy:            62.4851154
  heat_capacity:      67.9486173
  energy:             20.9847385

- temperature:       160.0000000
  free_energy:        10.9646494
  entropy:            66.9610801
  heat_capacity:      70.7343951
  energy:             21.6784222

- temperature:       170.0000000
  free_energy:        10.2731227
  entropy:            71.3252258
  heat_capacity:      73.2155242
  energy:             22.3984111

- temperature:       180.0000000
  free_energy:         9.5385300
  entropy:            75.5738968
  heat_capacity:      75.4262018
  energy:             23.1418315

- temperature:       190.0000000
  free_energy:         8.7620341
  entropy:            79.7058186
  heat_capacity:      77.3981365
  energy:             23.9061397

- temperature:       200.0000000
  free_energy:         7.9448014
  entropy:            83.7214644
  heat_capacity:      79.1599887
  energy:             24.6890943

- temperature:       210.0000000
  free_energy:         7.0879868
  entropy:            87.6225605
  heat_capacity:      80.7372501
  energy:             25.4887245

- temperature:       220.0000000
  free_energy:         6.1927234
  entropy:            91.4117076
  heat_capacity:      82.1523625
  energy:             26.3032991

- temperature:       230.0000000
  free_energy:         5.2601152
  entropy:            95.0920946
  heat_capacity:      83.4249556
  energy:             27.1312970

- temperature:       240.0000000
  free_energy:         4.2912322
  entropy:            98.6672842
  heat_capacity:      84.5721342
  energy:             27.9713804

- temperature:       250.0000000
  free_energy:         3.2871076
  entropy:           102.1410552
  heat_capacity:      85.6087720
  energy:             28.8223714

- temperature:       260.0000000
  free_energy:         2.2487362
  entropy:           105.5172862
  heat_capacity:      86.5477931
  energy:             29.6832306

- temperature:       270.0000000
  free_energy:         1.1770740
  entropy:           108.7998720
  heat_capacity:      87.4004292
  energy:             30.5530395

- temperature:       280.0000000
  free_energy:         0.0730381
  entropy:           111.9926639
  heat_capacity:      88.1764493
  energy:             31.4309840

- temperature:       290.0000000
  free_energy:        -1.0624925
  entropy:           115.0994278
  heat_capacity:      88.8843607
  energy:             32.3163415

- temperature:       300.0000000
  free_energy:        -2.2286759
  entropy:           118.1238163
  heat_capacity:      89.5315844
  energy:             33.2084690

- temperature:       310.0000000
  free_energy:        -3.4247060
  entropy:           121.0693505
  heat_capacity:      90.1246056
  energy:             34.1067926

- temperature:       320.0000000
  free_energy:        -4.6498113
  entropy:           123.9394087
  heat_capacity:      90.6691033
  energy:             35.0107994

- temperature:       330.0000000
  free_energy:        -5.9032534
  entropy:           126.7372213
  heat_capacity:      91.1700610
  energy:             35.9200296

- temperature:       340.0000000
  free_energy:        -7.1843252
  entropy:           129.4658689
  heat_capacity:      91.6318617
  energy:             36.8340702

- temperature:       350.0000000
  free_energy:        -8.4923500
  entropy:           132.1282836
  heat_capacity:      92.0583690
  energy:             37.7525493

- temperature:       360.0000000
  free_energy:        -9.8266794
  entropy:           134.7272522
  heat_capacity:      92.4529959
  energy:             38.6751314

- temperature:       370.0000000
  free_energy:       -11.1866924
  entropy:           137.2654201
  heat_capacity:      92.8187647
  energy:             39.6015130

- temperature:       380.0000000
  free_energy:       -12.5717935
  entropy:           139.7452973
  heat_capacity:      93.1583571
  energy:             40.5314194

- temperature:       390.0000000
  free_energy:       -13.9814120
  entropy:           142.1692638
  heat_capacity:      93.4741586
  energy:             41.4646009

- temperature:       400.0000000
  free_energy:       -15.4150000
  entropy:           144.5395760
  heat_capacity:      93.7682949
  energy:             42.4008304

- temperature:       410.0000000
  free_energy:       -16.8720318
  entropy:           146.8583725
  heat_capacity:      94.0426651
  energy:             43.3399009

- temperature:       420.0000000
  free_energy:       -18.3520025
  entropy:           149.1276809
  heat_capacity:      94.2989687
  energy:             44.2816235

- temperature:       430.0000000
  free_energy:       -19.8544269
  entropy:           151.3494234
  heat_capacity:      94.5387301
  energy:             45.2258252

- temperature:       440.0000000
  free_energy:       -21.3788385
  entropy:           153.5254228
  heat_capacity:      94.7633192
  energy:             46.1723475

- temperature:       450.0000000
  free_energy:       -22.9247886
  entropy:           155.6574083
  heat_capacity:      94.9739695
  energy:             47.1210451

- temperature:       460.0000000
  free_energy:       -24.4918454
  entropy:           157.7470209
  heat_capacity:      95.1717935
  energy:             48.0717842

- temperature:       470.0000000
  free_energy:       -26.0795930
  entropy:           159.7958183
  heat_capacity:      95.3577970
  energy:             49.0244416

- temperature:       480.0000000
  free_energy:       -27.6876307
  entropy:           161.8052801
  heat_capacity:      95.5328902
  energy:             49.9789038

- temperature:       490.0000000
  free_energy:       -29.3155722
  entropy:           163.7768122
  heat_capacity:      95.6978988
  energy:             50.9350658

- temperature:       500.0000000
  free_energy:       -30.9630449
  entropy:           165.7117512
  heat_capacity:      95.8535730
  energy:             51.8928306

- temperature:       510.0000000
  free_energy:       -32.6296895
  entropy:           167.6113684
  heat_capacity:      96.0005952
  energy:             52.8521084

- temperature:       520.0000000
  free_energy:       -34.3151586
  entropy:           169.4768738
  heat_capacity:      96.1395875
  energy:             53.8128158

- temperature:       530.0000000
  free_energy:       -36.0191171
  entropy:           171.3094196
  heat_capacity:      96.2711176
  energy:             54.7748753

- temperature:       540.0000000
  free_energy:       -37.7412408
  entropy:           173.1101033
  heat_capacity:      96.3957046
  energy:             55.7382150

- temperature:       550.0000000
  free_energy:       -39.4812164
  entropy:           174.8799714
  heat_capacity:      96.5138238
  energy:             56.7027678

- temperature:       560.0000000
  free_energy:       -41.2387408
  entropy:           176.6200218
  heat_capacity:      96.6259107
  energy:             57.6684714

- temperature:       570.0000000
  free_energy:       -43.0135207
  entropy:           178.3312069
  heat_capacity:      96.7323652
  energy:             58.6352673

- temperature:       580.0000000
  free_energy:       -44.8052718
  entropy:           180.0144361
  heat_capacity:      96.8335552
  energy:             59.6031011

- temperature:       590.0000000
  free_energy:       -46.6137191
  entropy:           181.6705781
  heat_capacity:      96.9298189
  energy:             60.5719220

- temperature:       600.0000000
  free_energy:       -48.4385958
  entropy:           183.3004633
  heat_capacity:      97.0214683
  energy:             61.5416821

- temperature:       610.0000000
  free_energy:       -50.2796435
  entropy:           184.9048859
  heat_capacity:      97.1087912
  energy:             62.5123369

- temperature:       620.0000000
  free_energy:       -52.1366112
  entropy:           186.4846059
  heat_capacity:      97.1920536
  energy:             63.4838444

- temperature:       630.0000000
  free_energy:       -54.0092557
  entropy:           188.0403507
  heat_capacity:      97.2715014
  energy:             64.4561653

- temperature:       640.0000000
  free_energy:       -55.8973407
  entropy:           189.5728174
  heat_capacity:      97.3473623
  energy:             65.4292625

- temperature:       650.0000000
  free_energy:       -57.8006367
  entropy:           191.0826738
  heat_capacity:      97.4198476
  energy:             66.4031013

- temperature:       660.0000000
  free_energy:       -59.7189209
  entropy:           192.5705602
  heat_capacity:      97.4891531
  energy:             67.3776488

- temperature:       670.0000000
  free_energy:       -61.6519767
  entropy:           194.0370911
  heat_capacity:      97.5554608
  energy:             68.3528743

- temperature:       680.0000000
  free_energy:       -63.5995935
  entropy:           195.4828561
  heat_capacity:      97.6189402
  energy:             69.3287486

- temperature:       690.0000000
  free_energy:       -65.5615665
  entropy:           196.9084214
  heat_capacity:      97.6797486
  energy:             70.3052442

- temperature:       700.0000000
  free_energy:       -67.5376964
  entropy:           198.3143309
  heat_capacity:      97.7380331
  energy:             71.2823352

- temperature:       710.0000000
  free_energy:       -69.5277893
  entropy:           199.7011074
  heat_capacity:      97.7939304
  energy:             72.2599969

- temperature:       720.0000000
  free_energy:       -71.5316565
  entropy:           201.0692538
  heat_capacity:      97.8475685
  energy:             73.2382063

- temperature:       730.0000000
  free_energy:       -73.5491139
  entropy:           202.4192536
  heat_capacity:      97.8990667
  energy:             74.2169412

- temperature:       740.0000000
  free_energy:       -75.5799826
  entropy:           203.7515722
  heat_capacity:      97.9485368
  energy:             75.1961808

- temperature:       750.0000000
  free_energy:       -77.6240879
  entropy:           205.0666579
  heat_capacity:      97.9960833
  energy:             76.1759055

- temperature:       760.0000000
  free_energy:       -79.6812598
  entropy:           206.3649423
  heat_capacity:      98.0418042
  energy:             77.1560964

- temperature:       770.0000000
  free_energy:       -81.7513322
  entropy:           207.6468415
  heat_capacity:      98.0857912
  energy:             78.1367358

- temperature:       780.0000000
  free_energy:       -83.8341433
  entropy:           208.9127565
  heat_capacity:      98.1281304
  energy:             79.1178068

- temperature:       790.0000000
  free_energy:       -85.9295353
  entropy:           210.1630740
  heat_capacity:      98.1689028
  energy:             80.0992932

- temperature:       800.0000000
  free_energy:       -88.0373540
  entropy:           211.3981674
  heat_capacity:      98.2081844
  energy:             81.0811798

- temperature:       810.0000000
  free_energy:       -90.1574491
  entropy:           212.6183966
  heat_capacity:      98.2460466
  energy:             82.0634522

- temperature:       820.0000000
  free_energy:       -92.2896736
  entropy:           213.8241096
  heat_capacity:      98.2825567
  energy:             83.0460963

- temperature:       830.0000000
  free_energy:       -94.4338840
  entropy:           215.0156422
  heat_capacity:      98.3177781
  energy:             84.0290990

- temperature:       840.0000000
  free_energy:       -96.5899402
  entropy:           216.1933190
  heat_capacity:      98.3517703
  energy:             85.0124477

- temperature:       850.0000000
  free_energy:       -98.7577053
  entropy:           217.3574538
  heat_capacity:      98.3845898
  energy:             85.9961305

- temperature:       860.0000000
  free_energy:      -100.9370452
  entropy:           218.5083500
  heat_capacity:      98.4162896
  energy:             86.9801358

- temperature:       870.0000000
  free_energy:      -103.1278291
  entropy:           219.6463010
  heat_capacity:      98.4469198
  energy:             87.9644527

- temperature:       880.0000000
  free_energy:      -105.3299290
  entropy:           220.7715907
  heat_capacity:      98.4765280
  energy:             88.9490708

- temperature:       890.0000000
  free_energy:      -107.5432196
  entropy:           221.8844940
  heat_capacity:      98.5051588
  energy:             89.9339800

- temperature:       900.0000000
  free_energy:      -109.7675785
  entropy:           222.9852770
  heat_capacity:      98.5328546
  energy:             90.9191709

- temperature:       910.0000000
  free_energy:      -112.0028856
  entropy:           224.0741976
  heat_capacity:      98.5596557
  energy:             91.9046341

- temperature:       920.0000000
  free_energy:      -114.2490237
  entropy:           225.1515053
  heat_capacity:      98.5855999
  energy:             92.8903611

- temperature:       930.0000000
  free_energy:      -116.5058778
  entropy:           226.2174422
  heat_capacity:      98.6107233
  energy:             93.8763434

- temperature:       940.0000000
  free_energy:      -118.7733355
  entropy:           227.2722430
  heat_capacity:      98.6350601
  energy:             94.8625730

- temperature:       950.0000000
  free_energy:      -121.0512863
  entropy:           228.3161352
  heat_capacity:      98.6586426
  energy:             95.8490421

- temperature:       960.0000000
  free_energy:      -123.3396225
  entropy:           229.3493395
  heat_capacity:      98.6815015
  energy:             96.8357434

- temperature:       970.0000000
  free_energy:      -125.6382382
  entropy:           230.3720701
  heat_capacity:      98.7036662
  energy:             97.8226698

- temperature:       980.0000000
  free_energy:      -127.9470297
  entropy:           231.3845349
  heat_capacity:      98.7251642
  energy:             98.8098145

- temperature:       990.0000000
  free_energy:      -130.2658954
  entropy:           232.3869357
  heat_capacity:      98.7460221
  energy:             99.7971710

- temperature:      1000.0000000
  free_energy:      -132.5947355
  entropy:           233.3794684
  heat_capacity:      98.7662649
  energy:            100.7847329
