10
Lattice="4.278547698010282 0.03986767996648082 -0.016947541762084205 -0.041776406526917734 4.257438527805714 -0.8564806181449574 0.044125805698088966 0.015750523921827023 11.078680826777399" Properties=species:S:1:pos:R:3:forces:R:3 structure_index=0 total_energy=-30.643497467041016 stress="0.014206024818122387 0.005369597114622593 0.0005243784398771822 0.005369485355913639 0.016590092331171036 -0.0006449283682741225 0.0005243384512141347 -0.0006449312786571681 0.012390193529427052" pbc="T T T"
Li       2.12230551       3.42144902       0.45229032      -0.00001090      -0.00026488       0.00845046
Li       2.14992867       1.73510125       3.10892080      -0.00106731       0.00564671       0.01351943
Li       2.15613755       2.57033551       7.22328468       0.00066118      -0.00072065       0.00636468
Ga       0.00423530       1.29204237       0.99188494      -0.00011376      -0.00127421      -0.00742196
Ga       0.01419716       2.11912377       5.10770247      -0.00040861       0.00224666       0.00382739
Ga       2.18186745       0.91138666       9.98351690       0.00091801      -0.00335480      -0.02610547
Ga       2.13194481       4.26249937       4.65447504      -0.00008826       0.00036594      -0.00259086
Sn       0.03801657       0.41010888       7.60695818       0.00022940       0.00658166       0.03171378
Sn      -0.01124532       3.82318511       2.57544819      -0.00055427      -0.00248519      -0.01969297
Sn       0.02179942       3.01331523       9.52492087       0.00043450      -0.00674123      -0.00806447
3
Lattice="4.036603331024277 0.00027741761361589005 2.314355396844101 1.3399731415821892 3.8165078220643447 2.312631965783166 0.0006180913185155687 0.00044026257224578507 4.664276797801074" Properties=species:S:1:pos:R:3:forces:R:3 structure_index=1 total_energy=-9.152055740356445 stress="-0.07238837331533432 -0.0027888319455087185 -0.02421940676867962 -0.002788849640637636 -0.0568508543074131 -0.01727258414030075 -0.024219084531068802 -0.01727246679365635 -0.07029455900192261" pbc="T T T"
Ga       1.93287776       3.23397672       5.33931770       0.00316341       0.00604961       0.01421900
Ga       1.93851974       0.37208443       5.34977237      -0.00164582       0.00346124       0.00794338
Sn       4.62557272       2.27910888       5.33050499      -0.00151756      -0.00951084      -0.02216238
13
Lattice="4.742580505951491 0.0019647189083770544 -1.6719701635415583 -1.9706012646356283 6.7797401569701 -3.185690961133632 -0.007454831276782154 0.09818417086941203 7.536547200006055" Properties=species:S:1:pos:R:3:forces:R:3 structure_index=2 total_energy=-36.568382263183594 stress="0.0004689242341555655 -0.00011118063412141055 -0.000716577866114676 -0.00011122219439130276 0.003383675590157509 -0.0010339266154915094 -0.0007167930016294122 -0.0010341955348849297 9.589225373929366e-05" pbc="T T T"
Li       2.60513151       2.67564326      -1.01327589       0.00675231       0.01924049      -0.04223221
Li       0.09509756       4.08614982      -0.48070029      -0.00554647       0.04323555      -0.01038417
Li       1.10451781       0.91922912       4.82192915       0.00262261       0.01466846       0.00323928
Li       2.03782355       0.52878046       2.09994180       0.01544187      -0.03117787       0.02716887
Li       2.47098257       5.84814268      -1.68410740      -0.01101080      -0.01996816       0.03027512
Li       1.81351794       3.20886949       1.67984163       0.00272947       0.00049837       0.01070526
Ga      -0.74035900       4.61226017       2.14819087       0.00473705      -0.01914698      -0.00412473
Ga       0.68489539       6.71327813      -3.69239610       0.00388246       0.00039687      -0.00464440
Ga       0.32284806       1.34110645       0.05555494      -0.02385560      -0.02148067      -0.01866606
Ga      -0.48458872       1.79787921       2.64675546      -0.00306048      -0.00680439       0.04073305
Ga       3.46719471       2.35797024       3.78540133       0.01370957       0.02116195      -0.04338051
Sn       1.05174548       3.98990887       4.39390845       0.00074633      -0.02218241      -0.00306977
Sn       1.60381353       6.09656520       1.10370894      -0.00714832       0.02155882       0.01438032
8
Lattice="4.742076786327626 0.004652601213040201 -0.004939207282020397 -0.005166087405587372 5.104869826087865 -0.05523857681961121 0.005777106968469112 -0.037894247070919373 6.013352952829006" Properties=species:S:1:pos:R:3:forces:R:3 structure_index=3 total_energy=-22.67402458190918 stress="-0.0035549115855246782 -0.0012596237938851118 -0.0006625453825108707 -0.0012598485918715596 0.005172068253159523 -0.005947721656411886 -0.000662580132484436 -0.005947448778897524 -0.012727124616503716" pbc="T T T"
Li       0.93929960       2.76166903       0.63529957      -0.00057827       0.00504225      -0.02181215
Li       0.94220328       2.65449485       3.69562012       0.00036598       0.00221347       0.00520444
Li       3.31181598       4.54045323       3.66721738      -0.00052761      -0.00316308       0.01014582
Li       0.94376907       0.26845223       2.26066067      -0.00121269      -0.02241456      -0.00158319
Li       3.31564157       1.89363700       5.11524760      -0.00049524      -0.00628628       0.00369073
Ga       0.94572091       0.22069186       5.11470367       0.00096086      -0.02690425      -0.00891933
Sn       3.30814915       4.51787498       0.54051599       0.00084102       0.02192906      -0.02153081
Sn       3.31254086       1.98649345       2.20797678       0.00064594       0.02958344       0.03480448
10
Lattice="4.2796272662043595 -0.0008764964428417752 -0.0018121389333935994 0.0013498764906472722 4.241441811301048 -0.8594996444380125 0.003934846993793883 -0.03646172891934191 10.665427409010316" Properties=species:S:1:pos:R:3:forces:R:3 structure_index=4 total_energy=-29.828161239624023 stress="0.026197247207164764 0.0026463260874152184 -0.001251873793080449 0.002646286506205797 -0.028729429468512535 0.016159584745764732 -0.0012520125601440668 0.016159534454345703 0.004510536324232817" pbc="T T T"
Li       3.60001486       3.37243828       9.42601645       0.00088606      -0.00047708       0.00414634
Li       1.46022708       2.95579913       7.36842690      -0.00149056      -0.00994982      -0.02981190
Li       1.45716823       2.13446483       3.34295696      -0.00127062       0.00346461       0.01594091
Li       3.59567983       1.69666860       1.19347537       0.00089629      -0.00001216       0.00810488
Li       1.45641845       0.42399681       5.78336863       0.00135311      -0.00565122      -0.01890274
Ga       3.59944616       0.84907069       7.88718442      -0.00085143      -0.00044970      -0.01526734
Ga       1.45580240       3.81506302       0.76834580       0.00065348       0.01060088       0.03680263
Sn       1.46028991       1.24965265       9.85171116      -0.00195005       0.00027235      -0.01032588
Sn       3.59805089       2.57277553       5.50209634      -0.00001605      -0.00176131      -0.02201465
Sn       3.59621172       4.20772600       2.68031173       0.00178977       0.00396345       0.03132778
5
Lattice="3.84853797982738 0.0025642190528558247 -1.3989084364685895 -0.512801588425192 3.8142040768675165 -1.4020429590848629 0.4111165263128853 0.47196980418744566 7.093747380830721" Properties=species:S:1:pos:R:3:forces:R:3 structure_index=5 total_energy=-14.655660629272461 stress="-0.018016953021287918 0.004518731962889433 0.014463977888226509 0.004518710542470217 -0.01653515361249447 0.0167585127055645 0.014463788829743862 0.01675860956311226 0.01743018440902233" pbc="T T T"
Li       2.11945281       3.86338866       2.66953753       0.01380959       0.01586109       0.03672011
Ga       2.88265063       2.53645056      -1.20841525      -0.00375810      -0.00491932      -0.01106293
Ga       1.21516811       0.62713365       0.19100014      -0.00415894      -0.00423348      -0.01057652
Ga       0.83882015       2.39819249       5.12471244      -0.00253264      -0.00337134      -0.01074107
Sn       3.79199289       1.37678933       1.28538663      -0.00335991      -0.00333695      -0.00433961
8
Lattice="4.1958441973854725 0.011186236425404917 -0.008443459769096178 -0.011302644111733989 4.1957213467868675 -0.009492373869465207 0.013792422385498647 0.015689725958665163 8.271647551229142" Properties=species:S:1:pos:R:3:forces:R:3 structure_index=6 total_energy=-22.545551300048828 stress="-0.011392890475690365 -0.0003110083343926817 -0.00025023333728313446 -0.0003110093530267477 -0.011223260313272476 -8.649742812849581e-05 -0.00025009550154209137 -8.64661778905429e-05 0.003581673838198185" pbc="T T T"
Li       2.92754921       0.66947111       6.90867953       0.00002510       0.00021701      -0.00010050
Ga       0.81713830       2.75408979       2.77185382       0.00023476       0.00002301       0.00098429
Ga       2.92115935       0.66156573       2.77385165      -0.00017391      -0.00004141      -0.00149192
Ga       2.91230534       2.75636496       0.64755881      -0.00059184       0.00024863       0.02673242
Ga       0.82341523       2.76227237       6.90772118       0.00091397      -0.00048402       0.00067843
Ga       0.82003283       0.65372836       0.65439172      -0.00042664      -0.00125141       0.03065519
Ga       2.91732759       2.76232126       4.88999541       0.00145844       0.00121722      -0.02932023
Ga       0.82647877       0.65927545       4.89848172      -0.00143988       0.00007097      -0.02813769
20
Lattice="7.61581312897524 0.007861022268947577 -3.3611003863467777 -3.701891846389627 7.1147731936452505 -2.4363315995262127 0.0877650586269496 -0.009491344733424162 8.209957928324929" Properties=species:S:1:pos:R:3:forces:R:3 structure_index=7 total_energy=-62.497928619384766 stress="0.0034785496536642313 0.0001998692750930786 -0.0010566097917035222 0.00019983721722383052 0.004570143297314644 -0.0005663149640895426 -0.0010566739365458488 -0.0005663951160386205 0.0047370670363307" pbc="T T T"
Li       0.63535034       4.16421820      -1.68771412      -0.01974932       0.01787128      -0.01420298
Li       2.95872276       2.60901637       3.01899412       0.00102049      -0.01542079      -0.02704384
Ga       4.23201827       0.49602360       4.85959132      -0.01948660      -0.00920142       0.00615554
Ga      -0.96363145       6.24778436       4.68822103       0.00321539      -0.00096464       0.00762278
Ga       0.60513000       0.64045094       2.52339552      -0.00231005       0.00500639      -0.00014465
Ga       4.48665408       4.24634641       0.74613825       0.02212263       0.01300590       0.01545805
Ga       1.95801988       1.96904153       0.02452635      -0.00691001       0.00875533      -0.00635447
Ga       3.89436573       6.96868955       2.06414223       0.02939004      -0.00767786       0.01799904
Ga       3.21880151       6.22436914      -1.03921229       0.02282795      -0.00424088      -0.02016170
Ga      -0.80885342       2.72389766       0.68332380       0.01892812       0.00945144       0.00907578
Ga       3.47104165       3.38549516      -2.20274515      -0.04770320      -0.00886507      -0.00333108
Ga      -1.64600904       5.53267191       1.86416430       0.01834810       0.00403229      -0.00042335
Ga       1.51100952       1.20607294       5.46306576      -0.00292692      -0.00153129       0.00218493
Sn      -0.25112170       6.96861235      -0.60418603      -0.01536965      -0.00936018      -0.01123021
Sn       5.02253918       1.48937193      -0.51341386      -0.01315287       0.03064116      -0.00036836
Sn      -2.45422292       4.69372439      -1.07427556      -0.01285303      -0.03013130       0.03193749
Sn       2.15225069       5.68668629      -3.88586693      -0.00949826       0.02603501      -0.00903152
Sn       6.08716179       1.73011819       2.72980190       0.00613092      -0.03518895       0.02342368
Sn      -0.07139695       3.42429419       3.65602998       0.00277008       0.00172034       0.00129139
Sn       1.53667176       4.82990810       1.15596920       0.02520619       0.00606326      -0.02285658
20
Lattice="4.782649153720161 -0.0005646899231229275 0.00019691519144837303 0.0007035514195628333 5.8978604571206334 0.023964056736361906 -0.003329328673467674 -0.10404433435658088 14.195548123767315" Properties=species:S:1:pos:R:3:forces:R:3 structure_index=8 total_energy=-61.714576721191406 stress="-0.00012549372331704944 1.2795551356248325e-06 -7.711659236520063e-06 1.349493913949118e-06 0.0025646400172263384 -0.00019361464364919811 -7.654646651644725e-06 -0.00019371003145352006 0.0007607337320223451" pbc="T T T"
Li       4.47088527       3.81547426      12.85957658      -0.00000517       0.00024092      -0.00195405
Li       4.47123687       3.86660641       7.04954227       0.00025105      -0.01295787      -0.04182841
Li       4.47054583       0.81956901      12.85151060      -0.00001183      -0.00060142      -0.00017850
Li       4.47223687       1.00579510       6.77547926      -0.00026582      -0.00874946       0.04464628
Li       2.07908122       0.85060786      11.22152089       0.00010701      -0.00343105      -0.00304776
Li       2.08256555       0.98285041       2.92351232      -0.00014399      -0.00568908      -0.02156806
Li       2.07940487       3.82630806      11.24440795       0.00010833      -0.00554748      -0.00401483
Li       2.08286634       3.90496523       2.79794974      -0.00007339      -0.00590939       0.02226729
Ga       4.47359684       2.51004185       4.31691586      -0.00003574      -0.02185639       0.00338854
Ga       4.47345672       5.33461448       4.11067411      -0.00011476       0.03607561       0.00718860
Ga       4.47444948       5.36839287       1.45574035      -0.00011105       0.00227090       0.00276905
Ga       2.07950223       5.30602204       8.49845567       0.00023456       0.00263775      -0.00095735
Ga       2.08212524       2.43338262       5.45198419      -0.00004927      -0.00078554      -0.00235918
Sn       4.47068291       2.33336521      10.14098131       0.00011408       0.00113952      -0.00263578
Sn       2.07977616       5.26244583      13.98066156      -0.00005254      -0.00071774       0.00282253
Sn       4.47082863       5.28169028      10.16063332       0.00015775       0.00063820      -0.00606822
Sn       4.47409172       2.40242922       1.50932745      -0.00009162       0.00252152       0.00017423
Sn       2.07951837       2.34105560       8.32888675       0.00015968       0.00407141       0.00029610
Sn       2.08176939       5.34144081       5.62339274      -0.00013585       0.01634148       0.00025583
Sn       2.07945577       2.31391278      13.89166373      -0.00004144       0.00030807       0.00080369
15
Lattice="6.054487311887092 -0.058859469068732226 0.06155544637364133 0.036386890832848344 6.9669032689166706 0.36625582404092855 0.031585899451603394 0.04093813673548224 7.190101635505708" Properties=species:S:1:pos:R:3:forces:R:3 structure_index=9 total_energy=-45.50187301635742 stress="0.00028448307421058416 -0.00030749739380553365 -6.115498399594799e-05 -0.0003074398555327207 -0.0027849634643644094 -0.001249013701453805 -6.114907591836527e-05 -0.001249013701453805 -0.0001347374200122431" pbc="T T T"
Li       0.62990835       0.11565491       6.19265677      -0.00029845       0.01047959       0.01191152
Li       3.71652093       0.15798875       6.13320532      -0.01644913       0.00830260       0.00678256
Li       5.17277958       1.18809137       3.72817275      -0.00427725       0.00356712       0.00193075
Li       3.63727476       3.52758452       2.71159915       0.00374312       0.00641810       0.01833202
Li       3.60269409       6.55747861       2.29379783       0.01092746      -0.01485838      -0.01217538
Li       0.66994642       3.61339643       2.66724313      -0.01155520       0.01165003       0.00971724
Ga       5.17261312       1.75146219       0.95095069       0.00268690       0.00748349      -0.00628124
Ga       2.13631054       4.91639265       0.51964068       0.00024349      -0.00904535       0.00181730
Ga       0.72450140       6.64661694       2.24583492      -0.01985235      -0.01815571      -0.01179582
Ga       6.20131285       2.77527876       5.70742327       0.04870081       0.00606584      -0.01549836
Sn       2.12735009       1.39285879       3.95822437      -0.00974764      -0.02542608      -0.03431498
Sn       5.13324592       4.68548629       0.48578834      -0.00352882      -0.01419347      -0.01611974
Sn       2.15494361       5.13471662       4.78124416       0.00028027       0.01600935       0.00366893
Sn       2.20889041       2.03736465       0.58484101      -0.00082054       0.00004903       0.02651694
Sn       5.16294607       5.31209876       4.54608154      -0.00005267       0.01165385       0.01550827
12
Lattice="4.630141434216788 0.0015024466398919792 0.00027231080289632587 -0.004527066964630514 6.431176880738399 0.020547172809690876 0.008583501587082527 0.029377599864476734 8.604051213159394" Properties=species:S:1:pos:R:3:forces:R:3 structure_index=10 total_energy=-36.811561584472656 stress="-0.000975666509475559 0.00012346402218099684 -0.0001621598785277456 0.000123477540910244 0.013263029046356678 0.0015239479253068566 -0.00016203528502956033 0.0015241133514791727 0.0017846606206148863" pbc="T T T"
Li       1.10167117       4.76755368       0.20063749      -0.00034744      -0.02896184      -0.01255492
Li       3.42541060       1.48212654       4.46345207      -0.00069261       0.00199658       0.00704987
Li       3.41778479       4.66802628       3.53730097       0.00047989       0.02873559       0.01380169
Li       1.10924991       1.55562692       7.86051202       0.00048696      -0.00141849      -0.00760514
Ga       3.42186217       0.10809269       1.10760828       0.00038386      -0.04492079      -0.00848377
Ga       1.10202381       2.89466421       2.61273403      -0.00031422       0.04606908       0.00813674
Ga       1.10637337       6.11035073       5.43477694       0.00015122       0.04617343      -0.00944732
Ga       3.42383339       3.36079943       6.91024416      -0.00016445      -0.04729334       0.00856395
Sn       1.10864014       3.31122773       5.36782851       0.00014972      -0.03474621       0.01654336
Sn       1.10714983       0.09850611       2.65658835      -0.00012877      -0.04175946      -0.02274596
Sn       3.41679233       2.90424402       1.06309862       0.00018163       0.04299505       0.02284941
Sn       3.42150303       6.16001546       6.97655816      -0.00018580       0.03313041      -0.01610794
10
Lattice="3.3046307978553995 0.00020238598873625787 0.0002015259073670966 -0.0003143274756275185 3.304580677726298 0.0003551258027761868 -0.0007186272967362978 -0.002931294331449861 17.87581420458142" Properties=species:S:1:pos:R:3:forces:R:3 structure_index=11 total_energy=-30.937976837158203 stress="0.029683036729693413 -0.00040888049989007413 -0.00010832217230927199 -0.0004089646099600941 0.029185600578784943 -0.0009335054783150554 -0.00010841371113201603 -0.0009332865010946989 -0.02594776265323162" pbc="T T T"
Li       2.61696006       1.21659698      10.41431244      -0.00006241       0.00053764       0.00141607
Li       2.61722647       1.21876545       6.68214521      -0.00038686      -0.00080933      -0.00458915
Li       2.61578296       1.21890558       2.94274222       0.00073364      -0.00102004      -0.00678115
Li       2.61564076       1.21489007      17.10246362       0.00013082       0.00001859      -0.03152649
Li       2.61623683       1.21519697      14.11822020       0.00002272       0.00035057       0.03846416
Ga       0.96349525       2.86714057      15.61319582      -0.00006305       0.00029192      -0.00420305
Sn       0.96355516       2.87009721       1.07133343       0.00012350       0.00066644      -0.00694854
Sn       0.96424295       2.87060100       4.82506350      -0.00035899       0.00062775      -0.00713344
Sn       0.96422029       2.86827326      12.27786394      -0.00018230      -0.00034004       0.01213074
Sn       0.96463031       2.87010971       8.53424523       0.00004292      -0.00032349       0.00917085
10
Lattice="4.203531982120461 -0.001396718015373035 -1.275202822885517 0.001453131967905006 5.799201714836388 -0.0014463086215289157 -0.0015353352822782271 -0.004973944975780264 7.5619703277555885" Properties=species:S:1:pos:R:3:forces:R:3 structure_index=12 total_energy=-29.17629051208496 stress="0.015862762928009033 -0.0006415233947336674 -0.00555142667144537 -0.0006415921961888671 -0.0031986767426133156 -0.0018495346885174513 -0.005551455542445183 -0.0018495742697268724 -0.0002133597299689427" pbc="T T T"
Li       3.20693498       1.87589162      -0.35240763      -0.00102852       0.00022325      -0.00493512
Li       0.57713325       0.42569636       6.11320018       0.00061953       0.00061668      -0.00096808
Li       2.15328147       4.77521184       3.73610841       0.00116263       0.00122703       0.00431237
Li       0.57698081       3.32532111       6.10782457       0.00020846       0.00032215       0.00079980
Ga       3.95521784       0.40248470       2.11518366       0.00432703       0.00093469       0.01598086
Ga       1.40470119       0.45190351       1.27289081      -0.00425304       0.00105814      -0.01565117
Ga       1.40424649       3.30630800       1.26841233      -0.00434191      -0.00453156      -0.01667454
Ga       3.95476876       3.34895338       2.11048558       0.00526318      -0.00040010       0.01932134
Sn       3.07663609       4.77059025       6.77649662      -0.01004010       0.00450177      -0.02206641
Sn       2.28254970       1.87682086       4.16898889       0.00808274      -0.00395204       0.01988094
6
Lattice="4.342052262026888 0.000318140979871919 1.3194616805001804 1.9687955563387476 3.8700390366591635 1.3180945834501636 -0.013784437506954208 -0.007084491004347397 7.856737174781582" Properties=species:S:1:pos:R:3:forces:R:3 structure_index=13 total_energy=-18.850391387939453 stress="-0.029541613534092903 -0.00024219857004936785 -0.011559654958546162 -0.00024213420692831278 -0.02823692373931408 -0.007109449710696936 -0.011559774167835712 -0.00710971700027585 0.008706656284630299" pbc="T T T"
Li       4.25584788       2.32747675       5.42481042      -0.00508930      -0.00437793       0.02159488
Li       1.09467127       0.38871484       8.04206462      -0.00355582      -0.00208071       0.00825304
Ga       3.45904530       1.83852825       8.06120370       0.00851058       0.00301903      -0.00364587
Ga       2.27660330       3.77486375       4.13324964       0.01194090       0.00625499      -0.01353475
Sn       5.82859211       3.29110367       8.06976521      -0.00754502      -0.00287290      -0.00523410
Sn       2.67831087       1.35785925       2.82213967      -0.00426133       0.00005749      -0.00743320
12
Lattice="4.650006963902058 0.0001434974836891754 -0.000393527233611562 -2.324819734912186 4.026655512806109 0.0008194956771281756 0.0035197113922983774 -0.0038098626857325955 14.229625376794667" Properties=species:S:1:pos:R:3:forces:R:3 structure_index=14 total_energy=-37.47592544555664 stress="-0.012930440716445446 -7.711632497375831e-05 0.00017614563694223762 -7.711891521466896e-05 -0.013590414077043533 -0.0002383142855251208 0.00017598379054106772 -0.00023842488008085638 -0.01940036751329899" pbc="T T T"
Li       3.13683412       1.02463738       0.12043938       0.00005242      -0.00043710      -0.03358859
Li       0.81143762       2.36608502       7.86532186      -0.00006927       0.00005310      -0.04923542
Li       3.13636235       1.02426908       6.00279483       0.00032420      -0.00124813       0.02597569
Li      -1.51020959       3.70403417      10.37459080      -0.00160727       0.00202741      -0.03681162
Ga       0.81202988       2.36620090       1.02893628      -0.00230285       0.00121560       0.02209476
Ga       3.13711039       1.02306417       3.30558808      -0.00082312       0.00096057       0.03595972
Ga       3.13757295       1.02175558      11.63412684       0.00131195      -0.00135629       0.01068919
Sn       3.13690693       1.02306623       8.87713042       0.00121201      -0.00115523      -0.00582781
Sn       0.81283339       2.36367675      12.44949947      -0.00020358       0.00063528       0.00434094
Sn      -1.51356426       3.70840144       6.95328792       0.00041186      -0.00027124       0.02477718
Sn      -1.51355800       3.70846232       1.94552472       0.00243306      -0.00143408      -0.00857334
Sn       0.81217860       2.36501584       4.65967171      -0.00073944       0.00101014       0.01019927
9
Lattice="4.136572229243583 -0.0011129154185733783 -0.0008100241352815594 -2.0669618338961144 4.511220652860181 -1.5422612827431201 0.0012379715128678383 0.08676742491092769 9.009755506983371" Properties=species:S:1:pos:R:3:forces:R:3 structure_index=15 total_energy=-26.299057006835938 stress="0.024001793935894966 1.4309327525552362e-05 1.19985315905069e-05 1.4285884390119463e-05 0.015219657681882381 0.014984317123889923 1.2088327821402345e-05 0.01498433854430914 0.017513997852802277" pbc="T T T"
Li       1.09481502       4.55098315       4.73393581      -0.00247345      -0.02158940       0.00967850
Li      -0.97448611       3.10755888       6.26409422      -0.00008299       0.00405546      -0.00155586
Li       1.09308819       1.52663264       1.71241821      -0.00195991      -0.00404964       0.00440014
Li       3.15881651       0.08455562       3.25547948       0.00270035       0.01181922       0.02612789
Ga       1.09320528       1.51048040       7.73540792       0.00057880      -0.03526093      -0.02862879
Ga      -0.97657711       3.06067647       3.23976455       0.00241924       0.01830944      -0.01957982
Ga       3.16038708       0.02941433       0.12971080      -0.00051176       0.03503181       0.02586586
Sn       1.09213419       1.57620226       4.74199813      -0.00016309      -0.01627245       0.00334575
Sn      -0.97561413       3.05145510       0.23178528      -0.00050718       0.00795650      -0.01965369
9
Lattice="4.686318597253082 -0.010167254288743861 0.001559493458968165 -2.3351190990075494 4.073445838857847 0.023407500902948707 -0.0014391090838074526 -0.02889893844594281 8.88667597456229" Properties=species:S:1:pos:R:3:forces:R:3 structure_index=16 total_energy=-26.7637939453125 stress="-0.0030852744821459055 -0.0003783766587730497 0.0009812923381105065 -0.0003786003217101097 -0.007464773952960968 -0.0023315681610256433 0.0009812271455302835 -0.002331649186089635 -0.02459331415593624" pbc="T T T"
Li       2.80665836       0.68143290       1.50219474       0.00010509       0.00149108       0.00109793
Li       0.46585850       2.03057645       5.24263188      -0.00034524       0.00061876      -0.02578134
Li      -1.87497724       3.39844978       3.34242562       0.00081055       0.00377986      -0.00547349
Li       0.46473987       2.02202722       8.36535012       0.00170480      -0.00309187      -0.00613991
Li       2.80698630       0.65983707       7.34354107      -0.00227025      -0.00164698       0.01246826
Ga       0.46598027       2.04175038       2.34295011       0.00002254      -0.00164114      -0.01496606
Sn      -1.87491548       3.38386993       6.34496740       0.00125942       0.00499140       0.03448312
Sn      -1.87387186       3.40810361       0.45342151      -0.00098335       0.00332509       0.02740708
Sn       2.80640018       0.67558982       4.33364519      -0.00030357      -0.00782619      -0.02309556
10
Lattice="4.504545206349948 0.003319452452470715 0.00030293316386606803 -2.2560027702740593 3.8993594606720263 2.8076197602208996e-05 -0.0009051909122217772 -0.0005335145694135977 11.640762393388759" Properties=species:S:1:pos:R:3:forces:R:3 structure_index=17 total_energy=-28.917268753051758 stress="0.01293597649782896 -9.598689211998135e-05 4.005969094578177e-05 -9.604619117453694e-05 0.012955409474670887 -2.1823168935952708e-05 4.00967983296141e-05 -2.197708272433374e-05 0.009590166620910168" pbc="T T T"
Li       1.14697078       1.24162319       6.69960245      -0.00015778       0.00004363       0.00611817
Li       1.14478865       3.84253985       5.42364796      -0.00044446      -0.00004760       0.00822143
Li       1.14661767       1.24131618       9.72743717      -0.00010872       0.00013462      -0.00696092
Li       1.14373968       3.84248644       2.39506363       0.00049233       0.00000563      -0.00323403
Li       1.14413659       3.84193126      11.00938468      -0.00030361      -0.00001842      -0.01652045
Ga       1.14704864       1.24165624       1.11157212      -0.00056394       0.00045836      -0.00861528
Ga       1.14688784       1.24196600       3.66311839      -0.00012981      -0.00023797       0.01357289
Sn      -1.10717905       2.53990066      11.76954304       0.00035080      -0.00019031       0.01946708
Sn       1.14339419       3.84222004       8.21731493       0.00094498      -0.00007446      -0.00523260
Sn      -1.10643462       2.54059814       4.63621191      -0.00007979      -0.00007354      -0.00681630
10
Lattice="4.513723766558135 8.137632514307555e-05 0.0015764076879009594 -2.257488657505573 3.9091673740040265 -0.0010959109936771792 -0.003271699207773896 0.0004699825677424829 9.800825237613905" Properties=species:S:1:pos:R:3:forces:R:3 structure_index=18 total_energy=-25.467599868774414 stress="-0.030644692480564117 9.536510333418846e-05 0.00018004042794927955 9.536434663459659e-05 -0.030319038778543472 -2.4221297280746512e-05 0.00018024815653916448 -2.4127897631842643e-05 -0.006563136819750071" pbc="T T T"
Li       2.92640411       2.56853842       7.68919099       0.00003420      -0.00011358      -0.02352894
Li       0.66950003       1.26552929       9.58156638      -0.00008302      -0.00013048      -0.00202925
Li       0.66918430       3.87123928       5.88251102       0.00059182      -0.00040379      -0.00872241