phonopy:
  version: "2.37.1"
  frequency_unit_conversion_factor: 15.633302
  symmetry_tolerance: 1.00000e-05

space_group:
  type: "P1"
  number: 1
  Hall_symbol: "P 1"

primitive_matrix:
- [ -1.000000000000000, -1.000000000000000, -0.000000000000000 ]
- [  0.000000000000000,  1.000000000000000, -0.000000000000000 ]
- [  0.000000000000000,  0.000000000000000, -1.000000000000000 ]

supercell_matrix:
- [   3,   0,   0 ]
- [   0,   2,   0 ]
- [   0,   0,   2 ]

primitive_cell:
  lattice:
  - [    -4.347221389910976,     0.000000000000000,     0.000000000000000 ] # a
  - [    -2.173478423345875,     4.811934104571474,     0.000000000000000 ] # b
  - [    -2.172065115938305,    -0.466145035620613,    -7.918524272641351 ] # c
  points:
  - symbol: Li # 1
    coordinates: [  0.980038461027904,  0.950451930818557,  0.275991908949325 ]
    mass: 6.940000
  - symbol: Li # 2
    coordinates: [  0.266383087944233,  0.103571658198260,  0.550168073786149 ]
    mass: 6.940000
  - symbol: Li # 3
    coordinates: [  0.351986293983991,  0.350385065582455,  0.131836518300423 ]
    mass: 6.940000
  - symbol: Li # 4
    coordinates: [  0.305401265903400,  0.724419434962399,  0.851201534771279 ]
    mass: 6.940000
  - symbol: Ga # 5
    coordinates: [  0.667927543740340,  0.760823992373098,  0.089619155381606 ]
    mass: 69.723000
  - symbol: Ga # 6
    coordinates: [  0.981340655275929,  0.358972621237745,  0.864725013756706 ]
    mass: 69.723000
  - symbol: Ga # 7
    coordinates: [  0.948895870442265,  0.689803693745410,  0.599210744723894 ]
    mass: 69.723000
  - symbol: Ga # 8
    coordinates: [  0.638974793471444,  0.082511340012800,  0.825981465368552 ]
    mass: 69.723000
  - symbol: Sn # 9
    coordinates: [  0.627016743315208,  0.531644448349024,  0.400724572951446 ]
    mass: 118.710000
  reciprocal_lattice: # without 2pi
  - [    -0.230031992923295,    -0.103901999161428,     0.069214647781309 ] # a*
  - [    -0.000000000000000,     0.207816644673079,    -0.012233680657946 ] # b*
  - [    -0.000000000000000,     0.000000000000000,    -0.126286157062752 ] # c*

unit_cell:
  lattice:
  - [     4.347221389910977,     0.000000000000000,     0.000000000000000 ] # a
  - [     2.173742966565100,     4.811934104571474,     0.000000000000000 ] # b
  - [     2.172065115938305,     0.466145035620613,     7.918524272641353 ] # c
  points:
  - symbol: Li # 1
    coordinates: [  0.069509608153539,  0.950451930818557,  0.724008091050675 ]
    mass: 6.940000
    reduced_to: 1
  - symbol: Li # 2
    coordinates: [  0.630045253857507,  0.103571658198260,  0.449831926213851 ]
    mass: 6.940000
    reduced_to: 2
  - symbol: Li # 3
    coordinates: [  0.297628640433555,  0.350385065582455,  0.868163481699577 ]
    mass: 6.940000
    reduced_to: 3
  - symbol: Li # 4
    coordinates: [  0.970179299134202,  0.724419434962399,  0.148798465228721 ]
    mass: 6.940000
    reduced_to: 4
  - symbol: Ga # 5
    coordinates: [  0.571248463886563,  0.760823992373098,  0.910380844618393 ]
    mass: 69.723000
    reduced_to: 5
  - symbol: Ga # 6
    coordinates: [  0.659686723486327,  0.358972621237745,  0.135274986243294 ]
    mass: 69.723000
    reduced_to: 6
  - symbol: Ga # 7
    coordinates: [  0.361300435812325,  0.689803693745410,  0.400789255276106 ]
    mass: 69.723000
    reduced_to: 7
  - symbol: Ga # 8
    coordinates: [  0.278513866515756,  0.082511340012800,  0.174018534631448 ]
    mass: 69.723000
    reduced_to: 8
  - symbol: Sn # 9
    coordinates: [  0.841338808335768,  0.531644448349024,  0.599275427048553 ]
    mass: 118.710000
    reduced_to: 9

supercell:
  lattice:
  - [    13.041664169732929,     0.000000000000000,     0.000000000000000 ] # a
  - [     4.347485933130200,     9.623868209142948,     0.000000000000000 ] # b
  - [     4.344130231876610,     0.932290071241227,    15.837048545282705 ] # c
  points:
  - symbol: Li # 1
    coordinates: [  0.023169869384513,  0.475225965409278,  0.362004045525337 ]
    mass: 6.940000
    reduced_to: 1
  - symbol: Li # 2
    coordinates: [  0.356503202717846,  0.475225965409278,  0.362004045525337 ]
    mass: 6.940000
    reduced_to: 1
  - symbol: Li # 3
    coordinates: [  0.689836536051180,  0.475225965409278,  0.362004045525337 ]
    mass: 6.940000
    reduced_to: 1
  - symbol: Li # 4
    coordinates: [  0.023169869384513,  0.975225965409278,  0.362004045525337 ]
    mass: 6.940000
    reduced_to: 1
  - symbol: Li # 5
    coordinates: [  0.356503202717846,  0.975225965409278,  0.362004045525337 ]
    mass: 6.940000
    reduced_to: 1
  - symbol: Li # 6
    coordinates: [  0.689836536051180,  0.975225965409278,  0.362004045525337 ]
    mass: 6.940000
    reduced_to: 1
  - symbol: Li # 7
    coordinates: [  0.023169869384513,  0.475225965409278,  0.862004045525337 ]
    mass: 6.940000
    reduced_to: 1
  - symbol: Li # 8
    coordinates: [  0.356503202717846,  0.475225965409278,  0.862004045525337 ]
    mass: 6.940000
    reduced_to: 1
  - symbol: Li # 9
    coordinates: [  0.689836536051180,  0.475225965409278,  0.862004045525337 ]
    mass: 6.940000
    reduced_to: 1
  - symbol: Li # 10
    coordinates: [  0.023169869384513,  0.975225965409278,  0.862004045525337 ]
    mass: 6.940000
    reduced_to: 1
  - symbol: Li # 11
    coordinates: [  0.356503202717846,  0.975225965409278,  0.862004045525337 ]
    mass: 6.940000
    reduced_to: 1
  - symbol: Li # 12
    coordinates: [  0.689836536051180,  0.975225965409278,  0.862004045525337 ]
    mass: 6.940000
    reduced_to: 1
  - symbol: Li # 13
    coordinates: [  0.210015084619169,  0.051785829099130,  0.224915963106926 ]
    mass: 6.940000
    reduced_to: 13
  - symbol: Li # 14
    coordinates: [  0.543348417952502,  0.051785829099130,  0.224915963106926 ]
    mass: 6.940000
    reduced_to: 13
  - symbol: Li # 15
    coordinates: [  0.876681751285835,  0.051785829099130,  0.224915963106926 ]
    mass: 6.940000
    reduced_to: 13
  - symbol: Li # 16
    coordinates: [  0.210015084619169,  0.551785829099130,  0.224915963106926 ]
    mass: 6.940000
    reduced_to: 13
  - symbol: Li # 17
    coordinates: [  0.543348417952502,  0.551785829099130,  0.224915963106926 ]
    mass: 6.940000
    reduced_to: 13
  - symbol: Li # 18
    coordinates: [  0.876681751285835,  0.551785829099130,  0.224915963106926 ]
    mass: 6.940000
    reduced_to: 13
  - symbol: Li # 19
    coordinates: [  0.210015084619169,  0.051785829099130,  0.724915963106926 ]
    mass: 6.940000
    reduced_to: 13
  - symbol: Li # 20
    coordinates: [  0.543348417952502,  0.051785829099130,  0.724915963106926 ]
    mass: 6.940000
    reduced_to: 13
  - symbol: Li # 21
    coordinates: [  0.876681751285835,  0.051785829099130,  0.724915963106926 ]
    mass: 6.940000
    reduced_to: 13
  - symbol: Li # 22
    coordinates: [  0.210015084619169,  0.551785829099130,  0.724915963106926 ]
    mass: 6.940000
    reduced_to: 13
  - symbol: Li # 23
    coordinates: [  0.543348417952502,  0.551785829099130,  0.724915963106926 ]
    mass: 6.940000
    reduced_to: 13
  - symbol: Li # 24
    coordinates: [  0.876681751285835,  0.551785829099130,  0.724915963106926 ]
    mass: 6.940000
    reduced_to: 13
  - symbol: Li # 25
    coordinates: [  0.099209546811185,  0.175192532791227,  0.434081740849788 ]
    mass: 6.940000
    reduced_to: 25
  - symbol: Li # 26
    coordinates: [  0.432542880144518,  0.175192532791227,  0.434081740849788 ]
    mass: 6.940000
    reduced_to: 25
  - symbol: Li # 27
    coordinates: [  0.765876213477852,  0.175192532791227,  0.434081740849788 ]
    mass: 6.940000
    reduced_to: 25
  - symbol: Li # 28
    coordinates: [  0.099209546811185,  0.675192532791227,  0.434081740849788 ]
    mass: 6.940000
    reduced_to: 25
  - symbol: Li # 29
    coordinates: [  0.432542880144518,  0.675192532791227,  0.434081740849788 ]
    mass: 6.940000
    reduced_to: 25
  - symbol: Li # 30
    coordinates: [  0.765876213477852,  0.675192532791227,  0.434081740849788 ]
    mass: 6.940000
    reduced_to: 25
  - symbol: Li # 31
    coordinates: [  0.099209546811185,  0.175192532791227,  0.934081740849788 ]
    mass: 6.940000
    reduced_to: 25
  - symbol: Li # 32
    coordinates: [  0.432542880144518,  0.175192532791227,  0.934081740849788 ]
    mass: 6.940000
    reduced_to: 25
  - symbol: Li # 33
    coordinates: [  0.765876213477852,  0.175192532791227,  0.934081740849788 ]
    mass: 6.940000
    reduced_to: 25
  - symbol: Li # 34
    coordinates: [  0.099209546811185,  0.675192532791227,  0.934081740849788 ]
    mass: 6.940000
    reduced_to: 25
  - symbol: Li # 35
    coordinates: [  0.432542880144518,  0.675192532791227,  0.934081740849788 ]
    mass: 6.940000
    reduced_to: 25
  - symbol: Li # 36
    coordinates: [  0.765876213477852,  0.675192532791227,  0.934081740849788 ]
    mass: 6.940000
    reduced_to: 25
  - symbol: Li # 37
    coordinates: [  0.323393099711401,  0.362209717481199,  0.074399232614361 ]
    mass: 6.940000
    reduced_to: 37
  - symbol: Li # 38
    coordinates: [  0.656726433044734,  0.362209717481199,  0.074399232614361 ]
    mass: 6.940000
    reduced_to: 37
  - symbol: Li # 39
    coordinates: [  0.990059766378067,  0.362209717481199,  0.074399232614361 ]
    mass: 6.940000
    reduced_to: 37
  - symbol: Li # 40
    coordinates: [  0.323393099711401,  0.862209717481199,  0.074399232614361 ]
    mass: 6.940000
    reduced_to: 37
  - symbol: Li # 41
    coordinates: [  0.656726433044734,  0.862209717481199,  0.074399232614361 ]
    mass: 6.940000
    reduced_to: 37
  - symbol: Li # 42
    coordinates: [  0.990059766378067,  0.862209717481199,  0.074399232614361 ]
    mass: 6.940000
    reduced_to: 37
  - symbol: Li # 43
    coordinates: [  0.323393099711401,  0.362209717481199,  0.574399232614361 ]
    mass: 6.940000
    reduced_to: 37
  - symbol: Li # 44
    coordinates: [  0.656726433044734,  0.362209717481199,  0.574399232614361 ]
    mass: 6.940000
    reduced_to: 37
  - symbol: Li # 45
    coordinates: [  0.990059766378067,  0.362209717481199,  0.574399232614361 ]
    mass: 6.940000
    reduced_to: 37
  - symbol: Li # 46
    coordinates: [  0.323393099711401,  0.862209717481199,  0.574399232614361 ]
    mass: 6.940000
    reduced_to: 37
  - symbol: Li # 47
    coordinates: [  0.656726433044734,  0.862209717481199,  0.574399232614361 ]
    mass: 6.940000
    reduced_to: 37
  - symbol: Li # 48
    coordinates: [  0.990059766378067,  0.862209717481199,  0.574399232614361 ]
    mass: 6.940000
    reduced_to: 37
  - symbol: Ga # 49
    coordinates: [  0.190416154628854,  0.380411996186549,  0.455190422309197 ]
    mass: 69.723000
    reduced_to: 49
  - symbol: Ga # 50
    coordinates: [  0.523749487962188,  0.380411996186549,  0.455190422309197 ]
    mass: 69.723000
    reduced_to: 49
  - symbol: Ga # 51
    coordinates: [  0.857082821295521,  0.380411996186549,  0.455190422309197 ]
    mass: 69.723000
    reduced_to: 49
  - symbol: Ga # 52
    coordinates: [  0.190416154628854,  0.880411996186549,  0.455190422309197 ]
    mass: 69.723000
    reduced_to: 49
  - symbol: Ga # 53
    coordinates: [  0.523749487962188,  0.880411996186549,  0.455190422309197 ]
    mass: 69.723000
    reduced_to: 49
  - symbol: Ga # 54
    coordinates: [  0.857082821295521,  0.880411996186549,  0.455190422309197 ]
    mass: 69.723000
    reduced_to: 49
  - symbol: Ga # 55
    coordinates: [  0.190416154628854,  0.380411996186549,  0.955190422309197 ]
    mass: 69.723000
    reduced_to: 49
  - symbol: Ga # 56
    coordinates: [  0.523749487962188,  0.380411996186549,  0.955190422309197 ]
    mass: 69.723000
    reduced_to: 49
  - symbol: Ga # 57
    coordinates: [  0.857082821295521,  0.380411996186549,  0.955190422309197 ]
    mass: 69.723000
    reduced_to: 49
  - symbol: Ga # 58
    coordinates: [  0.190416154628854,  0.880411996186549,  0.955190422309197 ]
    mass: 69.723000
    reduced_to: 49
  - symbol: Ga # 59
    coordinates: [  0.523749487962188,  0.880411996186549,  0.955190422309197 ]
    mass: 69.723000
    reduced_to: 49
  - symbol: Ga # 60
    coordinates: [  0.857082821295521,  0.880411996186549,  0.955190422309197 ]
    mass: 69.723000
    reduced_to: 49
  - symbol: Ga # 61
    coordinates: [  0.219895574495442,  0.179486310618872,  0.067637493121647 ]
    mass: 69.723000
    reduced_to: 61
  - symbol: Ga # 62
    coordinates: [  0.553228907828776,  0.179486310618872,  0.067637493121647 ]
    mass: 69.723000
    reduced_to: 61
  - symbol: Ga # 63
    coordinates: [  0.886562241162109,  0.179486310618872,  0.067637493121647 ]
    mass: 69.723000
    reduced_to: 61
  - symbol: Ga # 64
    coordinates: [  0.219895574495442,  0.679486310618872,  0.067637493121647 ]
    mass: 69.723000
    reduced_to: 61
  - symbol: Ga # 65
    coordinates: [  0.553228907828776,  0.679486310618872,  0.067637493121647 ]
    mass: 69.723000
    reduced_to: 61
  - symbol: Ga # 66
    coordinates: [  0.886562241162109,  0.679486310618872,  0.067637493121647 ]
    mass: 69.723000
    reduced_to: 61
  - symbol: Ga # 67
    coordinates: [  0.219895574495442,  0.179486310618872,  0.567637493121647 ]
    mass: 69.723000
    reduced_to: 61
  - symbol: Ga # 68
    coordinates: [  0.553228907828776,  0.179486310618872,  0.567637493121647 ]
    mass: 69.723000
    reduced_to: 61
  - symbol: Ga # 69
    coordinates: [  0.886562241162109,  0.179486310618872,  0.567637493121647 ]
    mass: 69.723000
    reduced_to: 61
  - symbol: Ga # 70
    coordinates: [  0.219895574495442,  0.679486310618872,  0.567637493121647 ]
    mass: 69.723000
    reduced_to: 61
  - symbol: Ga # 71
    coordinates: [  0.553228907828776,  0.679486310618872,  0.567637493121647 ]
    mass: 69.723000
    reduced_to: 61
  - symbol: Ga # 72
    coordinates: [  0.886562241162109,  0.679486310618872,  0.567637493121647 ]
    mass: 69.723000
    reduced_to: 61
  - symbol: Ga # 73
    coordinates: [  0.120433478604108,  0.344901846872705,  0.200394627638053 ]
    mass: 69.723000
    reduced_to: 73
  - symbol: Ga # 74
    coordinates: [  0.453766811937442,  0.344901846872705,  0.200394627638053 ]
    mass: 69.723000
    reduced_to: 73
  - symbol: Ga # 75
    coordinates: [  0.787100145270775,  0.344901846872705,  0.200394627638053 ]
    mass: 69.723000
    reduced_to: 73
  - symbol: Ga # 76
    coordinates: [  0.120433478604108,  0.844901846872705,  0.200394627638053 ]
    mass: 69.723000
    reduced_to: 73
  - symbol: Ga # 77
    coordinates: [  0.453766811937442,  0.844901846872705,  0.200394627638053 ]
    mass: 69.723000
    reduced_to: 73
  - symbol: Ga # 78
    coordinates: [  0.787100145270775,  0.844901846872705,  0.200394627638053 ]
    mass: 69.723000
    reduced_to: 73
  - symbol: Ga # 79
    coordinates: [  0.120433478604108,  0.344901846872705,  0.700394627638053 ]
    mass: 69.723000
    reduced_to: 73
  - symbol: Ga # 80
    coordinates: [  0.453766811937442,  0.344901846872705,  0.700394627638053 ]
    mass: 69.723000
    reduced_to: 73
  - symbol: Ga # 81
    coordinates: [  0.787100145270775,  0.344901846872705,  0.700394627638053 ]
    mass: 69.723000
    reduced_to: 73
  - symbol: Ga # 82
    coordinates: [  0.120433478604108,  0.844901846872705,  0.700394627638053 ]
    mass: 69.723000
    reduced_to: 73
  - symbol: Ga # 83
    coordinates: [  0.453766811937442,  0.844901846872705,  0.700394627638053 ]
    mass: 69.723000
    reduced_to: 73
  - symbol: Ga # 84
    coordinates: [  0.787100145270775,  0.844901846872705,  0.700394627638053 ]
    mass: 69.723000
    reduced_to: 73
  - symbol: Ga # 85
    coordinates: [  0.092837955505252,  0.041255670006400,  0.087009267315724 ]
    mass: 69.723000
    reduced_to: 85
  - symbol: Ga # 86
    coordinates: [  0.426171288838585,  0.041255670006400,  0.087009267315724 ]
    mass: 69.723000
    reduced_to: 85
  - symbol: Ga # 87
    coordinates: [  0.759504622171918,  0.041255670006400,  0.087009267315724 ]
    mass: 69.723000
    reduced_to: 85
  - symbol: Ga # 88
    coordinates: [  0.092837955505252,  0.541255670006400,  0.087009267315724 ]
    mass: 69.723000
    reduced_to: 85
  - symbol: Ga # 89
    coordinates: [  0.426171288838585,  0.541255670006400,  0.087009267315724 ]
    mass: 69.723000
    reduced_to: 85
  - symbol: Ga # 90
    coordinates: [  0.759504622171918,  0.541255670006400,  0.087009267315724 ]
    mass: 69.723000
    reduced_to: 85
  - symbol: Ga # 91
    coordinates: [  0.092837955505252,  0.041255670006400,  0.587009267315724 ]
    mass: 69.723000
    reduced_to: 85
  - symbol: Ga # 92
    coordinates: [  0.426171288838585,  0.041255670006400,  0.587009267315724 ]
    mass: 69.723000
    reduced_to: 85
  - symbol: Ga # 93
    coordinates: [  0.759504622171918,  0.041255670006400,  0.587009267315724 ]
    mass: 69.723000
    reduced_to: 85
  - symbol: Ga # 94
    coordinates: [  0.092837955505252,  0.541255670006400,  0.587009267315724 ]
    mass: 69.723000
    reduced_to: 85
  - symbol: Ga # 95
    coordinates: [  0.426171288838585,  0.541255670006400,  0.587009267315724 ]
    mass: 69.723000
    reduced_to: 85
  - symbol: Ga # 96
    coordinates: [  0.759504622171918,  0.541255670006400,  0.587009267315724 ]
    mass: 69.723000
    reduced_to: 85
  - symbol: Sn # 97
    coordinates: [  0.280446269445256,  0.265822224174512,  0.299637713524277 ]
    mass: 118.710000
    reduced_to: 97
  - symbol: Sn # 98
    coordinates: [  0.613779602778589,  0.265822224174512,  0.299637713524277 ]
    mass: 118.710000
    reduced_to: 97
  - symbol: Sn # 99
    coordinates: [  0.947112936111922,  0.265822224174512,  0.299637713524277 ]
    mass: 118.710000
    reduced_to: 97
  - symbol: Sn # 100
    coordinates: [  0.280446269445256,  0.765822224174512,  0.299637713524277 ]
    mass: 118.710000
    reduced_to: 97
  - symbol: Sn # 101
    coordinates: [  0.613779602778589,  0.765822224174512,  0.299637713524277 ]
    mass: 118.710000
    reduced_to: 97
  - symbol: Sn # 102
    coordinates: [  0.947112936111922,  0.765822224174512,  0.299637713524277 ]
    mass: 118.710000
    reduced_to: 97
  - symbol: Sn # 103
    coordinates: [  0.280446269445256,  0.265822224174512,  0.799637713524277 ]
    mass: 118.710000
    reduced_to: 97
  - symbol: Sn # 104
    coordinates: [  0.613779602778589,  0.265822224174512,  0.799637713524277 ]
    mass: 118.710000
    reduced_to: 97
  - symbol: Sn # 105
    coordinates: [  0.947112936111922,  0.265822224174512,  0.799637713524277 ]
    mass: 118.710000
    reduced_to: 97
  - symbol: Sn # 106
    coordinates: [  0.280446269445256,  0.765822224174512,  0.799637713524277 ]
    mass: 118.710000
    reduced_to: 97
  - symbol: Sn # 107
    coordinates: [  0.613779602778589,  0.765822224174512,  0.799637713524277 ]
    mass: 118.710000
    reduced_to: 97
  - symbol: Sn # 108
    coordinates: [  0.947112936111922,  0.765822224174512,  0.799637713524277 ]
    mass: 118.710000
    reduced_to: 97

displacements:
- atom:    1
  displacement:
    [   0.0100000000000000,  0.0000000000000000,  0.0000000000000000 ]
  forces:
  - [  -0.0187591779977083, -0.0379061736166477,  0.0218129307031631 ]
  - [   0.0012309869052842, -0.0378066562116146,  0.0214412286877632 ]
  - [   0.0012455377727747, -0.0382179990410805,  0.0223988369107246 ]
  - [   0.0005814470350742, -0.0379524603486061,  0.0219550430774689 ]
  - [   0.0006165858358145, -0.0380060896277428,  0.0218783132731915 ]
  - [   0.0006169583648443, -0.0380816608667374,  0.0219333097338676 ]
  - [   0.0006158866453916, -0.0380232222378254,  0.0219237431883812 ]
  - [   0.0006186648388393, -0.0380146801471710,  0.0219223052263260 ]
  - [   0.0006189133273438, -0.0380077138543129,  0.0219149105250835 ]
  - [   0.0006154375150800, -0.0380141809582710,  0.0219216495752335 ]
  - [   0.0006189085543156, -0.0380168333649635,  0.0219212509691715 ]
  - [   0.0006170332198963, -0.0380152575671673,  0.0219183564186096 ]
  - [   0.0000732867920306,  0.0212670583277941, -0.0287618823349476 ]
  - [  -0.0000620320279268,  0.0212981794029474, -0.0287912786006927 ]
  - [  -0.0000152904976858,  0.0212599039077759, -0.0287590753287077 ]
  - [   0.0009556496515870,  0.0215248931199312, -0.0298497602343559 ]
  - [  -0.0000214613974094,  0.0212714150547981, -0.0287704356014729 ]
  - [   0.0009413161315024,  0.0210248455405235, -0.0277045927941799 ]
  - [  -0.0000685756604071,  0.0212702676653862, -0.0286698527634144 ]
  - [  -0.0000787600365584,  0.0212704706937075, -0.0287693236023188 ]
  - [  -0.0000758976966608,  0.0212710779160261, -0.0288665741682053 ]
  - [  -0.0000758795067668,  0.0212529879063368, -0.0288091413676739 ]
  - [  -0.0000758385285735,  0.0212894454598427, -0.0287317838519812 ]
  - [  -0.0000749790779082,  0.0212707482278347, -0.0287684462964535 ]
  - [  -0.0004468874831218,  0.0577949024736881, -0.0426223129034042 ]
  - [  -0.0004667181055993,  0.0577896460890770, -0.0425686836242676 ]
  - [  -0.0004637844103854,  0.0577921606600285, -0.0426609739661217 ]
  - [   0.0004269475175533,  0.0584603771567345, -0.0421716868877411 ]
  - [  -0.0004478556511458,  0.0577858723700047, -0.0426173545420170 ]
  - [   0.0004197119269520,  0.0571309551596642, -0.0430565848946571 ]
  - [  -0.0004955098265782,  0.0577909015119076, -0.0426256991922855 ]
  - [  -0.0004865979135502,  0.0577913038432598, -0.0426123589277267 ]
  - [  -0.0004956315970048,  0.0577891990542412, -0.0426132231950760 ]
  - [  -0.0004966529086232,  0.0577916540205479, -0.0426159575581551 ]
  - [  -0.0004899017512798,  0.0577885545790195, -0.0426086410880089 ]
  - [  -0.0004905467503704,  0.0577915087342262, -0.0426273047924042 ]
  - [   0.0000443315802841, -0.0019505955278873,  0.0469203814864159 ]
  - [   0.0000514333223691, -0.0019071605056524,  0.0469629690051079 ]
  - [   0.0000427301565651, -0.0018645566888154,  0.0470094978809357 ]
  - [   0.0000351125127054, -0.0018972712568939,  0.0469479262828827 ]
  - [   0.0000380864876206, -0.0019211317412555,  0.0469749122858047 ]
  - [  -0.0000011758020264, -0.0019048694521189,  0.0469680577516556 ]
  - [  -0.0004547145217657, -0.0019453219138086,  0.0467022210359573 ]
  - [  -0.0004583795380313, -0.0018752738833427,  0.0472244620323181 ]
  - [   0.0004156391078141, -0.0019061882048845,  0.0469604805111885 ]
  - [   0.0000068608133006, -0.0019417321309447,  0.0469597801566124 ]
  - [   0.0000512619881192, -0.0018434347584844,  0.0470608696341515 ]
  - [   0.0000648178247502, -0.0019442387856543,  0.0468662902712822 ]
  - [   0.0045235063880682,  0.0944758132100105,  0.0800969526171684 ]
  - [  -0.0003651059814729,  0.0965278446674347,  0.0755753293633461 ]
  - [   0.0043753357604146,  0.0985044986009598,  0.0711847916245461 ]
  - [  -0.0004697101248894,  0.0965034514665604,  0.0755757316946983 ]
  - [  -0.0004721252189483,  0.0965428650379181,  0.0755965858697891 ]
  - [  -0.0005386479315348,  0.0965290069580078,  0.0755552053451538 ]
  - [  -0.0004362340550870,  0.0965273007750511,  0.0755751281976700 ]
  - [  -0.0004325622576289,  0.0965349301695824,  0.0755823031067848 ]
  - [  -0.0004326405469328,  0.0965172275900841,  0.0755688324570656 ]
  - [  -0.0004380978352856,  0.0965251326560974,  0.0755888894200325 ]
  - [  -0.0004315508413129,  0.0965274870395660,  0.0755777209997177 ]
  - [  -0.0004322266322561,  0.0965269207954407,  0.0755594372749329 ]
  - [  -0.0008376014884561, -0.1227925419807434, -0.1161954998970032 ]
  - [  -0.0011114113731310, -0.1227288022637367, -0.1160803884267807 ]
  - [  -0.0011150159407407, -0.1228472143411636, -0.1163145154714584 ]
  - [  -0.0010431513655931, -0.1228258460760117, -0.1161600276827812 ]
  - [  -0.0010849698446691, -0.1227840557694435, -0.1161964237689972 ]
  - [  -0.0010424393694848, -0.1227587610483170, -0.1162331998348236 ]
  - [  -0.0008514387300238, -0.1224774122238159, -0.1161934062838554 ]
  - [  -0.0011006082640961, -0.1227812170982361, -0.1161966621875763 ]
  - [  -0.0008574052480981, -0.1230957880616188, -0.1162059158086777 ]
  - [  -0.0009766435250640, -0.1226822733879089, -0.1161740794777870 ]
  - [  -0.0009796698577702, -0.1228850185871124, -0.1162227913737297 ]
  - [  -0.0011835019104183, -0.1227843463420868, -0.1161974146962166 ]
  - [   0.0017091634217650,  0.0126351155340672,  0.0122898835688829 ]
  - [   0.0026471866294742,  0.0124734975397587,  0.0122520318254828 ]
  - [   0.0026505612768233,  0.0127901434898376,  0.0123024843633175 ]
  - [   0.0027171340771019,  0.0129467174410820,  0.0121119208633900 ]
  - [   0.0025559852365404,  0.0127073489129543,  0.0123074585571885 ]
  - [   0.0027350587770343,  0.0122402422130108,  0.0124133117496967 ]
  - [   0.0026445104740560,  0.0125405862927437,  0.0124139338731766 ]
  - [   0.0026371306739748,  0.0126339606940746,  0.0122837256640196 ]
  - [   0.0026411928702146,  0.0127227306365967,  0.0121505623683333 ]
  - [   0.0026471856981516,  0.0126328766345978,  0.0122727882117033 ]
  - [   0.0026334235444665,  0.0126449987292290,  0.0122803598642349 ]
  - [   0.0026201158761978,  0.0126216672360897,  0.0122938500717282 ]
  - [   0.0008921531261876,  0.1168014109134674,  0.0688366591930389 ]
  - [   0.0008876989595592,  0.1168824285268784,  0.0689401850104332 ]
  - [   0.0008955388329923,  0.1168683320283890,  0.0688868314027786 ]
  - [   0.0008477872470394,  0.1168526858091354,  0.0688888654112816 ]
  - [   0.0008302545174956,  0.1167926341295242,  0.0689634084701538 ]
  - [   0.0008321596542373,  0.1169081628322601,  0.0688135325908661 ]
  - [   0.0009166105883196,  0.1168161183595657,  0.0688810348510742 ]
  - [   0.0008746271487325,  0.1168934404850006,  0.0688881501555443 ]
  - [   0.0008810620638542,  0.1168365702033043,  0.0688907578587532 ]
  - [   0.0008954948280007,  0.1165793091058731,  0.0691159218549728 ]
  - [   0.0008690454997122,  0.1168475449085236,  0.0688870996236801 ]
  - [   0.0008946197340265,  0.1171136498451233,  0.0686533823609352 ]
  - [  -0.0000751882325858, -0.1438996195793152, -0.0390599966049194 ]
  - [  -0.0023492758627981, -0.1423536688089371, -0.0380455330014229 ]
  - [  -0.0001222420250997, -0.1408706605434418, -0.0370510146021843 ]
  - [  -0.0020367586985230, -0.1421859860420227, -0.0381056368350983 ]
  - [  -0.0020211830269545, -0.1425487399101257, -0.0379853099584579 ]
  - [  -0.0010221989359707, -0.1423696279525757, -0.0380254052579403 ]
  - [  -0.0021207649260759, -0.1423545181751251, -0.0380463115870953 ]
  - [  -0.0021200878545642, -0.1423659324645996, -0.0380495600402355 ]
  - [  -0.0020365826785564, -0.1423586606979370, -0.0380353331565857 ]
  - [  -0.0020900035742670, -0.1423630565404892, -0.0380442813038826 ]
  - [  -0.0020979377441108, -0.1423718631267548, -0.0380619987845421 ]
  - [  -0.0020907465368509, -0.1423425227403641, -0.0380210727453232 ]
- atom:    1
  displacement:
    [  -0.0100000000000000,  0.0000000000000000,  0.0000000000000000 ]
  forces:
  - [   0.0199954658746719, -0.0378957465291023,  0.0218099206686020 ]
  - [  -0.0000107181840576, -0.0382173582911491,  0.0224007144570351 ]
  - [   0.0000040706945583, -0.0378058180212975,  0.0214423947036266 ]
  - [   0.0006540557369590, -0.0380746200680733,  0.0218907594680786 ]
  - [   0.0006167609244585, -0.0380209572613239,  0.0219651609659195 ]
  - [   0.0006170691922307, -0.0379448644816875,  0.0219114497303963 ]
  - [   0.0006185942329466, -0.0380072146654129,  0.0219163000583649 ]
  - [   0.0006173608126119, -0.0380156338214874,  0.0219185501337051 ]
  - [   0.0006174999871291, -0.0380231887102127,  0.0219264030456543 ]
  - [   0.0006201742216945, -0.0380176827311516,  0.0219191871583462 ]
  - [   0.0006163939833641, -0.0380140393972397,  0.0219189971685410 ]
  - [   0.0006147326785140, -0.0380148217082024,  0.0219225734472275 ]
  - [  -0.0002223903138656,  0.0212859697639942, -0.0287784151732922 ]
  - [  -0.0000897926511243,  0.0212515071034431, -0.0287510491907597 ]
  - [  -0.0001323049946222,  0.0212894752621651, -0.0287814494222403 ]
  - [  -0.0010927096009254,  0.0210251789540052, -0.0277071967720985 ]
  - [  -0.0001302976161242,  0.0212729163467884, -0.0287693124264479 ]
  - [  -0.0011048307642341,  0.0215234719216824, -0.0298519507050514 ]
  - [  -0.0000799353219918,  0.0212706401944160, -0.0288661457598209 ]
  - [  -0.0000700442687958,  0.0212710276246071, -0.0287692770361900 ]
  - [  -0.0000732665575924,  0.0212703403085470, -0.0286697968840599 ]
  - [  -0.0000732699409127,  0.0212892312556505, -0.0287303607910872 ]
  - [  -0.0000741705298424,  0.0212524402886629, -0.0288071017712355 ]
  - [  -0.0000760175025789,  0.0212711356580257, -0.0287706572562456 ]
  - [  -0.0005361975636333,  0.0577981770038605, -0.0426199585199356 ]
  - [  -0.0005127673503011,  0.0577900186181068, -0.0426618494093418 ]
  - [  -0.0005255758296698,  0.0577879734337330, -0.0425693951547146 ]
  - [  -0.0014043193077669,  0.0571283586323261, -0.0430557616055012 ]
  - [  -0.0005364441312850,  0.0577935464680195, -0.0426168814301491 ]
  - [  -0.0014116619713604,  0.0584576502442360, -0.0421720892190933 ]
  - [  -0.0004895510501228,  0.0577897951006889, -0.0426085442304611 ]
  - [  -0.0004984386032447,  0.0577894970774651, -0.0426228567957878 ]
  - [  -0.0004898836486973,  0.0577923916280270, -0.0426205694675446 ]
  - [  -0.0004899948835373,  0.0577904209494591, -0.0426194369792938 ]
  - [  -0.0004947371780872,  0.0577925406396389, -0.0426251739263535 ]
  - [  -0.0004925417015329,  0.0577888973057270, -0.0426070317625999 ]
  - [   0.0000020030129235, -0.0018642251379788,  0.0470076091587543 ]
  - [  -0.0000100512625067, -0.0019078482873738,  0.0469642691314220 ]
  - [  -0.0000008001588867, -0.0019500171765685,  0.0469192117452621 ]
  - [   0.0000118110256153, -0.0019184667617083,  0.0469798110425472 ]
  - [   0.0000101649930002, -0.0018933280371130,  0.0469532646238804 ]
  - [   0.0000498340741615, -0.0019112154841423,  0.0469585619866848 ]
  - [   0.0005040914402343, -0.0018732268363237,  0.0472244136035442 ]
  - [   0.0005031042383052, -0.0019434629939497,  0.0467018820345402 ]
  - [  -0.0003761484404095, -0.0019093030132353,  0.0469586774706841 ]
  - [   0.0000358565157512, -0.0018762452527881,  0.0469654649496078 ]