phonopy:
  version: "2.37.1"
  frequency_unit_conversion_factor: 15.633302
  symmetry_tolerance: 1.00000e-05

space_group:
  type: "R-3m"
  number: 166
  Hall_symbol: "-R 3 2\""

primitive_matrix:
- [  0.000000000000000,  0.000000000000000, -1.000000000000000 ]
- [ -0.000000000000000, -1.000000000000000,  0.000000000000000 ]
- [ -1.000000000000000,  0.000000000000000,  0.000000000000000 ]

supercell_matrix:
- [   2,   0,   0 ]
- [   0,   2,   0 ]
- [   0,   0,   2 ]

primitive_cell:
  lattice:
  - [    -5.663584346797463,    -1.959045129400673,    -3.996241717238744 ] # a
  - [    -5.663584483950264,    -4.450595958912396,     0.000000000000000 ] # b
  - [    -7.203054514904792,     0.000000000000000,     0.000000000000000 ] # c
  points:
  - symbol: Li # 1
    coordinates: [  0.500000002893448,  0.500000002020747,  0.499999998565034 ]
    mass: 6.940000
  - symbol: Li # 2
    coordinates: [  0.353642417008740,  0.353642421460014,  0.353642420273323 ]
    mass: 6.940000
  - symbol: Li # 3
    coordinates: [  0.646357577416537,  0.646357579137543,  0.646357581341650 ]
    mass: 6.940000
  - symbol: Li # 4
    coordinates: [  0.213857783789923,  0.213857781150569,  0.213857785189991 ]
    mass: 6.940000
  - symbol: Li # 5
    coordinates: [  0.786142214041306,  0.786142218213854,  0.786142218765141 ]
    mass: 6.940000
  - symbol: Sn # 6
    coordinates: [  0.073763338384647,  0.073763331207030,  0.073763331383207 ]
    mass: 118.710000
  - symbol: Sn # 7
    coordinates: [  0.926236666444062,  0.926236667004486,  0.926236664395641 ]
    mass: 118.710000
  reciprocal_lattice: # without 2pi
  - [    -0.000000000000000,    -0.000000000000000,    -0.250235113578406 ] # a*
  - [    -0.000000000000000,    -0.224689010018418,     0.110147469010105 ] # b*
  - [    -0.138829991905624,     0.176667438545865,     0.110147462331154 ] # c*

unit_cell:
  lattice:
  - [     7.203054514904793,     0.000000000000000,     0.000000000000000 ] # a
  - [     5.663584483950264,     4.450595958912396,     0.000000000000000 ] # b
  - [     5.663584346797463,     1.959045129400673,     3.996241717238744 ] # c
  points:
  - symbol: Li # 1
    coordinates: [  0.500000001434966,  0.499999997979253,  0.499999997106552 ]
    mass: 6.940000
    reduced_to: 1
  - symbol: Li # 2
    coordinates: [  0.646357579726676,  0.646357578539986,  0.646357582991260 ]
    mass: 6.940000
    reduced_to: 2
  - symbol: Li # 3
    coordinates: [  0.353642418658349,  0.353642420862457,  0.353642422583463 ]
    mass: 6.940000
    reduced_to: 3
  - symbol: Li # 4
    coordinates: [  0.786142214810009,  0.786142218849431,  0.786142216210077 ]
    mass: 6.940000
    reduced_to: 4
  - symbol: Li # 5
    coordinates: [  0.213857781234858,  0.213857781786146,  0.213857785958694 ]
    mass: 6.940000
    reduced_to: 5
  - symbol: Sn # 6
    coordinates: [  0.926236668616793,  0.926236668792970,  0.926236661615353 ]
    mass: 118.710000
    reduced_to: 6
  - symbol: Sn # 7
    coordinates: [  0.073763335604359,  0.073763332995514,  0.073763333555938 ]
    mass: 118.710000
    reduced_to: 7

supercell:
  lattice:
  - [    14.406109029809587,     0.000000000000000,     0.000000000000000 ] # a
  - [    11.327168967900528,     8.901191917824791,     0.000000000000000 ] # b
  - [    11.327168693594926,     3.918090258801346,     7.992483434477488 ] # c
  points:
  - symbol: Li # 1
    coordinates: [  0.250000000717483,  0.249999998989626,  0.249999998553276 ]
    mass: 6.940000
    reduced_to: 1
  - symbol: Li # 2
    coordinates: [  0.750000000717483,  0.249999998989626,  0.249999998553276 ]
    mass: 6.940000
    reduced_to: 1
  - symbol: Li # 3
    coordinates: [  0.250000000717483,  0.749999998989626,  0.249999998553276 ]
    mass: 6.940000
    reduced_to: 1
  - symbol: Li # 4
    coordinates: [  0.750000000717483,  0.749999998989626,  0.249999998553276 ]
    mass: 6.940000
    reduced_to: 1
  - symbol: Li # 5
    coordinates: [  0.250000000717483,  0.249999998989626,  0.749999998553276 ]
    mass: 6.940000
    reduced_to: 1
  - symbol: Li # 6
    coordinates: [  0.750000000717483,  0.249999998989626,  0.749999998553276 ]
    mass: 6.940000
    reduced_to: 1
  - symbol: Li # 7
    coordinates: [  0.250000000717483,  0.749999998989626,  0.749999998553276 ]
    mass: 6.940000
    reduced_to: 1
  - symbol: Li # 8
    coordinates: [  0.750000000717483,  0.749999998989626,  0.749999998553276 ]
    mass: 6.940000
    reduced_to: 1
  - symbol: Li # 9
    coordinates: [  0.323178789863338,  0.323178789269993,  0.323178791495630 ]
    mass: 6.940000
    reduced_to: 9
  - symbol: Li # 10
    coordinates: [  0.823178789863338,  0.323178789269993,  0.323178791495630 ]
    mass: 6.940000
    reduced_to: 9
  - symbol: Li # 11
    coordinates: [  0.323178789863338,  0.823178789269993,  0.323178791495630 ]
    mass: 6.940000
    reduced_to: 9
  - symbol: Li # 12
    coordinates: [  0.823178789863338,  0.823178789269993,  0.323178791495630 ]
    mass: 6.940000
    reduced_to: 9
  - symbol: Li # 13
    coordinates: [  0.323178789863338,  0.323178789269993,  0.823178791495630 ]
    mass: 6.940000
    reduced_to: 9
  - symbol: Li # 14
    coordinates: [  0.823178789863338,  0.323178789269993,  0.823178791495630 ]
    mass: 6.940000
    reduced_to: 9
  - symbol: Li # 15
    coordinates: [  0.323178789863338,  0.823178789269993,  0.823178791495630 ]
    mass: 6.940000
    reduced_to: 9
  - symbol: Li # 16
    coordinates: [  0.823178789863338,  0.823178789269993,  0.823178791495630 ]
    mass: 6.940000
    reduced_to: 9
  - symbol: Li # 17
    coordinates: [  0.176821209329175,  0.176821210431228,  0.176821211291732 ]
    mass: 6.940000
    reduced_to: 17
  - symbol: Li # 18
    coordinates: [  0.676821209329175,  0.176821210431228,  0.176821211291732 ]
    mass: 6.940000
    reduced_to: 17
  - symbol: Li # 19
    coordinates: [  0.176821209329175,  0.676821210431228,  0.176821211291732 ]
    mass: 6.940000
    reduced_to: 17
  - symbol: Li # 20
    coordinates: [  0.676821209329175,  0.676821210431228,  0.176821211291732 ]
    mass: 6.940000
    reduced_to: 17
  - symbol: Li # 21
    coordinates: [  0.176821209329175,  0.176821210431228,  0.676821211291732 ]
    mass: 6.940000
    reduced_to: 17
  - symbol: Li # 22
    coordinates: [  0.676821209329175,  0.176821210431228,  0.676821211291732 ]
    mass: 6.940000
    reduced_to: 17
  - symbol: Li # 23
    coordinates: [  0.176821209329175,  0.676821210431228,  0.676821211291732 ]
    mass: 6.940000
    reduced_to: 17
  - symbol: Li # 24
    coordinates: [  0.676821209329175,  0.676821210431228,  0.676821211291732 ]
    mass: 6.940000
    reduced_to: 17
  - symbol: Li # 25
    coordinates: [  0.393071107405004,  0.393071109424716,  0.393071108105039 ]
    mass: 6.940000
    reduced_to: 25
  - symbol: Li # 26
    coordinates: [  0.893071107405004,  0.393071109424716,  0.393071108105039 ]
    mass: 6.940000
    reduced_to: 25
  - symbol: Li # 27
    coordinates: [  0.393071107405004,  0.893071109424716,  0.393071108105039 ]
    mass: 6.940000
    reduced_to: 25
  - symbol: Li # 28
    coordinates: [  0.893071107405004,  0.893071109424716,  0.393071108105039 ]
    mass: 6.940000
    reduced_to: 25
  - symbol: Li # 29
    coordinates: [  0.393071107405004,  0.393071109424716,  0.893071108105039 ]
    mass: 6.940000
    reduced_to: 25
  - symbol: Li # 30
    coordinates: [  0.893071107405004,  0.393071109424716,  0.893071108105039 ]
    mass: 6.940000
    reduced_to: 25
  - symbol: Li # 31
    coordinates: [  0.393071107405004,  0.893071109424716,  0.893071108105039 ]
    mass: 6.940000
    reduced_to: 25
  - symbol: Li # 32
    coordinates: [  0.893071107405004,  0.893071109424716,  0.893071108105039 ]
    mass: 6.940000
    reduced_to: 25
  - symbol: Li # 33
    coordinates: [  0.106928890617429,  0.106928890893073,  0.106928892979347 ]
    mass: 6.940000
    reduced_to: 33
  - symbol: Li # 34
    coordinates: [  0.606928890617429,  0.106928890893073,  0.106928892979347 ]
    mass: 6.940000
    reduced_to: 33
  - symbol: Li # 35
    coordinates: [  0.106928890617429,  0.606928890893073,  0.106928892979347 ]
    mass: 6.940000
    reduced_to: 33
  - symbol: Li # 36
    coordinates: [  0.606928890617429,  0.606928890893073,  0.106928892979347 ]
    mass: 6.940000
    reduced_to: 33
  - symbol: Li # 37
    coordinates: [  0.106928890617429,  0.106928890893073,  0.606928892979347 ]
    mass: 6.940000
    reduced_to: 33
  - symbol: Li # 38
    coordinates: [  0.606928890617429,  0.106928890893073,  0.606928892979347 ]
    mass: 6.940000
    reduced_to: 33
  - symbol: Li # 39
    coordinates: [  0.106928890617429,  0.606928890893073,  0.606928892979347 ]
    mass: 6.940000
    reduced_to: 33
  - symbol: Li # 40
    coordinates: [  0.606928890617429,  0.606928890893073,  0.606928892979347 ]
    mass: 6.940000
    reduced_to: 33
  - symbol: Sn # 41
    coordinates: [  0.463118334308397,  0.463118334396485,  0.463118330807677 ]
    mass: 118.710000
    reduced_to: 41
  - symbol: Sn # 42
    coordinates: [  0.963118334308397,  0.463118334396485,  0.463118330807677 ]
    mass: 118.710000
    reduced_to: 41
  - symbol: Sn # 43
    coordinates: [  0.463118334308397,  0.963118334396485,  0.463118330807677 ]
    mass: 118.710000
    reduced_to: 41
  - symbol: Sn # 44
    coordinates: [  0.963118334308397,  0.963118334396485,  0.463118330807677 ]
    mass: 118.710000
    reduced_to: 41
  - symbol: Sn # 45
    coordinates: [  0.463118334308397,  0.463118334396485,  0.963118330807677 ]
    mass: 118.710000
    reduced_to: 41
  - symbol: Sn # 46
    coordinates: [  0.963118334308397,  0.463118334396485,  0.963118330807677 ]
    mass: 118.710000
    reduced_to: 41
  - symbol: Sn # 47
    coordinates: [  0.463118334308397,  0.963118334396485,  0.963118330807677 ]
    mass: 118.710000
    reduced_to: 41
  - symbol: Sn # 48
    coordinates: [  0.963118334308397,  0.963118334396485,  0.963118330807677 ]
    mass: 118.710000
    reduced_to: 41
  - symbol: Sn # 49
    coordinates: [  0.036881667802179,  0.036881666497757,  0.036881666777969 ]
    mass: 118.710000
    reduced_to: 49
  - symbol: Sn # 50
    coordinates: [  0.536881667802179,  0.036881666497757,  0.036881666777969 ]
    mass: 118.710000
    reduced_to: 49
  - symbol: Sn # 51
    coordinates: [  0.036881667802179,  0.536881666497757,  0.036881666777969 ]
    mass: 118.710000
    reduced_to: 49
  - symbol: Sn # 52
    coordinates: [  0.536881667802179,  0.536881666497757,  0.036881666777969 ]
    mass: 118.710000
    reduced_to: 49
  - symbol: Sn # 53
    coordinates: [  0.036881667802179,  0.036881666497757,  0.536881666777969 ]
    mass: 118.710000
    reduced_to: 49
  - symbol: Sn # 54
    coordinates: [  0.536881667802179,  0.036881666497757,  0.536881666777969 ]
    mass: 118.710000
    reduced_to: 49
  - symbol: Sn # 55
    coordinates: [  0.036881667802179,  0.536881666497757,  0.536881666777969 ]
    mass: 118.710000
    reduced_to: 49
  - symbol: Sn # 56
    coordinates: [  0.536881667802179,  0.536881666497757,  0.536881666777969 ]
    mass: 118.710000
    reduced_to: 49

displacements:
- atom:    1
  displacement:
    [   0.0100000000000000,  0.0000000000000000,  0.0000000000000000 ]
  forces:
  - [  -0.0122549673542380,  0.0001253875670955,  0.0000781218404882 ]
  - [  -0.0000731074833311,  0.0000091512920335,  0.0000056392455008 ]
  - [  -0.0000290128518827, -0.0000451846281067, -0.0000038682628656 ]
  - [  -0.0000959321623668, -0.0001642501156311, -0.0001993734767893 ]
  - [  -0.0000291951000690, -0.0000241398811340, -0.0000384440645576 ]
  - [  -0.0000951944384724, -0.0002515087544452, -0.0000595929741394 ]
  - [  -0.0003548180684447,  0.0000757519155741,  0.0000477125868201 ]
  - [  -0.0001608963357285, -0.0000419148709625, -0.0000261201785179 ]
  - [  -0.0069373548030853, -0.0023332387208939, -0.0014562727883458 ]
  - [  -0.0109561830759048, -0.0037434566766024, -0.0023347642272711 ]
  - [  -0.0109626874327660, -0.0038155652582645, -0.0023020822554827 ]
  - [  -0.0109831318259239, -0.0038149990141392, -0.0021714968606830 ]
  - [  -0.0109605155885220, -0.0037449132651091, -0.0024124700576067 ]
  - [  -0.0109841749072075, -0.0036267377436161, -0.0024690032005310 ]
  - [  -0.0108511783182621, -0.0040758717805147, -0.0025407848879695 ]
  - [  -0.0114525333046913, -0.0037739854305983, -0.0023527573794127 ]
  - [   0.0149308890104294,  0.0052195992320776,  0.0032543297857046 ]
  - [   0.0110105723142624,  0.0038562808185816,  0.0024038106203079 ]
  - [   0.0110059119760990,  0.0037817358970642,  0.0024355398491025 ]
  - [   0.0109878294169903,  0.0037827566266060,  0.0025662351399660 ]
  - [   0.0110054723918438,  0.0038517676293850,  0.0023248475044966 ]
  - [   0.0109864249825478,  0.0039694048464298,  0.0022679967805743 ]
  - [   0.0111204981803894,  0.0035296175628901,  0.0022007906809449 ]
  - [   0.0105099827051163,  0.0038260109722614,  0.0023852623999119 ]
  - [   0.0062964148819447,  0.0021896269172430,  0.0013651154004037 ]
  - [   0.0082772076129913, -0.0001263879239559, -0.0000788015313447 ]
  - [   0.0059653427451849,  0.0028482326306403,  0.0010569496080279 ]
  - [   0.0063689928501844,  0.0022007105872035,  0.0013975617475808 ]
  - [   0.0059615168720484,  0.0022020852193236,  0.0020925360731781 ]
  - [   0.0063668116927147,  0.0022227428853512,  0.0013618199154735 ]
  - [   0.0064106602221727,  0.0021965876221657,  0.0013694823719561 ]
  - [   0.0069761462509632,  0.0024275695905089,  0.0015141353942454 ]
  - [  -0.0065648928284645, -0.0022572204470634, -0.0014077415689826 ]
  - [  -0.0045605450868607, -0.0046067009679973, -0.0028719636611640 ]
  - [  -0.0068859253078699, -0.0015991888940334, -0.0017040041275322 ]
  - [  -0.0064787026494741, -0.0022422280162573, -0.0013738968409598 ]
  - [  -0.0068856813013554, -0.0022336803376675, -0.0006868187338114 ]
  - [  -0.0064802151173353, -0.0022205086424947, -0.0014094542711973 ]
  - [  -0.0064368993043900, -0.0022470327094197, -0.0014017648063600 ]
  - [  -0.0058674551546574, -0.0020086085423827, -0.0012527303770185 ]
  - [   0.0271837152540684,  0.0093970373272896,  0.0058584576472640 ]
  - [   0.0280379131436348,  0.0089847128838301,  0.0056019644252956 ]
  - [   0.0271608941257000,  0.0100771859288216,  0.0052149123512208 ]
  - [   0.0275397412478924,  0.0095362868160009,  0.0058502159081399 ]
  - [   0.0271673034876585,  0.0091184126213193,  0.0067544816993177 ]
  - [   0.0275413841009140,  0.0094508649781346,  0.0059888628311455 ]
  - [   0.0273556429892778,  0.0094622205942869,  0.0059018814936280 ]
  - [   0.0268018767237663,  0.0094188060611486,  0.0058746160939336 ]
  - [  -0.0271078478544950, -0.0093810362741351, -0.0058499835431576 ]
  - [  -0.0262611191719770, -0.0097936512902379, -0.0061068031936884 ]
  - [  -0.0271688252687454, -0.0086713116616011, -0.0065240231342614 ]
  - [  -0.0267463307827711, -0.0092406114563346, -0.0058578480966389 ]
  - [  -0.0271694995462894, -0.0096751749515533, -0.0049167913384736 ]
  - [  -0.0267440937459469, -0.0093264300376177, -0.0057192994281650 ]
  - [  -0.0269374288618565, -0.0093154227361083, -0.0058081150054932 ]
  - [  -0.0274927690625191, -0.0093595739454031, -0.0058361962437630 ]
- atom:    9
  displacement:
    [   0.0100000000000000,  0.0000000000000000,  0.0000000000000000 ]
  forces:
  - [   0.0039454018697143,  0.0014205692568794,  0.0008855070336722 ]
  - [   0.0000227877753787, -0.0000204585958272, -0.0000133150169859 ]
  - [   0.0000218357890844,  0.0000587429385632,  0.0000300150422845 ]
  - [   0.0000033191172406, -0.0000146426609717, -0.0001106279523810 ]
  - [   0.0000216141343117,  0.0000519827008247,  0.0000400058925152 ]
  - [   0.0000040485756472, -0.0001062109076884,  0.0000356020318577 ]
  - [   0.0001318091526628,  0.0000038081780076,  0.0000028843060136 ]
  - [  -0.0004797927103937,  0.0000267169962171,  0.0000167470134329 ]
  - [  -0.0266425162553787, -0.0011616647243500, -0.0007256269454956 ]
  - [  -0.0109306648373604, -0.0038105491548777, -0.0023769428953528 ]
  - [  -0.0109691321849823, -0.0037643741816282, -0.0023772949352860 ]
  - [  -0.0108993053436279, -0.0036084260791540, -0.0026361597701907 ]
  - [  -0.0109666809439659, -0.0037896595895290, -0.0023331968113780 ]
  - [  -0.0109003521502018, -0.0039530191570520, -0.0020788479596376 ]
  - [  -0.0110471472144127, -0.0037618838250637, -0.0023451158776879 ]
  - [  -0.0110029205679893, -0.0038069672882557, -0.0023733712732792 ]
  - [   0.0108746103942394,  0.0037756413221359,  0.0023540714755654 ]
  - [   0.0128835067152977,  0.0012555476278067,  0.0007826276123524 ]
  - [   0.0106702558696270,  0.0040720384567976,  0.0022371560335159 ]
  - [   0.0110239498317242,  0.0038064494729042,  0.0023798262700438 ]
  - [   0.0106697082519531,  0.0038012210279703,  0.0026725325733423 ]
  - [   0.0110224708914757,  0.0038123037666082,  0.0023712096735835 ]
  - [   0.0110238194465637,  0.0038132984191179,  0.0023777773603797 ]
  - [   0.0116013512015343,  0.0041445866227150,  0.0025839805603027 ]
  - [   0.0115522574633360,  0.0042126411572099,  0.0026265517808497 ]
  - [   0.0065195281058550,  0.0022299196571112,  0.0013904413208365 ]
  - [   0.0065222438424826,  0.0022118985652924,  0.0014588334597647 ]
  - [   0.0063872169703245,  0.0022155158221722,  0.0015770788304508 ]
  - [   0.0065184216946363,  0.0022828122600913,  0.0013443999923766 ]
  - [   0.0063849445432425,  0.0023904768750072,  0.0012960550375283 ]
  - [   0.0065054334700108,  0.0019593844190240,  0.0012215576134622 ]
  - [   0.0063082538545132,  0.0022142603993416,  0.0013811588287354 ]
  - [  -0.0064110681414604, -0.0022177137434483, -0.0013829134404659 ]
  - [  -0.0061385817825794, -0.0022219857200980, -0.0013851122930646 ]
  - [  -0.0060763768851757, -0.0022211037576199, -0.0012508509680629 ]
  - [  -0.0061393436044455, -0.0021138293668628, -0.0014554904773831 ]
  - [  -0.0060763023793697, -0.0021006679162383, -0.0014452515169978 ]
  - [  -0.0061407145112753, -0.0022371169179678, -0.0012582647614181 ]
  - [  -0.0062888935208321, -0.0021487418562174, -0.0013405089266598 ]
  - [  -0.0071506090462208, -0.0019763074815273, -0.0012328536249697 ]
  - [   0.0269892439246178,  0.0093864202499390,  0.0058522359468043 ]
  - [   0.0315911471843719,  0.0052074622362852,  0.0032469350844622 ]
  - [   0.0270442608743906,  0.0099014304578304,  0.0054009365849197 ]
  - [   0.0272222440689802,  0.0093816928565502,  0.0058480380102992 ]
  - [   0.0270509384572506,  0.0092083197087049,  0.0065147317945957 ]
  - [   0.0272236578166485,  0.0093809403479099,  0.0058510396629572 ]
  - [   0.0272476989775896,  0.0094574438408017,  0.0058986870571971 ]
  - [   0.0272484701126814,  0.0094322282820940,  0.0058831786736846 ]
  - [  -0.0273404140025377, -0.0093246102333069, -0.0058145802468061 ]
  - [  -0.0271782167255878, -0.0093632061034441, -0.0058381929993629 ]
  - [  -0.0271832644939423, -0.0094620427116752, -0.0058387345634401 ]
  - [  -0.0274074375629425, -0.0096271419897676, -0.0053792484104633 ]
  - [  -0.0271838698536158, -0.0094080241397023, -0.0059282435104251 ]
  - [  -0.0274053774774075, -0.0090666729956865, -0.0062772305682302 ]
  - [  -0.0271734595298767, -0.0104590076953173, -0.0065212436020374 ]
  - [  -0.0271040108054876, -0.0093696657568216, -0.0058425776660442 ]
- atom:    9
  displacement:
    [  -0.0100000000000000,  0.0000000000000000,  0.0000000000000000 ]
  forces:
  - [  -0.0040477123111486, -0.0014648508513346, -0.0009135324507952 ]
  - [  -0.0000308695598505,  0.0000241725938395,  0.0000145672092913 ]
  - [  -0.0000221528462134, -0.0000656574848108, -0.0000273892073892 ]
  - [  -0.0000014131655917,  0.0000163937220350,  0.0001104111579480 ]
  - [  -0.0000222399830818, -0.0000541573390365, -0.0000465540215373 ]
  - [  -0.0000007682247087,  0.0001060398935806, -0.0000336897210218 ]
  - [  -0.0001364424824715, -0.0000026756897569, -0.0000011436641216 ]
  - [   0.0004636510275304, -0.0000240621739067, -0.0000149816187331 ]
  - [   0.0047167241573334, -0.0065320637077093, -0.0040745725855231 ]
  - [  -0.0110377483069897, -0.0037873592227697, -0.0023626089096069 ]
  - [  -0.0110015869140625, -0.0038359053432941, -0.0023619476705790 ]
  - [  -0.0110719092190266, -0.0039928369224072, -0.0021001556888223 ]
  - [  -0.0109992101788521, -0.0038073845207691, -0.0024043172597885 ]
  - [  -0.0110729150474072, -0.0036408100277185, -0.0026600556448102 ]
  - [  -0.0109176449477673, -0.0038343314081430, -0.0023902663961053 ]
  - [  -0.0109671875834465, -0.0037883911281824, -0.0023617688566446 ]
  - [   0.0110881216824055,  0.0038213115185499,  0.0023823203518987 ]
  - [   0.0090981014072895,  0.0063140615820885,  0.0039363913238049 ]
  - [   0.0113000832498074,  0.0035121217370033,  0.0025061937049031 ]
  - [   0.0109458118677139,  0.0037911646068096,  0.0023588128387928 ]
  - [   0.0112995728850365,  0.0037966128438711,  0.0020513609051704 ]
  - [   0.0109443552792072,  0.0037867240607738,  0.0023669665679336 ]
  - [   0.0109473392367363,  0.0037855524569750,  0.0023605320602655 ]
  - [   0.0103754810988903,  0.0034580882638693,  0.0021559828892350 ]
  - [   0.0014074873179197,  0.0002796594053507,  0.0001744134351611 ]
  - [   0.0063319616019726,  0.0022119032219052,  0.0013791527599096 ]
  - [   0.0063257310539484,  0.0022335927933455,  0.0013109478168190 ]
  - [   0.0064578931778669,  0.0022301115095615,  0.0011970167979598 ]
  - [   0.0063219629228115,  0.0021595973521471,  0.0014288397505879 ]
  - [   0.0064559597522020,  0.0020556673407555,  0.0014765420928597 ]
  - [   0.0063438434153795,  0.0024759946390986,  0.0015436713583767 ]
  - [   0.0065413024276495,  0.0022287005558610,  0.0013900571502745 ]
  - [  -0.0064402800053358, -0.0022240709513426, -0.0013870364055037 ]
  - [  -0.0067124478518963, -0.0022201295942068, -0.0013840897008777 ]
  - [  -0.0067884791642427, -0.0022130506113172, -0.0015286901034415 ]
  - [  -0.0067111402750015, -0.0023292554542422, -0.0013160016387701 ]
  - [  -0.0067886095494032, -0.0023466395214200, -0.0013155709020793 ]
  - [  -0.0067126192152500, -0.0022067409008741, -0.0015131551772356 ]
  - [  -0.0065554548054934, -0.0022967252880335, -0.0014327578246593 ]
  - [  -0.0056997090578079, -0.0024646092206240, -0.0015373122878373 ]
  - [   0.0273117404431105,  0.0093972887843847,  0.0058589633554220 ]
  - [   0.0226051174104214,  0.0136787546798587,  0.0085289888083935 ]
  - [   0.0272488892078400,  0.0089134275913239,  0.0062895030714571 ]
  - [   0.0270638111978769,  0.0093946829438210,  0.0058598630130291 ]
  - [   0.0272557120770216,  0.0095709832385182,  0.0052367942407727 ]
  - [   0.0270649921149015,  0.0093967160210013,  0.0058575584553182 ]
  - [   0.0270471516996622,  0.0093174017965794,  0.0058116512373090 ]
  - [   0.0270509216934443,  0.0093472506850958,  0.0058300257660449 ]
  - [  -0.0269525181502104, -0.0094551201909781, -0.0058958288282156 ]
  - [  -0.0271132588386536, -0.0094176055863500, -0.0058722961694002 ]
  - [  -0.0271041877567768, -0.0093121901154518, -0.0058703711256385 ]
  - [  -0.0268511511385441, -0.0091420672833920, -0.0063717709854245 ]
  - [  -0.0271053425967693, -0.0093703940510750, -0.0057798279449344 ]
  - [  -0.0268488619476557, -0.0097445044666529, -0.0054044146090746 ]
  - [  -0.0271167047321796, -0.0083199180662632, -0.0051875356584787 ]
  - [  -0.0271831806749105, -0.0094104949384928, -0.0058679170906544 ]
- atom:   25
  displacement:
    [   0.0100000000000000,  0.0000000000000000,  0.0000000000000000 ]
  forces:
  - [  -0.0001391529804096, -0.0000360561534762, -0.0000225511321332 ]
  - [   0.0018582104239613, -0.0023378394544125, -0.0014576243702322 ]
  - [  -0.0004631474730559,  0.0005709885153919, -0.0002991997171193 ]
  - [  -0.0000527687370777, -0.0000207064440474,  0.0000402761361329 ]
  - [  -0.0004632882773876, -0.0000180471688509,  0.0006448356434703 ]
  - [  -0.0000520544126630,  0.0000268098083325, -0.0000361658749171 ]
  - [  -0.0000145044177771, -0.0000502001494169, -0.0000307289883494 ]
  - [   0.0005516378441826,  0.0002065862063318,  0.0001289864885621 ]
  - [  -0.0059666559100151, -0.0018599759787321, -0.0011613182723522 ]
  - [  -0.0108927153050900, -0.0038048978894949, -0.0023733982816339 ]
  - [  -0.0108891725540161, -0.0037992112338543, -0.0023020729422569 ]
  - [  -0.0110200196504593, -0.0038073640316725, -0.0024904282763600 ]
  - [  -0.0108870714902878, -0.0037375185638666, -0.0023975204676390 ]
  - [  -0.0110211968421936, -0.0039095673710108, -0.0023215860128403 ]
  - [  -0.0109047256410122, -0.0037781689316034, -0.0023551527410746 ]
  - [  -0.0111024454236031, -0.0038047116249800, -0.0023718923330307 ]
  - [   0.0109990760684013,  0.0038031842559576,  0.0023710830137134 ]
  - [   0.0112728625535965,  0.0038853790611029,  0.0024219825863838 ]
  - [   0.0113354809582233,  0.0037145838141441,  0.0025448594242334 ]
  - [   0.0112694799900055,  0.0039060264825821,  0.0021827742457390 ]
  - [   0.0113349594175816,  0.0039203576743603,  0.0022160271182656 ]
  - [   0.0112679749727249,  0.0036793053150177,  0.0025474866852164 ]
  - [   0.0111177675426006,  0.0039766617119312,  0.0024796463549137 ]
  - [   0.0102588348090649,  0.0040443930774927,  0.0025216033682227 ]
  - [  -0.0201940946280956,  0.0011953189969063,  0.0007450426928699 ]
  - [   0.0064316000789404,  0.0021933261305094,  0.0013676271773875 ]
  - [   0.0063932593911886,  0.0022422429174185,  0.0013650464825332 ]
  - [   0.0066757854074240,  0.0024485606700182,  0.0010459437035024 ]
  - [   0.0063894167542458,  0.0022118603810668,  0.0014128708280623 ]
  - [   0.0066736657172441,  0.0020162025466561,  0.0017392290756106 ]
  - [   0.0063730459660292,  0.0024056062102318,  0.0014998130500317 ]
  - [   0.0064081903547049,  0.0022151395678520,  0.0013817455619574 ]
  - [  -0.0065773054957390, -0.0022244835272431, -0.0013873185962439 ]
  - [  -0.0064176097512245, -0.0022752936929464, -0.0014185006730258 ]
  - [  -0.0064780805259943, -0.0021984660997987, -0.0014171265065670 ]
  - [  -0.0061067771166563, -0.0022135041654110, -0.0019209790043533 ]
  - [  -0.0064781885594130, -0.0022400515154004, -0.0013516712933779 ]
  - [  -0.0061082150787115, -0.0026990501210093, -0.0011428720317781 ]
  - [  -0.0065521653741598, -0.0021297857165337, -0.0013287318870425 ]
  - [  -0.0062479097396135, -0.0021596364676952, -0.0013471394777298 ]
  - [   0.0382569730281830,  0.0130219841375947,  0.0081185735762119 ]
  - [   0.0279181580990553,  0.0093460008502007,  0.0058270930312574 ]
  - [   0.0275017712265253,  0.0096972137689590,  0.0058579081669450 ]
  - [   0.0271787401288748,  0.0094158872961998,  0.0059357141144574 ]
  - [   0.0275081675499678,  0.0095284339040518,  0.0061305430717766 ]
  - [   0.0271800328046083,  0.0094745270907879,  0.0058429851196706 ]
  - [   0.0272262617945671,  0.0093167247250676,  0.0058112726546824 ]
  - [   0.0272140856832266,  0.0094056595116854,  0.0058664842508733 ]
  - [  -0.0271163824945688, -0.0093463584780693, -0.0058279708027840 ]
  - [  -0.0272514037787914, -0.0094284024089575, -0.0058789122849703 ]
  - [  -0.0272729564458132, -0.0094304811209440, -0.0058950162492692 ]
  - [  -0.0261226687580347, -0.0092223417013884, -0.0042558545246720 ]
  - [  -0.0272739641368389, -0.0094445347785950, -0.0058751585893333 ]
  - [  -0.0261209849268198, -0.0078794751316309, -0.0064082182943821 ]
  - [  -0.0217439178377390, -0.0141646517440677, -0.0088314339518547 ]
  - [  -0.0286639630794525, -0.0098482202738523, -0.0061409324407578 ]
- atom:   25
  displacement:
    [  -0.0100000000000000,  0.0000000000000000,  0.0000000000000000 ]
  forces:
  - [   0.0001289418432862,  0.0000328309834003,  0.0000202263909159 ]
  - [  -0.0018585473299026,  0.0023123244754970,  0.0014415093464777 ]
  - [   0.0004559387452900, -0.0005952642532066,  0.0003073943662457 ]
  - [   0.0000569171970710,  0.0000211436708923, -0.0000382125726901 ]
  - [   0.0004558488726616,  0.0000134212896228, -0.0006693117320538 ]
  - [   0.0000575152225792, -0.0000252795580309,  0.0000359518307960 ]
  - [   0.0000142753124237,  0.0000497298315167,  0.0000314526259899 ]
  - [  -0.0005576013354585, -0.0002128834894393, -0.0001325237390120 ]
  - [  -0.0161122903227806, -0.0057932157069445, -0.0036133583635092 ]
  - [  -0.0110803134739399, -0.0037945248186588, -0.0023671453818679 ]
  - [  -0.0110857561230659, -0.0038058850914240, -0.0024361144751310 ]
  - [  -0.0109492838382721, -0.0037927012890577, -0.0022513316944242 ]
  - [  -0.0110833793878555, -0.0038607828319073, -0.0023444425314665 ]
  - [  -0.0109503418207169, -0.0036886669695377, -0.0024135690182447 ]
  - [  -0.0110663510859013, -0.0038173943758011, -0.0023796921595931 ]
  - [  -0.0108694210648537, -0.0037901680916548, -0.0023629907518625 ]
  - [   0.0109698772430420,  0.0037966314703226,  0.0023670224472880 ]
  - [   0.0106991529464722,  0.0037175510078669,  0.0023174593225121 ]
  - [   0.0106237158179283,  0.0038921255618334,  0.0021836319938302 ]
  - [   0.0106977298855782,  0.0036906022578478,  0.0025562047958374 ]
  - [   0.0106231607496738,  0.0036744065582752,  0.0025346009060740 ]
  - [   0.0106961987912655,  0.0039195846766233,  0.0021897433325648 ]
  - [   0.0108511745929718,  0.0036187805235386,  0.0022564735263586 ]
  - [   0.0117100961506367,  0.0035560540854931,  0.0022169975563884 ]
  - [   0.0327810272574425,  0.0030038864351809,  0.0018725041300058 ]
  - [   0.0064197294414043,  0.0022500110790133,  0.0014028633013368 ]
  - [   0.0064565539360046,  0.0022033033892512,  0.0014054123312235 ]
  - [   0.0061729531735182,  0.0019894866272807,  0.0017287479713559 ]
  - [   0.0064528267830610,  0.0022310419008136,  0.0013600657694042 ]
  - [   0.0061709508299828,  0.0024271644651890,  0.0010264222510159 ]
  - [   0.0064796265214682,  0.0020412942394614,  0.0012727044522762 ]
  - [   0.0064393077045679,  0.0022285096347332,  0.0013900725170970 ]
  - [  -0.0062713176012039, -0.0022195428609848, -0.0013843048363924 ]
  - [  -0.0064336825162172, -0.0021692821756005, -0.0013522715307772 ]