# Thermal properties / unit cell (natom)

unit:
  temperature:   K
  free_energy:   kJ/mol
  entropy:       J/K/mol
  heat_capacity: J/K/mol

natom: 7    
cutoff_frequency: 0.00000
num_modes: 328125
num_integrated_modes: 328123

zero_point_energy:      27.8069380

thermal_properties:
- temperature:         0.0000000
  free_energy:        27.8069380
  entropy:             0.0000000
  heat_capacity:       0.0000000
  energy:             27.8069380

- temperature:        10.0000000
  free_energy:        27.8054728
  entropy:             0.5539893
  heat_capacity:       1.6316577
  energy:             27.8110127

- temperature:        20.0000000
  free_energy:        27.7857599
  entropy:             3.9797317
  heat_capacity:      10.1886029
  energy:             27.8653545

- temperature:        30.0000000
  free_energy:        27.7167029
  entropy:            10.1364351
  heat_capacity:      20.8269321
  energy:             28.0207959

- temperature:        40.0000000
  free_energy:        27.5791343
  entropy:            17.4965640
  heat_capacity:      30.6795146
  energy:             28.2789969

- temperature:        50.0000000
  free_energy:        27.3651761
  entropy:            25.3500012
  heat_capacity:      40.0169487
  energy:             28.6326761

- temperature:        60.0000000
  free_energy:        27.0712778
  entropy:            33.4647704
  heat_capacity:      49.2903309
  energy:             29.0791640

- temperature:        70.0000000
  free_energy:        26.6952699
  entropy:            41.7634500
  heat_capacity:      58.6239131
  energy:             29.6187114

- temperature:        80.0000000
  free_energy:        26.2355530
  entropy:            50.1986307
  heat_capacity:      67.8951992
  energy:             30.2514434

- temperature:        90.0000000
  free_energy:        25.6910133
  entropy:            58.7187949
  heat_capacity:      76.8942428
  energy:             30.9757049

- temperature:       100.0000000
  free_energy:        25.0610840
  entropy:            67.2669369
  heat_capacity:      85.4302910
  energy:             31.7877777

- temperature:       110.0000000
  free_energy:        24.3457692
  entropy:            75.7869068
  heat_capacity:      93.3740217
  energy:             32.6823290

- temperature:       120.0000000
  free_energy:        23.5456072
  entropy:            84.2287818
  heat_capacity:     100.6603181
  energy:             33.6530610

- temperature:       130.0000000
  free_energy:        22.6615917
  entropy:            92.5515439
  heat_capacity:     107.2748703
  energy:             34.6932924

- temperature:       140.0000000
  free_energy:        21.6950796
  entropy:           100.7236028
  heat_capacity:     113.2377695
  energy:             35.7963840

- temperature:       150.0000000
  free_energy:        20.6476991
  entropy:           108.7220697
  heat_capacity:     118.5895289
  energy:             36.9560096

- temperature:       160.0000000
  free_energy:        19.5212691
  entropy:           116.5314820
  heat_capacity:     123.3808764
  energy:             38.1663062

- temperature:       170.0000000
  free_energy:        18.3177316
  entropy:           124.1424005
  heat_capacity:     127.6659795
  energy:             39.4219397

- temperature:       180.0000000
  free_energy:        17.0390988
  entropy:           131.5500998
  heat_capacity:     131.4982885
  energy:             40.7181168

- temperature:       190.0000000
  free_energy:        15.6874111
  entropy:           138.7534395
  heat_capacity:     134.9281970
  energy:             42.0505646

- temperature:       200.0000000
  free_energy:        14.2647064
  entropy:           145.7539374
  heat_capacity:     138.0018895
  energy:             43.4154939

- temperature:       210.0000000
  free_energy:        12.7729972
  entropy:           152.5550327
  heat_capacity:     140.7609252
  energy:             44.8095541

- temperature:       220.0000000
  free_energy:        11.2142546
  entropy:           159.1615119
  heat_capacity:     143.2422546
  energy:             46.2297872

- temperature:       230.0000000
  free_energy:         9.5903968
  entropy:           165.5790688
  heat_capacity:     145.4784745
  energy:             47.6735826

- temperature:       240.0000000
  free_energy:         7.9032821
  entropy:           171.8139723
  heat_capacity:     147.4981975
  energy:             49.1386354

- temperature:       250.0000000
  free_energy:         6.1547042
  entropy:           177.8728180
  heat_capacity:     149.3264646
  energy:             50.6229087

- temperature:       260.0000000
  free_energy:         4.3463901
  entropy:           183.7623448
  heat_capacity:     150.9851566
  energy:             52.1245998

- temperature:       270.0000000
  free_energy:         2.4799992
  entropy:           189.4893013
  heat_capacity:     152.4933838
  energy:             53.6421105

- temperature:       280.0000000
  free_energy:         0.5571238
  entropy:           195.0603500
  heat_capacity:     153.8678404
  energy:             55.1740218

- temperature:       290.0000000
  free_energy:        -1.4207098
  entropy:           200.4820005
  heat_capacity:     155.1231218
  energy:             56.7190703

- temperature:       300.0000000
  free_energy:        -3.4520393
  entropy:           205.7605635
  heat_capacity:     156.2720043
  energy:             58.2761297

- temperature:       310.0000000
  free_energy:        -5.5354644
  entropy:           210.9021215
  heat_capacity:     157.3256880
  energy:             59.8441932

- temperature:       320.0000000
  free_energy:        -7.6696446
  entropy:           215.9125113
  heat_capacity:     158.2940087
  energy:             61.4223591

- temperature:       330.0000000
  free_energy:        -9.8532961
  entropy:           220.7973148
  heat_capacity:     159.1856199
  energy:             63.0098178

- temperature:       340.0000000
  free_energy:       -12.0851900
  entropy:           225.5618567
  heat_capacity:     160.0081499
  energy:             64.6058413

- temperature:       350.0000000
  free_energy:       -14.3641493
  entropy:           230.2112067
  heat_capacity:     160.7683373
  energy:             66.2097731

- temperature:       360.0000000
  free_energy:       -16.6890463
  entropy:           234.7501846
  heat_capacity:     161.4721465
  energy:             67.8210202

- temperature:       370.0000000
  free_energy:       -19.0588003
  entropy:           239.1833679
  heat_capacity:     162.1248683
  energy:             69.4390458

- temperature:       380.0000000
  free_energy:       -21.4723755
  entropy:           243.5151012
  heat_capacity:     162.7312053
  energy:             71.0633630

- temperature:       390.0000000
  free_energy:       -23.9287780
  entropy:           247.7495058
  heat_capacity:     163.2953462
  energy:             72.6935293

- temperature:       400.0000000
  free_energy:       -26.4270542
  entropy:           251.8904899
  heat_capacity:     163.8210297
  energy:             74.3291418

- temperature:       410.0000000
  free_energy:       -28.9662887
  entropy:           255.9417600
  heat_capacity:     164.3115992
  energy:             75.9698329

- temperature:       420.0000000
  free_energy:       -31.5456021
  entropy:           259.9068305
  heat_capacity:     164.7700510
  energy:             77.6152667

- temperature:       430.0000000
  free_energy:       -34.1641491
  entropy:           263.7890348
  heat_capacity:     165.1990754
  energy:             79.2651358

- temperature:       440.0000000
  free_energy:       -36.8211171
  entropy:           267.5915349
  heat_capacity:     165.6010923
  energy:             80.9191582

- temperature:       450.0000000
  free_energy:       -39.5157242
  entropy:           271.3173314
  heat_capacity:     165.9782829
  energy:             82.5770749

- temperature:       460.0000000
  free_energy:       -42.2472176
  entropy:           274.9692724
  heat_capacity:     166.3326164
  energy:             84.2386477

- temperature:       470.0000000
  free_energy:       -45.0148725
  entropy:           278.5500628
  heat_capacity:     166.6658741
  energy:             85.9036570

- temperature:       480.0000000
  free_energy:       -47.8179903
  entropy:           282.0622721
  heat_capacity:     166.9796697
  energy:             87.5719003

- temperature:       490.0000000
  free_energy:       -50.6558975
  entropy:           285.5083427
  heat_capacity:     167.2754681
  energy:             89.2431905

- temperature:       500.0000000
  free_energy:       -53.5279444
  entropy:           288.8905972
  heat_capacity:     167.5546008
  energy:             90.9173542

- temperature:       510.0000000
  free_energy:       -56.4335041
  entropy:           292.2112452
  heat_capacity:     167.8182800
  energy:             92.5942310

- temperature:       520.0000000
  free_energy:       -59.3719710
  entropy:           295.4723903
  heat_capacity:     168.0676116
  energy:             94.2736720

- temperature:       530.0000000
  free_energy:       -62.3427602
  entropy:           298.6760358
  heat_capacity:     168.3036052
  energy:             95.9555388

- temperature:       540.0000000
  free_energy:       -65.3453064
  entropy:           301.8240909
  heat_capacity:     168.5271844
  energy:             97.6397027

- temperature:       550.0000000
  free_energy:       -68.3790628
  entropy:           304.9183758
  heat_capacity:     168.7391952
  energy:             99.3260439

- temperature:       560.0000000
  free_energy:       -71.4435005
  entropy:           307.9606270
  heat_capacity:     168.9404135
  energy:            101.0144506

- temperature:       570.0000000
  free_energy:       -74.5381074
  entropy:           310.9525018
  heat_capacity:     169.1315520
  energy:            102.7048186

- temperature:       580.0000000
  free_energy:       -77.6623879
  entropy:           313.8955830
  heat_capacity:     169.3132662
  energy:            104.3970503

- temperature:       590.0000000
  free_energy:       -80.8158615
  entropy:           316.7913830
  heat_capacity:     169.4861596
  energy:            106.0910545

- temperature:       600.0000000
  free_energy:       -83.9980628
  entropy:           319.6413478
  heat_capacity:     169.6507887
  energy:            107.7867459

- temperature:       610.0000000
  free_energy:       -87.2085403
  entropy:           322.4468602
  heat_capacity:     169.8076671
  energy:            109.4840444

- temperature:       620.0000000
  free_energy:       -90.4468562
  entropy:           325.2092439
  heat_capacity:     169.9572698
  energy:            111.1828750

- temperature:       630.0000000
  free_energy:       -93.7125856
  entropy:           327.9297662
  heat_capacity:     170.1000358
  energy:            112.8831670

- temperature:       640.0000000
  free_energy:       -97.0053160
  entropy:           330.6096411
  heat_capacity:     170.2363722
  energy:            114.5848543

- temperature:       650.0000000
  free_energy:      -100.3246468
  entropy:           333.2500326
  heat_capacity:     170.3666563
  energy:            116.2878743

- temperature:       660.0000000
  free_energy:      -103.6701888
  entropy:           335.8520564
  heat_capacity:     170.4912383
  energy:            117.9921684

- temperature:       670.0000000
  free_energy:      -107.0415637
  entropy:           338.4167833
  heat_capacity:     170.6104438
  energy:            119.6976812

- temperature:       680.0000000
  free_energy:      -110.4384036
  entropy:           340.9452411
  heat_capacity:     170.7245755
  energy:            121.4043604

- temperature:       690.0000000
  free_energy:      -113.8603509
  entropy:           343.4384168
  heat_capacity:     170.8339152
  energy:            123.1121567

- temperature:       700.0000000
  free_energy:      -117.3070575
  entropy:           345.8972587
  heat_capacity:     170.9387258
  energy:            124.8210236

- temperature:       710.0000000
  free_energy:      -120.7781846
  entropy:           348.3226783
  heat_capacity:     171.0392523
  energy:            126.5309169

- temperature:       720.0000000
  free_energy:      -124.2734026
  entropy:           350.7155523
  heat_capacity:     171.1357236
  energy:            128.2417951

- temperature:       730.0000000
  free_energy:      -127.7923900
  entropy:           353.0767242
  heat_capacity:     171.2283536
  energy:            129.9536186

- temperature:       740.0000000
  free_energy:      -131.3348341
  entropy:           355.4070056
  heat_capacity:     171.3173422
  energy:            131.6663500

- temperature:       750.0000000
  free_energy:      -134.9004298
  entropy:           357.7071783
  heat_capacity:     171.4028768
  energy:            133.3799539

- temperature:       760.0000000
  free_energy:      -138.4888798
  entropy:           359.9779953
  heat_capacity:     171.4851327
  energy:            135.0943967

- temperature:       770.0000000
  free_energy:      -142.0998943
  entropy:           362.2201824
  heat_capacity:     171.5642746
  energy:            136.8096462

- temperature:       780.0000000
  free_energy:      -145.7331904
  entropy:           364.4344393
  heat_capacity:     171.6404568
  energy:            138.5256723

- temperature:       790.0000000
  free_energy:      -149.3884922
  entropy:           366.6214407
  heat_capacity:     171.7138242
  energy:            140.2424460

- temperature:       800.0000000
  free_energy:      -153.0655305
  entropy:           368.7818379
  heat_capacity:     171.7845132
  energy:            141.9599398

- temperature:       810.0000000
  free_energy:      -156.7640424
  entropy:           370.9162594
  heat_capacity:     171.8526518
  energy:            143.6781277

- temperature:       820.0000000
  free_energy:      -160.4837711
  entropy:           373.0253121
  heat_capacity:     171.9183608
  energy:            145.3969848

- temperature:       830.0000000
  free_energy:      -164.2244660
  entropy:           375.1095822
  heat_capacity:     171.9817537
  energy:            147.1164872

- temperature:       840.0000000
  free_energy:      -167.9858820
  entropy:           377.1696363
  heat_capacity:     172.0429376
  energy:            148.8366125

- temperature:       850.0000000
  free_energy:      -171.7677798
  entropy:           379.2060221
  heat_capacity:     172.1020135
  energy:            150.5573390

- temperature:       860.0000000
  free_energy:      -175.5699254
  entropy:           381.2192691
  heat_capacity:     172.1590766
  energy:            152.2786460

- temperature:       870.0000000
  free_energy:      -179.3920898
  entropy:           383.2098895
  heat_capacity:     172.2142171
  energy:            154.0005141

- temperature:       880.0000000
  free_energy:      -183.2340494
  entropy:           385.1783791
  heat_capacity:     172.2675199
  energy:            155.7229243

- temperature:       890.0000000
  free_energy:      -187.0955852
  entropy:           387.1252178
  heat_capacity:     172.3190655
  energy:            157.4458586

- temperature:       900.0000000
  free_energy:      -190.9764831
  entropy:           389.0508701
  heat_capacity:     172.3689299
  energy:            159.1693000

- temperature:       910.0000000
  free_energy:      -194.8765335
  entropy:           390.9557861
  heat_capacity:     172.4171852
  energy:            160.8932319

- temperature:       920.0000000
  free_energy:      -198.7955312
  entropy:           392.8404019
  heat_capacity:     172.4638997
  energy:            162.6176385

- temperature:       930.0000000
  free_energy:      -202.7332753
  entropy:           394.7051400
  heat_capacity:     172.5091379
  energy:            164.3425049

- temperature:       940.0000000
  free_energy:      -206.6895691
  entropy:           396.5504103
  heat_capacity:     172.5529612
  energy:            166.0678166

- temperature:       950.0000000
  free_energy:      -210.6642199
  entropy:           398.3766100
  heat_capacity:     172.5954279
  energy:            167.7935596

- temperature:       960.0000000
  free_energy:      -214.6570390
  entropy:           400.1841248
  heat_capacity:     172.6365930
  energy:            169.5197208

- temperature:       970.0000000
  free_energy:      -218.6678414
  entropy:           401.9733286
  heat_capacity:     172.6765091
  energy:            171.2462873

- temperature:       980.0000000
  free_energy:      -222.6964457
  entropy:           403.7445844
  heat_capacity:     172.7152260
  energy:            172.9732470

- temperature:       990.0000000
  free_energy:      -226.7426744
  entropy:           405.4982449
  heat_capacity:     172.7527912
  energy:            174.7005880

- temperature:      1000.0000000
  free_energy:      -230.8063531
  entropy:           407.2346523
  heat_capacity:     172.7892497
  energy:            176.4282991
