phonopy:
  version: "2.37.1"
  frequency_unit_conversion_factor: 15.633302
  symmetry_tolerance: 1.00000e-05

space_group:
  type: "P1"
  number: 1
  Hall_symbol: "P 1"

primitive_matrix:
- [ -1.000000000000000,  0.000000000000000, -0.000000000000000 ]
- [ -1.000000000000000, -1.000000000000000,  0.000000000000000 ]
- [  0.000000000000000,  0.000000000000000,  1.000000000000000 ]

supercell_matrix:
- [   3,   0,   0 ]
- [   0,   3,   0 ]
- [   0,   0,   1 ]

primitive_cell:
  lattice:
  - [    -2.260933845114060,    -3.915843295638940,     0.000000000000000 ] # a
  - [     2.260998894512378,    -3.915843295638940,     0.000000000000000 ] # b
  - [    -0.000273321425717,    -0.003895190561264,    12.859304207679449 ] # c
  points:
  - symbol: Li # 1
    coordinates: [  0.284408475341432,  0.966958890600492,  0.373643656346689 ]
    mass: 6.940000
  - symbol: Li # 2
    coordinates: [  0.284169202781028,  0.966698868125831,  0.853034499635157 ]
    mass: 6.940000
  - symbol: Ga # 3
    coordinates: [  0.618012885491647,  0.300047160100365,  0.270878364160366 ]
    mass: 69.723000
  - symbol: Ga # 4
    coordinates: [  0.950901926748192,  0.633137517226026,  0.956223802950296 ]
    mass: 69.723000
  - symbol: Ga # 5
    coordinates: [  0.951266548257148,  0.633204735943031,  0.754016012219004 ]
    mass: 69.723000
  - symbol: Ga # 6
    coordinates: [  0.617702515877841,  0.300060692625421,  0.475747920136142 ]
    mass: 69.723000
  - symbol: Ga # 7
    coordinates: [  0.617772378417270,  0.300014035034967,  0.708104446019603 ]
    mass: 69.723000
  - symbol: Sn # 8
    coordinates: [  0.951320155349472,  0.633405937840918,  0.205345443864903 ]
    mass: 118.710000
  - symbol: Sn # 9
    coordinates: [  0.951054069009047,  0.633342611384973,  0.538721868719172 ]
    mass: 118.710000
  - symbol: Sn # 10
    coordinates: [  0.617539494688881,  0.299778878292733,  0.022579457503929 ]
    mass: 118.710000
  reciprocal_lattice: # without 2pi
  - [    -0.221144377322740,    -0.127688253820371,    -0.000043378208382 ] # a*
  - [     0.221144377322740,    -0.127684580203324,    -0.000033976354247 ] # b*
  - [     0.000000000000000,    -0.000000000000000,     0.077764705138775 ] # c*

unit_cell:
  lattice:
  - [     4.521932739626439,     0.000000000000000,     0.000000000000000 ] # a
  - [    -2.260998894512378,     3.915843295638940,     0.000000000000000 ] # b
  - [    -0.000273321425717,    -0.003895190561264,    12.859304207679452 ] # c
  points:
  - symbol: Li # 1
    coordinates: [  0.715591524658568,  0.748632634058076,  0.373643656346689 ]
    mass: 6.940000
    reduced_to: 1
  - symbol: Li # 2
    coordinates: [  0.715830797218972,  0.749131929093142,  0.853034499635157 ]
    mass: 6.940000
    reduced_to: 2
  - symbol: Ga # 3
    coordinates: [  0.381987114508352,  0.081939954407987,  0.270878364160366 ]
    mass: 69.723000
    reduced_to: 3
  - symbol: Ga # 4
    coordinates: [  0.049098073251808,  0.415960556025782,  0.956223802950296 ]
    mass: 69.723000
    reduced_to: 4
  - symbol: Ga # 5
    coordinates: [  0.048733451742852,  0.415528715799822,  0.754016012219003 ]
    mass: 69.723000
    reduced_to: 5
  - symbol: Ga # 6
    coordinates: [  0.382297484122159,  0.082236791496738,  0.475747920136142 ]
    mass: 69.723000
    reduced_to: 6
  - symbol: Ga # 7
    coordinates: [  0.382227621582730,  0.082213586547763,  0.708104446019603 ]
    mass: 69.723000
    reduced_to: 7
  - symbol: Sn # 8
    coordinates: [  0.048679844650528,  0.415273906809609,  0.205345443864903 ]
    mass: 118.710000
    reduced_to: 8
  - symbol: Sn # 9
    coordinates: [  0.048945930990953,  0.415603319605980,  0.538721868719172 ]
    mass: 118.710000
    reduced_to: 9
  - symbol: Sn # 10
    coordinates: [  0.382460505311119,  0.082681627018386,  0.022579457503929 ]
    mass: 118.710000
    reduced_to: 10

supercell:
  lattice:
  - [    13.565798218879316,     0.000000000000000,     0.000000000000000 ] # a
  - [    -6.782996683537133,    11.747529886916819,     0.000000000000000 ] # b
  - [    -0.000273321425717,    -0.003895190561264,    12.859304207679452 ] # c
  points:
  - symbol: Li # 1
    coordinates: [  0.238530508219523,  0.249544211352692,  0.373643656346689 ]
    mass: 6.940000
    reduced_to: 1
  - symbol: Li # 2
    coordinates: [  0.571863841552856,  0.249544211352692,  0.373643656346689 ]
    mass: 6.940000
    reduced_to: 1
  - symbol: Li # 3
    coordinates: [  0.905197174886189,  0.249544211352692,  0.373643656346689 ]
    mass: 6.940000
    reduced_to: 1
  - symbol: Li # 4
    coordinates: [  0.238530508219523,  0.582877544686025,  0.373643656346689 ]
    mass: 6.940000
    reduced_to: 1
  - symbol: Li # 5
    coordinates: [  0.571863841552856,  0.582877544686025,  0.373643656346689 ]
    mass: 6.940000
    reduced_to: 1
  - symbol: Li # 6
    coordinates: [  0.905197174886189,  0.582877544686025,  0.373643656346689 ]
    mass: 6.940000
    reduced_to: 1
  - symbol: Li # 7
    coordinates: [  0.238530508219523,  0.916210878019359,  0.373643656346689 ]
    mass: 6.940000
    reduced_to: 1
  - symbol: Li # 8
    coordinates: [  0.571863841552856,  0.916210878019359,  0.373643656346689 ]
    mass: 6.940000
    reduced_to: 1
  - symbol: Li # 9
    coordinates: [  0.905197174886189,  0.916210878019359,  0.373643656346689 ]
    mass: 6.940000
    reduced_to: 1
  - symbol: Li # 10
    coordinates: [  0.238610265739657,  0.249710643031047,  0.853034499635157 ]
    mass: 6.940000
    reduced_to: 10
  - symbol: Li # 11
    coordinates: [  0.571943599072991,  0.249710643031047,  0.853034499635157 ]
    mass: 6.940000
    reduced_to: 10
  - symbol: Li # 12
    coordinates: [  0.905276932406324,  0.249710643031047,  0.853034499635157 ]
    mass: 6.940000
    reduced_to: 10
  - symbol: Li # 13
    coordinates: [  0.238610265739657,  0.583043976364380,  0.853034499635157 ]
    mass: 6.940000
    reduced_to: 10
  - symbol: Li # 14
    coordinates: [  0.571943599072991,  0.583043976364380,  0.853034499635157 ]
    mass: 6.940000
    reduced_to: 10
  - symbol: Li # 15
    coordinates: [  0.905276932406324,  0.583043976364380,  0.853034499635157 ]
    mass: 6.940000
    reduced_to: 10
  - symbol: Li # 16
    coordinates: [  0.238610265739657,  0.916377309697714,  0.853034499635157 ]
    mass: 6.940000
    reduced_to: 10
  - symbol: Li # 17
    coordinates: [  0.571943599072991,  0.916377309697714,  0.853034499635157 ]
    mass: 6.940000
    reduced_to: 10
  - symbol: Li # 18
    coordinates: [  0.905276932406324,  0.916377309697714,  0.853034499635157 ]
    mass: 6.940000
    reduced_to: 10
  - symbol: Ga # 19
    coordinates: [  0.127329038169451,  0.027313318135996,  0.270878364160366 ]
    mass: 69.723000
    reduced_to: 19
  - symbol: Ga # 20
    coordinates: [  0.460662371502784,  0.027313318135996,  0.270878364160366 ]
    mass: 69.723000
    reduced_to: 19
  - symbol: Ga # 21
    coordinates: [  0.793995704836117,  0.027313318135996,  0.270878364160366 ]
    mass: 69.723000
    reduced_to: 19
  - symbol: Ga # 22
    coordinates: [  0.127329038169451,  0.360646651469329,  0.270878364160366 ]
    mass: 69.723000
    reduced_to: 19
  - symbol: Ga # 23
    coordinates: [  0.460662371502784,  0.360646651469329,  0.270878364160366 ]
    mass: 69.723000
    reduced_to: 19
  - symbol: Ga # 24
    coordinates: [  0.793995704836117,  0.360646651469329,  0.270878364160366 ]
    mass: 69.723000
    reduced_to: 19
  - symbol: Ga # 25
    coordinates: [  0.127329038169451,  0.693979984802662,  0.270878364160366 ]
    mass: 69.723000
    reduced_to: 19
  - symbol: Ga # 26
    coordinates: [  0.460662371502784,  0.693979984802662,  0.270878364160366 ]
    mass: 69.723000
    reduced_to: 19
  - symbol: Ga # 27
    coordinates: [  0.793995704836117,  0.693979984802662,  0.270878364160366 ]
    mass: 69.723000
    reduced_to: 19
  - symbol: Ga # 28
    coordinates: [  0.016366024417269,  0.138653518675261,  0.956223802950296 ]
    mass: 69.723000
    reduced_to: 28
  - symbol: Ga # 29
    coordinates: [  0.349699357750603,  0.138653518675261,  0.956223802950296 ]
    mass: 69.723000
    reduced_to: 28
  - symbol: Ga # 30
    coordinates: [  0.683032691083936,  0.138653518675261,  0.956223802950296 ]
    mass: 69.723000
    reduced_to: 28
  - symbol: Ga # 31
    coordinates: [  0.016366024417269,  0.471986852008594,  0.956223802950296 ]
    mass: 69.723000
    reduced_to: 28
  - symbol: Ga # 32
    coordinates: [  0.349699357750603,  0.471986852008594,  0.956223802950296 ]
    mass: 69.723000
    reduced_to: 28
  - symbol: Ga # 33
    coordinates: [  0.683032691083936,  0.471986852008594,  0.956223802950296 ]
    mass: 69.723000
    reduced_to: 28
  - symbol: Ga # 34
    coordinates: [  0.016366024417269,  0.805320185341927,  0.956223802950296 ]
    mass: 69.723000
    reduced_to: 28
  - symbol: Ga # 35
    coordinates: [  0.349699357750603,  0.805320185341927,  0.956223802950296 ]
    mass: 69.723000
    reduced_to: 28
  - symbol: Ga # 36
    coordinates: [  0.683032691083936,  0.805320185341927,  0.956223802950296 ]
    mass: 69.723000
    reduced_to: 28
  - symbol: Ga # 37
    coordinates: [  0.016244483914284,  0.138509571933274,  0.754016012219003 ]
    mass: 69.723000
    reduced_to: 37
  - symbol: Ga # 38
    coordinates: [  0.349577817247617,  0.138509571933274,  0.754016012219003 ]
    mass: 69.723000
    reduced_to: 37
  - symbol: Ga # 39
    coordinates: [  0.682911150580951,  0.138509571933274,  0.754016012219003 ]
    mass: 69.723000
    reduced_to: 37
  - symbol: Ga # 40
    coordinates: [  0.016244483914284,  0.471842905266607,  0.754016012219003 ]
    mass: 69.723000
    reduced_to: 37
  - symbol: Ga # 41
    coordinates: [  0.349577817247617,  0.471842905266607,  0.754016012219003 ]
    mass: 69.723000
    reduced_to: 37
  - symbol: Ga # 42
    coordinates: [  0.682911150580951,  0.471842905266607,  0.754016012219003 ]
    mass: 69.723000
    reduced_to: 37
  - symbol: Ga # 43
    coordinates: [  0.016244483914284,  0.805176238599940,  0.754016012219003 ]
    mass: 69.723000
    reduced_to: 37
  - symbol: Ga # 44
    coordinates: [  0.349577817247617,  0.805176238599940,  0.754016012219003 ]
    mass: 69.723000
    reduced_to: 37
  - symbol: Ga # 45
    coordinates: [  0.682911150580951,  0.805176238599940,  0.754016012219003 ]
    mass: 69.723000
    reduced_to: 37
  - symbol: Ga # 46
    coordinates: [  0.127432494707386,  0.027412263832246,  0.475747920136142 ]
    mass: 69.723000
    reduced_to: 46
  - symbol: Ga # 47
    coordinates: [  0.460765828040720,  0.027412263832246,  0.475747920136142 ]
    mass: 69.723000
    reduced_to: 46
  - symbol: Ga # 48
    coordinates: [  0.794099161374053,  0.027412263832246,  0.475747920136142 ]
    mass: 69.723000
    reduced_to: 46
  - symbol: Ga # 49
    coordinates: [  0.127432494707386,  0.360745597165579,  0.475747920136142 ]
    mass: 69.723000
    reduced_to: 46
  - symbol: Ga # 50
    coordinates: [  0.460765828040720,  0.360745597165579,  0.475747920136142 ]
    mass: 69.723000
    reduced_to: 46
  - symbol: Ga # 51
    coordinates: [  0.794099161374053,  0.360745597165579,  0.475747920136142 ]
    mass: 69.723000
    reduced_to: 46
  - symbol: Ga # 52
    coordinates: [  0.127432494707386,  0.694078930498913,  0.475747920136142 ]
    mass: 69.723000
    reduced_to: 46
  - symbol: Ga # 53
    coordinates: [  0.460765828040720,  0.694078930498913,  0.475747920136142 ]
    mass: 69.723000
    reduced_to: 46
  - symbol: Ga # 54
    coordinates: [  0.794099161374053,  0.694078930498913,  0.475747920136142 ]
    mass: 69.723000
    reduced_to: 46
  - symbol: Ga # 55
    coordinates: [  0.127409207194243,  0.027404528849254,  0.708104446019603 ]
    mass: 69.723000
    reduced_to: 55
  - symbol: Ga # 56
    coordinates: [  0.460742540527577,  0.027404528849254,  0.708104446019603 ]
    mass: 69.723000
    reduced_to: 55
  - symbol: Ga # 57
    coordinates: [  0.794075873860910,  0.027404528849254,  0.708104446019603 ]
    mass: 69.723000
    reduced_to: 55
  - symbol: Ga # 58
    coordinates: [  0.127409207194243,  0.360737862182588,  0.708104446019603 ]
    mass: 69.723000
    reduced_to: 55
  - symbol: Ga # 59
    coordinates: [  0.460742540527577,  0.360737862182588,  0.708104446019603 ]
    mass: 69.723000
    reduced_to: 55
  - symbol: Ga # 60
    coordinates: [  0.794075873860910,  0.360737862182588,  0.708104446019603 ]
    mass: 69.723000
    reduced_to: 55
  - symbol: Ga # 61
    coordinates: [  0.127409207194243,  0.694071195515921,  0.708104446019603 ]
    mass: 69.723000
    reduced_to: 55
  - symbol: Ga # 62
    coordinates: [  0.460742540527577,  0.694071195515921,  0.708104446019603 ]
    mass: 69.723000
    reduced_to: 55
  - symbol: Ga # 63
    coordinates: [  0.794075873860910,  0.694071195515921,  0.708104446019603 ]
    mass: 69.723000
    reduced_to: 55
  - symbol: Sn # 64
    coordinates: [  0.016226614883509,  0.138424635603203,  0.205345443864903 ]
    mass: 118.710000
    reduced_to: 64
  - symbol: Sn # 65
    coordinates: [  0.349559948216843,  0.138424635603203,  0.205345443864903 ]
    mass: 118.710000
    reduced_to: 64
  - symbol: Sn # 66
    coordinates: [  0.682893281550176,  0.138424635603203,  0.205345443864903 ]
    mass: 118.710000
    reduced_to: 64
  - symbol: Sn # 67
    coordinates: [  0.016226614883509,  0.471757968936536,  0.205345443864903 ]
    mass: 118.710000
    reduced_to: 64
  - symbol: Sn # 68
    coordinates: [  0.349559948216843,  0.471757968936536,  0.205345443864903 ]
    mass: 118.710000
    reduced_to: 64
  - symbol: Sn # 69
    coordinates: [  0.682893281550176,  0.471757968936536,  0.205345443864903 ]
    mass: 118.710000
    reduced_to: 64
  - symbol: Sn # 70
    coordinates: [  0.016226614883509,  0.805091302269870,  0.205345443864903 ]
    mass: 118.710000
    reduced_to: 64
  - symbol: Sn # 71
    coordinates: [  0.349559948216843,  0.805091302269870,  0.205345443864903 ]
    mass: 118.710000
    reduced_to: 64
  - symbol: Sn # 72
    coordinates: [  0.682893281550176,  0.805091302269870,  0.205345443864903 ]
    mass: 118.710000
    reduced_to: 64
  - symbol: Sn # 73
    coordinates: [  0.016315310330318,  0.138534439868660,  0.538721868719172 ]
    mass: 118.710000
    reduced_to: 73
  - symbol: Sn # 74
    coordinates: [  0.349648643663651,  0.138534439868660,  0.538721868719172 ]
    mass: 118.710000
    reduced_to: 73
  - symbol: Sn # 75
    coordinates: [  0.682981976996984,  0.138534439868660,  0.538721868719172 ]
    mass: 118.710000
    reduced_to: 73
  - symbol: Sn # 76
    coordinates: [  0.016315310330318,  0.471867773201993,  0.538721868719172 ]
    mass: 118.710000
    reduced_to: 73
  - symbol: Sn # 77
    coordinates: [  0.349648643663651,  0.471867773201993,  0.538721868719172 ]
    mass: 118.710000
    reduced_to: 73
  - symbol: Sn # 78
    coordinates: [  0.682981976996984,  0.471867773201993,  0.538721868719172 ]
    mass: 118.710000
    reduced_to: 73
  - symbol: Sn # 79
    coordinates: [  0.016315310330318,  0.805201106535327,  0.538721868719172 ]
    mass: 118.710000
    reduced_to: 73
  - symbol: Sn # 80
    coordinates: [  0.349648643663651,  0.805201106535327,  0.538721868719172 ]
    mass: 118.710000
    reduced_to: 73
  - symbol: Sn # 81
    coordinates: [  0.682981976996984,  0.805201106535327,  0.538721868719172 ]
    mass: 118.710000
    reduced_to: 73
  - symbol: Sn # 82
    coordinates: [  0.127486835103706,  0.027560542339462,  0.022579457503929 ]
    mass: 118.710000
    reduced_to: 82
  - symbol: Sn # 83
    coordinates: [  0.460820168437040,  0.027560542339462,  0.022579457503929 ]
    mass: 118.710000
    reduced_to: 82
  - symbol: Sn # 84
    coordinates: [  0.794153501770373,  0.027560542339462,  0.022579457503929 ]
    mass: 118.710000
    reduced_to: 82
  - symbol: Sn # 85
    coordinates: [  0.127486835103706,  0.360893875672795,  0.022579457503929 ]
    mass: 118.710000
    reduced_to: 82
  - symbol: Sn # 86
    coordinates: [  0.460820168437040,  0.360893875672795,  0.022579457503929 ]
    mass: 118.710000
    reduced_to: 82
  - symbol: Sn # 87
    coordinates: [  0.794153501770373,  0.360893875672795,  0.022579457503929 ]
    mass: 118.710000
    reduced_to: 82
  - symbol: Sn # 88
    coordinates: [  0.127486835103706,  0.694227209006129,  0.022579457503929 ]
    mass: 118.710000
    reduced_to: 82
  - symbol: Sn # 89
    coordinates: [  0.460820168437040,  0.694227209006129,  0.022579457503929 ]
    mass: 118.710000
    reduced_to: 82
  - symbol: Sn # 90
    coordinates: [  0.794153501770373,  0.694227209006129,  0.022579457503929 ]
    mass: 118.710000
    reduced_to: 82

displacements:
- atom:    1
  displacement:
    [   0.0100000000000000,  0.0000000000000000,  0.0000000000000000 ]
  forces:
  - [  -0.0127731654793024,  0.0007399544119835,  0.0207860935479403 ]
  - [  -0.0001123586553149,  0.0003980509936810,  0.0206795670092106 ]
  - [  -0.0001464021333959,  0.0011737192980945,  0.0208771619945765 ]
  - [  -0.0008250328246504, -0.0000026775524020,  0.0208619199693203 ]
  - [  -0.0008187791099772,  0.0015752026811242,  0.0206967350095510 ]
  - [  -0.0007659973343834,  0.0007838634774089,  0.0207782201468945 ]
  - [  -0.0008227918297052,  0.0007699406705797,  0.0207623653113842 ]
  - [  -0.0007653888314962,  0.0007838951423764,  0.0207788869738579 ]
  - [  -0.0008215093985200,  0.0007958905771375,  0.0207953453063965 ]
  - [  -0.0009714979678392, -0.0004824306815863, -0.0415596924722195 ]
  - [  -0.0010826000943780, -0.0004869801923633, -0.0416239053010941 ]
  - [  -0.0010821036994457, -0.0004770439118147, -0.0414944663643837 ]
  - [  -0.0010539675131440, -0.0004669381305575, -0.0415251329541206 ]
  - [  -0.0010547572746873, -0.0004973886534572, -0.0415938012301922 ]
  - [  -0.0010276688262820, -0.0004826262593269, -0.0415593236684799 ]
  - [  -0.0010514741297811, -0.0004622815176845, -0.0415899008512497 ]
  - [  -0.0010340969311073, -0.0004814900457859, -0.0415595211088657 ]
  - [  -0.0010514205787331, -0.0005005970597267, -0.0415298119187355 ]
  - [   0.0010776103008538,  0.0005434593185782, -0.1467575281858444 ]
  - [   0.0009065165068023,  0.0007845537038520, -0.1467479467391968 ]
  - [   0.0009114303975366,  0.0002986236358993, -0.1467891633510590 ]
  - [   0.0045374152250588, -0.0014518587850034, -0.1443043649196625 ]
  - [   0.0046250121667981,  0.0025936351157725, -0.1492857635021210 ]
  - [   0.0012037458363920,  0.0005422264803201, -0.1467638164758682 ]
  - [   0.0012244746321812,  0.0005486984737217, -0.1467278599739075 ]
  - [   0.0013270267518237,  0.0005397145869210, -0.1467644870281219 ]
  - [   0.0012250366853550,  0.0005234333802946, -0.1468013674020767 ]
  - [   0.0003149602562189,  0.0000924961641431,  0.2019940316677094 ]
  - [   0.0003151173004881,  0.0002262927591801,  0.2021315842866898 ]
  - [   0.0004400152538437,  0.0001576663926244,  0.2020635902881622 ]
  - [   0.0004308540956117,  0.0001464283559471,  0.2020250707864761 ]
  - [   0.0004289184289519,  0.0001582476543263,  0.2020654529333115 ]
  - [   0.0004310227814130,  0.0001689635682851,  0.2021071761846542 ]
  - [   0.0004097855999134,  0.0001577213406563,  0.2020642459392548 ]
  - [   0.0004237694665790,  0.0001476095058024,  0.2020560204982758 ]
  - [   0.0004232712090015,  0.0001675062812865,  0.2020743191242218 ]
  - [   0.0026449812576175,  0.0005680080503225,  0.0011422540992498 ]
  - [   0.0026452727615833,  0.0008170148357749,  0.0005074087530375 ]
  - [   0.0027143196202815,  0.0006909044459462,  0.0008243527263403 ]
  - [   0.0026835098396987,  0.0007194289937615,  0.0009436532855034 ]
  - [   0.0028605174738914,  0.0006912034004927,  0.0008265450596809 ]
  - [   0.0026829498820007,  0.0006647109985352,  0.0007067210972309 ]
  - [   0.0027292887680233,  0.0006942143663764,  0.0008261781185865 ]
  - [   0.0027163852937520,  0.0006938972510397,  0.0008272975683212 ]
  - [   0.0027175256982446,  0.0006921463645995,  0.0008237808942795 ]
  - [  -0.0010282408911735, -0.0003986032679677,  0.0167202129960060 ]
  - [  -0.0010675303637981, -0.0001359283924103,  0.0169387646019459 ]
  - [  -0.0010668691247702, -0.0006722483085468,  0.0165228173136711 ]
  - [   0.0027606701478362, -0.0025901873596013,  0.0138511322438717 ]
  - [   0.0028264233842492,  0.0018217880278826,  0.0196527168154716 ]
  - [  -0.0005727652460337, -0.0004046312533319,  0.0167304500937462 ]
  - [  -0.0005954001098871, -0.0004177931696177,  0.0166981518268585 ]
  - [  -0.0006006266921759, -0.0004043336957693,  0.0167284533381462 ]
  - [  -0.0005950555205345, -0.0003950400277972,  0.0167602077126503 ]
  - [  -0.0021889512427151, -0.0006820952985436, -0.2595283091068268 ]
  - [  -0.0019998461939394, -0.0008282016497105, -0.2592568397521973 ]
  - [  -0.0020032639149576, -0.0005404686089605, -0.2597896754741669 ]
  - [  -0.0021964097395539, -0.0006802255520597, -0.2599847614765167 ]
  - [  -0.0021942942403257, -0.0006886206101626, -0.2590624094009399 ]
  - [  -0.0021454915404320, -0.0006844486924820, -0.2595238983631134 ]
  - [  -0.0022454648278654, -0.0007422725902870, -0.2595566511154175 ]
  - [  -0.0022512853611261, -0.0006824526935816, -0.2595243752002716 ]
  - [  -0.0022480348125100, -0.0006227175472304, -0.2594913840293884 ]
  - [  -0.0002626981004141, -0.0014797532930970, -0.5509869456291199 ]
  - [  -0.0002426026912872, -0.0025564106181264, -0.5519037842750549 ]
  - [  -0.0007845366490074, -0.0020109093748033, -0.5514392852783203 ]
  - [  -0.0017394265159965, -0.0013963542878628, -0.5519506931304932 ]
  - [  -0.0011755633167922, -0.0020230268128216, -0.5514264106750488 ]
  - [  -0.0017581934807822, -0.0026267431676388, -0.5509231686592102 ]
  - [  -0.0006820618873462, -0.0020089307799935, -0.5514388084411621 ]
  - [  -0.0007555093616247, -0.0019899168983102, -0.5514389872550964 ]
  - [  -0.0007557123899460, -0.0020202444866300, -0.5514414310455322 ]
  - [   0.0018325012642890,  0.0008083172142506,  0.2017273157835007 ]
  - [   0.0018578500021249, -0.0000361818820238,  0.2024245411157608 ]
  - [   0.0008897045627236,  0.0003940910100937,  0.2020681202411652 ]
  - [  -0.0003847568295896,  0.0012447969056666,  0.2025059759616852 ]
  - [   0.0011121109127998,  0.0003828316694126,  0.2020532339811325 ]
  - [  -0.0004052682779729, -0.0004647620953619,  0.2016222476959229 ]
  - [   0.0010881576454267,  0.0003942081239074,  0.2020656913518906 ]
  - [   0.0009975018911064,  0.0004614057834260,  0.2020649015903473 ]
  - [   0.0009982557967305,  0.0003349514445290,  0.2020691335201263 ]
  - [   0.0001592783955857,  0.0010111182928085,  0.5568302869796753 ]
  - [   0.0005230206297711,  0.0007619836833328,  0.5563950538635254 ]
  - [   0.0005180136067793,  0.0012536772992462,  0.5572521686553955 ]
  - [   0.0000746786827222,  0.0010558699723333,  0.5571253299713135 ]
  - [   0.0000764336436987,  0.0009652264416218,  0.5565235018730164 ]
  - [   0.0001869193511084,  0.0010111469309777,  0.5568205118179321 ]
  - [   0.0000812837388366,  0.0009479969739914,  0.5568735003471375 ]
  - [   0.0000929364468902,  0.0010074616875499,  0.5568236708641052 ]
  - [   0.0000804362352937,  0.0010696339886636,  0.5567716360092163 ]
- atom:    1
  displacement:
    [  -0.0100000000000000,  0.0000000000000000,  0.0000000000000000 ]
  forces:
  - [   0.0111356535926461,  0.0007528504356742,  0.0207719504833221 ]
  - [  -0.0014902232214808,  0.0011729067191482,  0.0208777841180563 ]
  - [  -0.0015236291801557,  0.0003973627462983,  0.0206795390695333 ]
  - [  -0.0008152462542057,  0.0015739910304546,  0.0206971094012260 ]
  - [  -0.0008120061829686, -0.0000039245933294,  0.0208613947033882 ]
  - [  -0.0008714959840290,  0.0007834453135729,  0.0207780953496695 ]
  - [  -0.0008132215589285,  0.0007950882427394,  0.0207961164414883 ]
  - [  -0.0008707363158464,  0.0007836525328457,  0.0207792446017265 ]
  - [  -0.0008136937394738,  0.0007694726809859,  0.0207618009299040 ]
  - [  -0.0011188695207238, -0.0004823422059417, -0.0415595248341560 ]
  - [  -0.0010085832327604, -0.0004772832617164, -0.0414950959384441 ]
  - [  -0.0010086065158248, -0.0004867902025580, -0.0416234433650970 ]
  - [  -0.0010360004380345, -0.0004974585026503, -0.0415940955281258 ]
  - [  -0.0010369131341577, -0.0004670154303312, -0.0415251441299915 ]
  - [  -0.0010632518678904, -0.0004825871437788, -0.0415595620870590 ]
  - [  -0.0010400923201814, -0.0005004033446312, -0.0415300503373146 ]
  - [  -0.0010563747491688, -0.0004816399887204, -0.0415593013167381 ]
  - [  -0.0010404055938125, -0.0004621716216207, -0.0415900871157646 ]
  - [   0.0013870801776648,  0.0005408526631072, -0.1467603743076324 ]
  - [   0.0015585036017001,  0.0002980193821713, -0.1467891633510590 ]
  - [   0.0015618950128555,  0.0007833389099687, -0.1467457115650177 ]
  - [  -0.0021432917565107,  0.0025814259424806, -0.1492740213871002 ]
  - [  -0.0020894552581012, -0.0014614046085626, -0.1442900598049164 ]
  - [   0.0012586060911417,  0.0005417733918875, -0.1467635780572891 ]
  - [   0.0012381850974634,  0.0005246924120001, -0.1468046307563782 ]
  - [   0.0011374837486073,  0.0005384882679209, -0.1467640995979309 ]
  - [   0.0012379816034809,  0.0005479482933879, -0.1467240303754807 ]
  - [   0.0005266717635095,  0.0002266392111778,  0.2021315097808838 ]
  - [   0.0005257531302050,  0.0000915164127946,  0.2019947767257690 ]
  - [   0.0003931313112844,  0.0001576952636242,  0.2020635306835175 ]
  - [   0.0004119654768147,  0.0001708444906399,  0.2021054029464722 ]
  - [   0.0004098893550690,  0.0001578588271514,  0.2020656466484070 ]
  - [   0.0004111118614674,  0.0001441939966753,  0.2020268887281418 ]
  - [   0.0004321699379943,  0.0001583606936038,  0.2020642459392548 ]
  - [   0.0004125162959099,  0.0001680692657828,  0.2020739018917084 ]
  - [   0.0004119854420424,  0.0001470465213060,  0.2020561099052429 ]
  - [   0.0027981647290289,  0.0008184816688299,  0.0005070939660072 ]
  - [   0.0027972110547125,  0.0005667693912983,  0.0011426042765379 ]
  - [   0.0027240989729762,  0.0006908988580108,  0.0008241757750511 ]
  - [   0.0027607011143118,  0.0006666602566838,  0.0007080845534801 ]
  - [   0.0025796208065003,  0.0006912695243955,  0.0008267723023891 ]
  - [   0.0027599046006799,  0.0007175505161285,  0.0009424537420273 ]
  - [   0.0027150087989867,  0.0006939708255231,  0.0008263234049082 ]
  - [   0.0027233869768679,  0.0006923708133399,  0.0008244886994362 ]
  - [   0.0027246996760368,  0.0006937244907022,  0.0008263271301985 ]
  - [  -0.0001977980136871, -0.0004000565968454,  0.0167219042778015 ]
  - [  -0.0001637818495510, -0.0006731762550771,  0.0165221393108368 ]
  - [  -0.0001640222617425, -0.0001355379645247,  0.0169379785656929 ]
  - [  -0.0040493104606867,  0.0018200986087322,  0.0196483321487904 ]
  - [  -0.0039904238656163, -0.0025928444229066,  0.0138487108051777 ]
  - [  -0.0006490489467978, -0.0004047760739923,  0.0167300105094910 ]
  - [  -0.0006332378834486, -0.0003952700644732,  0.0167610719799995 ]
  - [  -0.0006269030272961, -0.0004045786336064,  0.0167279615998268 ]
  - [  -0.0006327275186777, -0.0004175053909421,  0.0166967660188675 ]
  - [  -0.0023170597851276, -0.0006824231240898, -0.2595276832580566 ]
  - [  -0.0025021245237440, -0.0005381999071687, -0.2597905099391937 ]
  - [  -0.0025050695985556, -0.0008300810586661, -0.2592560648918152 ]
  - [  -0.0023092711344361, -0.0006893384270370, -0.2590628564357758 ]
  - [  -0.0023088490124792, -0.0006791742052883, -0.2599860131740570 ]
  - [  -0.0023653237149119, -0.0006849328055978, -0.2595238089561462 ]
  - [  -0.0022579920478165, -0.0006222351221368, -0.2594903707504272 ]
  - [  -0.0022514581214637, -0.0006826519966125, -0.2595239579677582 ]
  - [  -0.0022600586526096, -0.0007426609518006, -0.2595574259757996 ]
  - [  -0.0012374985963106, -0.0025522033683956, -0.5518990159034729 ]
  - [  -0.0012236663606018, -0.0014767120592296, -0.5509859323501587 ]
  - [  -0.0006999563775025, -0.0020100702531636, -0.5514395236968994 ]
  - [   0.0002766950055957, -0.0026271552778780, -0.5509237647056580 ]
  - [  -0.0003049841616303, -0.0020185168832541, -0.5514305830001831 ]
  - [   0.0002638670848683, -0.0013937884941697, -0.5519512891769409 ]
  - [  -0.0007948152488098, -0.0020075272768736, -0.5514384508132935 ]
  - [  -0.0007245317101479, -0.0020200908184052, -0.5514413714408875 ]
  - [  -0.0007248092442751, -0.0019901292398572, -0.5514375567436218 ]
  - [   0.0001821601763368, -0.0000337157398462,  0.2024227678775787 ]
  - [   0.0001999347005039,  0.0008099661208689,  0.2017250955104828 ]
  - [   0.0011464755516499,  0.0003945766948164,  0.2020680904388428 ]
  - [   0.0024335533380508, -0.0004628552705981,  0.2016208022832870 ]
  - [   0.0009212992154062,  0.0003852739464492,  0.2020553201436996 ]
  - [   0.0024172631092370,  0.0012459228746593,  0.2025078535079956 ]
  - [   0.0009481096058153,  0.0003950044047087,  0.2020661979913712 ]
  - [   0.0010364386253059,  0.0003352613421157,  0.2020681500434875 ]
  - [   0.0010363365290686,  0.0004605598514900,  0.2020651698112488 ]
  - [   0.0000011697411537,  0.0010103281820193,  0.5568279027938843 ]
  - [  -0.0003566845552996,  0.0012542913900688,  0.5572510957717896 ]
  - [  -0.0003613193985075,  0.0007609928725287,  0.5563960671424866 ]
  - [   0.0000830455683172,  0.0009668963029981,  0.5565222501754761 ]
  - [   0.0000839681597427,  0.0010568057186902,  0.5571240782737732 ]
  - [  -0.0000290673924610,  0.0010108284186572,  0.5568212866783142 ]
  - [   0.0000801282003522,  0.0010725993197411,  0.5567720532417297 ]
  - [   0.0000702333636582,  0.0010074274614453,  0.5568230152130127 ]
  - [   0.0000799323897809,  0.0009450835641474,  0.5568729043006897 ]
- atom:    1
  displacement:
    [  -0.0050003080328878,  0.0086600761876693,  0.0000000000000000 ]
  forces:
  - [   0.0051861265674233, -0.0095503525808454,  0.0207717120647430 ]
  - [  -0.0008248453377746,  0.0007750159129500,  0.0207950789481401 ]
  - [  -0.0015013099182397,  0.0003867743362207,  0.0206963177770376 ]