phonopy:
  version: "2.37.1"
  frequency_unit_conversion_factor: 15.633302
  symmetry_tolerance: 1.00000e-05

space_group:
  type: "C2/m"
  number: 12
  Hall_symbol: "-C 2y"

primitive_matrix:
- [  0.000000000000000,  0.000000000000000,  1.000000000000000 ]
- [  0.000000000000000,  1.000000000000000,  0.000000000000000 ]
- [ -1.000000000000000, -0.000000000000000,  1.000000000000000 ]

supercell_matrix:
- [   3,   0,   0 ]
- [   0,   3,   0 ]
- [   0,   0,   3 ]

primitive_cell:
  lattice:
  - [     2.337150244564490,     2.329130414843983,    -3.281800171449538 ] # a
  - [     0.025353282250413,     4.653674941699080,    -0.000000000000000 ] # b
  - [     2.316831676989174,    -2.329130414843982,     3.281800171449538 ] # c
  points:
  - symbol: Li # 1
    coordinates: [  0.500000006153801,  0.500000001481182,  0.500000003388670 ]
    mass: 6.940000
  - symbol: Li # 2
    coordinates: [  0.752294051787281,  0.752294030231357,  0.252274379775257 ]
    mass: 6.940000
  - symbol: Li # 3
    coordinates: [  0.247705953829895,  0.247705952404118,  0.747725597610009 ]
    mass: 6.940000
  - symbol: Sn # 4
    coordinates: [  0.999999988138039,  0.000000016201182,  0.000000020467655 ]
    mass: 118.710000
  reciprocal_lattice: # without 2pi
  - [     0.214869764613560,    -0.001170613301869,    -0.152521043933099 ] # a*
  - [    -0.000000000000000,     0.214883938506220,     0.152505542900023 ] # b*
  - [     0.214869764613560,    -0.001170613301869,     0.152189769570914 ] # c*

unit_cell:
  lattice:
  - [     4.653981921553664,     0.000000000000000,     0.000000000000000 ] # a
  - [     0.025353282250412,     4.653674941699080,     0.000000000000000 ] # b
  - [    -2.337150244564490,    -2.329130414843983,     3.281800171449539 ] # c
  points:
  - symbol: Li # 1
    coordinates: [  0.500000003388670,  0.500000001481182,  0.999999997234868 ]
    mass: 6.940000
    reduced_to: 1
  - symbol: Li # 2
    coordinates: [  0.252274379775257,  0.752294030231357,  0.499980327987976 ]
    mass: 6.940000
    reduced_to: 2
  - symbol: Li # 3
    coordinates: [  0.747725597610009,  0.247705952404118,  0.500019643780114 ]
    mass: 6.940000
    reduced_to: 3
  - symbol: Sn # 4
    coordinates: [  0.000000020467655,  0.000000016201182,  0.000000032329616 ]
    mass: 118.710000
    reduced_to: 4

supercell:
  lattice:
  - [    13.961945764660992,     0.000000000000000,     0.000000000000000 ] # a
  - [     0.076059846751237,    13.961024825097240,     0.000000000000000 ] # b
  - [    -7.011450733693470,    -6.987391244531950,     9.845400514348615 ] # c
  points:
  - symbol: Li # 1
    coordinates: [  0.166666667796223,  0.166666667160394,  0.333333332411623 ]
    mass: 6.940000
    reduced_to: 1
  - symbol: Li # 2
    coordinates: [  0.500000001129557,  0.166666667160394,  0.333333332411623 ]
    mass: 6.940000
    reduced_to: 1
  - symbol: Li # 3
    coordinates: [  0.833333334462890,  0.166666667160394,  0.333333332411623 ]
    mass: 6.940000
    reduced_to: 1
  - symbol: Li # 4
    coordinates: [  0.166666667796223,  0.500000000493727,  0.333333332411623 ]
    mass: 6.940000
    reduced_to: 1
  - symbol: Li # 5
    coordinates: [  0.500000001129557,  0.500000000493727,  0.333333332411623 ]
    mass: 6.940000
    reduced_to: 1
  - symbol: Li # 6
    coordinates: [  0.833333334462890,  0.500000000493727,  0.333333332411623 ]
    mass: 6.940000
    reduced_to: 1
  - symbol: Li # 7
    coordinates: [  0.166666667796223,  0.833333333827061,  0.333333332411623 ]
    mass: 6.940000
    reduced_to: 1
  - symbol: Li # 8
    coordinates: [  0.500000001129557,  0.833333333827061,  0.333333332411623 ]
    mass: 6.940000
    reduced_to: 1
  - symbol: Li # 9
    coordinates: [  0.833333334462890,  0.833333333827061,  0.333333332411623 ]
    mass: 6.940000
    reduced_to: 1
  - symbol: Li # 10
    coordinates: [  0.166666667796223,  0.166666667160394,  0.666666665744956 ]
    mass: 6.940000
    reduced_to: 1
  - symbol: Li # 11
    coordinates: [  0.500000001129557,  0.166666667160394,  0.666666665744956 ]
    mass: 6.940000
    reduced_to: 1
  - symbol: Li # 12
    coordinates: [  0.833333334462890,  0.166666667160394,  0.666666665744956 ]
    mass: 6.940000
    reduced_to: 1
  - symbol: Li # 13
    coordinates: [  0.166666667796223,  0.500000000493727,  0.666666665744956 ]
    mass: 6.940000
    reduced_to: 1
  - symbol: Li # 14
    coordinates: [  0.500000001129557,  0.500000000493727,  0.666666665744956 ]
    mass: 6.940000
    reduced_to: 1
  - symbol: Li # 15
    coordinates: [  0.833333334462890,  0.500000000493727,  0.666666665744956 ]
    mass: 6.940000
    reduced_to: 1
  - symbol: Li # 16
    coordinates: [  0.166666667796223,  0.833333333827061,  0.666666665744956 ]
    mass: 6.940000
    reduced_to: 1
  - symbol: Li # 17
    coordinates: [  0.500000001129557,  0.833333333827061,  0.666666665744956 ]
    mass: 6.940000
    reduced_to: 1
  - symbol: Li # 18
    coordinates: [  0.833333334462890,  0.833333333827061,  0.666666665744956 ]
    mass: 6.940000
    reduced_to: 1
  - symbol: Li # 19
    coordinates: [  0.166666667796223,  0.166666667160394,  0.999999999078289 ]
    mass: 6.940000
    reduced_to: 1
  - symbol: Li # 20
    coordinates: [  0.500000001129557,  0.166666667160394,  0.999999999078289 ]
    mass: 6.940000
    reduced_to: 1
  - symbol: Li # 21
    coordinates: [  0.833333334462890,  0.166666667160394,  0.999999999078289 ]
    mass: 6.940000
    reduced_to: 1
  - symbol: Li # 22
    coordinates: [  0.166666667796223,  0.500000000493727,  0.999999999078289 ]
    mass: 6.940000
    reduced_to: 1
  - symbol: Li # 23
    coordinates: [  0.500000001129557,  0.500000000493727,  0.999999999078289 ]
    mass: 6.940000
    reduced_to: 1
  - symbol: Li # 24
    coordinates: [  0.833333334462890,  0.500000000493727,  0.999999999078289 ]
    mass: 6.940000
    reduced_to: 1
  - symbol: Li # 25
    coordinates: [  0.166666667796223,  0.833333333827061,  0.999999999078289 ]
    mass: 6.940000
    reduced_to: 1
  - symbol: Li # 26
    coordinates: [  0.500000001129557,  0.833333333827061,  0.999999999078289 ]
    mass: 6.940000
    reduced_to: 1
  - symbol: Li # 27
    coordinates: [  0.833333334462890,  0.833333333827061,  0.999999999078289 ]
    mass: 6.940000
    reduced_to: 1
  - symbol: Li # 28
    coordinates: [  0.084091459925086,  0.250764676743786,  0.166660109329325 ]
    mass: 6.940000
    reduced_to: 28
  - symbol: Li # 29
    coordinates: [  0.417424793258419,  0.250764676743786,  0.166660109329325 ]
    mass: 6.940000
    reduced_to: 28
  - symbol: Li # 30
    coordinates: [  0.750758126591752,  0.250764676743786,  0.166660109329325 ]
    mass: 6.940000
    reduced_to: 28
  - symbol: Li # 31
    coordinates: [  0.084091459925086,  0.584098010077119,  0.166660109329325 ]
    mass: 6.940000
    reduced_to: 28
  - symbol: Li # 32
    coordinates: [  0.417424793258419,  0.584098010077119,  0.166660109329325 ]
    mass: 6.940000
    reduced_to: 28
  - symbol: Li # 33
    coordinates: [  0.750758126591752,  0.584098010077119,  0.166660109329325 ]
    mass: 6.940000
    reduced_to: 28
  - symbol: Li # 34
    coordinates: [  0.084091459925086,  0.917431343410452,  0.166660109329325 ]
    mass: 6.940000
    reduced_to: 28
  - symbol: Li # 35
    coordinates: [  0.417424793258419,  0.917431343410452,  0.166660109329325 ]
    mass: 6.940000
    reduced_to: 28
  - symbol: Li # 36
    coordinates: [  0.750758126591752,  0.917431343410452,  0.166660109329325 ]
    mass: 6.940000
    reduced_to: 28
  - symbol: Li # 37
    coordinates: [  0.084091459925086,  0.250764676743786,  0.499993442662659 ]
    mass: 6.940000
    reduced_to: 28
  - symbol: Li # 38
    coordinates: [  0.417424793258419,  0.250764676743786,  0.499993442662659 ]
    mass: 6.940000
    reduced_to: 28
  - symbol: Li # 39
    coordinates: [  0.750758126591752,  0.250764676743786,  0.499993442662659 ]
    mass: 6.940000
    reduced_to: 28
  - symbol: Li # 40
    coordinates: [  0.084091459925086,  0.584098010077119,  0.499993442662659 ]
    mass: 6.940000
    reduced_to: 28
  - symbol: Li # 41
    coordinates: [  0.417424793258419,  0.584098010077119,  0.499993442662659 ]
    mass: 6.940000
    reduced_to: 28
  - symbol: Li # 42
    coordinates: [  0.750758126591752,  0.584098010077119,  0.499993442662659 ]
    mass: 6.940000
    reduced_to: 28
  - symbol: Li # 43
    coordinates: [  0.084091459925086,  0.917431343410452,  0.499993442662659 ]
    mass: 6.940000
    reduced_to: 28
  - symbol: Li # 44
    coordinates: [  0.417424793258419,  0.917431343410452,  0.499993442662659 ]
    mass: 6.940000
    reduced_to: 28
  - symbol: Li # 45
    coordinates: [  0.750758126591752,  0.917431343410452,  0.499993442662659 ]
    mass: 6.940000
    reduced_to: 28
  - symbol: Li # 46
    coordinates: [  0.084091459925086,  0.250764676743786,  0.833326775995992 ]
    mass: 6.940000
    reduced_to: 28
  - symbol: Li # 47
    coordinates: [  0.417424793258419,  0.250764676743786,  0.833326775995992 ]
    mass: 6.940000
    reduced_to: 28
  - symbol: Li # 48
    coordinates: [  0.750758126591752,  0.250764676743786,  0.833326775995992 ]
    mass: 6.940000
    reduced_to: 28
  - symbol: Li # 49
    coordinates: [  0.084091459925086,  0.584098010077119,  0.833326775995992 ]
    mass: 6.940000
    reduced_to: 28
  - symbol: Li # 50
    coordinates: [  0.417424793258419,  0.584098010077119,  0.833326775995992 ]
    mass: 6.940000
    reduced_to: 28
  - symbol: Li # 51
    coordinates: [  0.750758126591752,  0.584098010077119,  0.833326775995992 ]
    mass: 6.940000
    reduced_to: 28
  - symbol: Li # 52
    coordinates: [  0.084091459925086,  0.917431343410452,  0.833326775995992 ]
    mass: 6.940000
    reduced_to: 28
  - symbol: Li # 53
    coordinates: [  0.417424793258419,  0.917431343410452,  0.833326775995992 ]
    mass: 6.940000
    reduced_to: 28
  - symbol: Li # 54
    coordinates: [  0.750758126591752,  0.917431343410452,  0.833326775995992 ]
    mass: 6.940000
    reduced_to: 28
  - symbol: Li # 55
    coordinates: [  0.249241865870003,  0.082568650801373,  0.166673214593371 ]
    mass: 6.940000
    reduced_to: 55
  - symbol: Li # 56
    coordinates: [  0.582575199203336,  0.082568650801373,  0.166673214593371 ]
    mass: 6.940000
    reduced_to: 55
  - symbol: Li # 57
    coordinates: [  0.915908532536669,  0.082568650801373,  0.166673214593371 ]
    mass: 6.940000
    reduced_to: 55
  - symbol: Li # 58
    coordinates: [  0.249241865870003,  0.415901984134706,  0.166673214593371 ]
    mass: 6.940000
    reduced_to: 55
  - symbol: Li # 59
    coordinates: [  0.582575199203336,  0.415901984134706,  0.166673214593371 ]
    mass: 6.940000
    reduced_to: 55
  - symbol: Li # 60
    coordinates: [  0.915908532536669,  0.415901984134706,  0.166673214593371 ]
    mass: 6.940000
    reduced_to: 55
  - symbol: Li # 61
    coordinates: [  0.249241865870003,  0.749235317468039,  0.166673214593371 ]
    mass: 6.940000
    reduced_to: 55
  - symbol: Li # 62
    coordinates: [  0.582575199203336,  0.749235317468039,  0.166673214593371 ]
    mass: 6.940000
    reduced_to: 55
  - symbol: Li # 63
    coordinates: [  0.915908532536669,  0.749235317468039,  0.166673214593371 ]
    mass: 6.940000
    reduced_to: 55
  - symbol: Li # 64
    coordinates: [  0.249241865870003,  0.082568650801373,  0.500006547926705 ]
    mass: 6.940000
    reduced_to: 55
  - symbol: Li # 65
    coordinates: [  0.582575199203336,  0.082568650801373,  0.500006547926705 ]
    mass: 6.940000
    reduced_to: 55
  - symbol: Li # 66
    coordinates: [  0.915908532536669,  0.082568650801373,  0.500006547926705 ]
    mass: 6.940000
    reduced_to: 55
  - symbol: Li # 67
    coordinates: [  0.249241865870003,  0.415901984134706,  0.500006547926705 ]
    mass: 6.940000
    reduced_to: 55
  - symbol: Li # 68
    coordinates: [  0.582575199203336,  0.415901984134706,  0.500006547926705 ]
    mass: 6.940000
    reduced_to: 55
  - symbol: Li # 69
    coordinates: [  0.915908532536669,  0.415901984134706,  0.500006547926705 ]
    mass: 6.940000
    reduced_to: 55
  - symbol: Li # 70
    coordinates: [  0.249241865870003,  0.749235317468039,  0.500006547926705 ]
    mass: 6.940000
    reduced_to: 55
  - symbol: Li # 71
    coordinates: [  0.582575199203336,  0.749235317468039,  0.500006547926705 ]
    mass: 6.940000
    reduced_to: 55
  - symbol: Li # 72
    coordinates: [  0.915908532536669,  0.749235317468039,  0.500006547926705 ]
    mass: 6.940000
    reduced_to: 55
  - symbol: Li # 73
    coordinates: [  0.249241865870003,  0.082568650801373,  0.833339881260038 ]
    mass: 6.940000
    reduced_to: 55
  - symbol: Li # 74
    coordinates: [  0.582575199203336,  0.082568650801373,  0.833339881260038 ]
    mass: 6.940000
    reduced_to: 55
  - symbol: Li # 75
    coordinates: [  0.915908532536669,  0.082568650801373,  0.833339881260038 ]
    mass: 6.940000
    reduced_to: 55
  - symbol: Li # 76
    coordinates: [  0.249241865870003,  0.415901984134706,  0.833339881260038 ]
    mass: 6.940000
    reduced_to: 55
  - symbol: Li # 77
    coordinates: [  0.582575199203336,  0.415901984134706,  0.833339881260038 ]
    mass: 6.940000
    reduced_to: 55
  - symbol: Li # 78
    coordinates: [  0.915908532536669,  0.415901984134706,  0.833339881260038 ]
    mass: 6.940000
    reduced_to: 55
  - symbol: Li # 79
    coordinates: [  0.249241865870003,  0.749235317468039,  0.833339881260038 ]
    mass: 6.940000
    reduced_to: 55
  - symbol: Li # 80
    coordinates: [  0.582575199203336,  0.749235317468039,  0.833339881260038 ]
    mass: 6.940000
    reduced_to: 55
  - symbol: Li # 81
    coordinates: [  0.915908532536669,  0.749235317468039,  0.833339881260038 ]
    mass: 6.940000
    reduced_to: 55
  - symbol: Sn # 82
    coordinates: [  0.000000006822552,  0.000000005400394,  0.000000010776539 ]
    mass: 118.710000
    reduced_to: 82
  - symbol: Sn # 83
    coordinates: [  0.333333340155885,  0.000000005400394,  0.000000010776539 ]
    mass: 118.710000
    reduced_to: 82
  - symbol: Sn # 84
    coordinates: [  0.666666673489218,  0.000000005400394,  0.000000010776539 ]
    mass: 118.710000
    reduced_to: 82
  - symbol: Sn # 85
    coordinates: [  0.000000006822552,  0.333333338733727,  0.000000010776539 ]
    mass: 118.710000
    reduced_to: 82
  - symbol: Sn # 86
    coordinates: [  0.333333340155885,  0.333333338733727,  0.000000010776539 ]
    mass: 118.710000
    reduced_to: 82
  - symbol: Sn # 87
    coordinates: [  0.666666673489218,  0.333333338733727,  0.000000010776539 ]
    mass: 118.710000
    reduced_to: 82
  - symbol: Sn # 88
    coordinates: [  0.000000006822552,  0.666666672067061,  0.000000010776539 ]
    mass: 118.710000
    reduced_to: 82
  - symbol: Sn # 89
    coordinates: [  0.333333340155885,  0.666666672067061,  0.000000010776539 ]
    mass: 118.710000
    reduced_to: 82
  - symbol: Sn # 90
    coordinates: [  0.666666673489218,  0.666666672067061,  0.000000010776539 ]
    mass: 118.710000
    reduced_to: 82
  - symbol: Sn # 91
    coordinates: [  0.000000006822552,  0.000000005400394,  0.333333344109872 ]
    mass: 118.710000
    reduced_to: 82
  - symbol: Sn # 92
    coordinates: [  0.333333340155885,  0.000000005400394,  0.333333344109872 ]
    mass: 118.710000
    reduced_to: 82
  - symbol: Sn # 93
    coordinates: [  0.666666673489218,  0.000000005400394,  0.333333344109872 ]
    mass: 118.710000
    reduced_to: 82
  - symbol: Sn # 94
    coordinates: [  0.000000006822552,  0.333333338733727,  0.333333344109872 ]
    mass: 118.710000
    reduced_to: 82
  - symbol: Sn # 95
    coordinates: [  0.333333340155885,  0.333333338733727,  0.333333344109872 ]
    mass: 118.710000
    reduced_to: 82
  - symbol: Sn # 96
    coordinates: [  0.666666673489218,  0.333333338733727,  0.333333344109872 ]
    mass: 118.710000
    reduced_to: 82
  - symbol: Sn # 97
    coordinates: [  0.000000006822552,  0.666666672067061,  0.333333344109872 ]
    mass: 118.710000
    reduced_to: 82
  - symbol: Sn # 98
    coordinates: [  0.333333340155885,  0.666666672067061,  0.333333344109872 ]
    mass: 118.710000
    reduced_to: 82
  - symbol: Sn # 99
    coordinates: [  0.666666673489218,  0.666666672067061,  0.333333344109872 ]
    mass: 118.710000
    reduced_to: 82
  - symbol: Sn # 100
    coordinates: [  0.000000006822552,  0.000000005400394,  0.666666677443205 ]
    mass: 118.710000
    reduced_to: 82
  - symbol: Sn # 101
    coordinates: [  0.333333340155885,  0.000000005400394,  0.666666677443205 ]
    mass: 118.710000
    reduced_to: 82
  - symbol: Sn # 102
    coordinates: [  0.666666673489218,  0.000000005400394,  0.666666677443205 ]
    mass: 118.710000
    reduced_to: 82
  - symbol: Sn # 103
    coordinates: [  0.000000006822552,  0.333333338733727,  0.666666677443205 ]
    mass: 118.710000
    reduced_to: 82
  - symbol: Sn # 104
    coordinates: [  0.333333340155885,  0.333333338733727,  0.666666677443205 ]
    mass: 118.710000
    reduced_to: 82
  - symbol: Sn # 105
    coordinates: [  0.666666673489218,  0.333333338733727,  0.666666677443205 ]
    mass: 118.710000
    reduced_to: 82
  - symbol: Sn # 106
    coordinates: [  0.000000006822552,  0.666666672067061,  0.666666677443205 ]
    mass: 118.710000
    reduced_to: 82
  - symbol: Sn # 107
    coordinates: [  0.333333340155885,  0.666666672067061,  0.666666677443205 ]
    mass: 118.710000
    reduced_to: 82
  - symbol: Sn # 108
    coordinates: [  0.666666673489218,  0.666666672067061,  0.666666677443205 ]
    mass: 118.710000
    reduced_to: 82

displacements:
- atom:    1
  displacement:
    [   0.0100000000000000,  0.0000000000000000,  0.0000000000000000 ]
  forces:
  - [  -0.0146085899323225,  0.0000569100375287,  0.0002494015498087 ]
  - [  -0.0001869692932814, -0.0000011404627003,  0.0000037543941289 ]
  - [  -0.0001745565095916, -0.0000013741082512,  0.0000037431018427 ]
  - [  -0.0001514799077995, -0.0000010639778338,  0.0000012731179595 ]
  - [  -0.0003360590781085, -0.0002971991198137, -0.0000008109491318 ]
  - [  -0.0003572375280783,  0.0003200068604201,  0.0000015211990103 ]
  - [  -0.0001513214665465, -0.0000001239823177,  0.0000017455313355 ]
  - [  -0.0003625306417234,  0.0003238109638914,  0.0000020283041522 ]
  - [  -0.0003301877877675, -0.0002927642781287, -0.0000005986075848 ]
  - [  -0.0000773541396484, -0.0000917576253414,  0.0000108205131255 ]
  - [  -0.0000759614631534,  0.0000926071079448, -0.0000115675502457 ]
  - [   0.0000282271066681,  0.0000000039581209,  0.0000006295740604 ]
  - [  -0.0000752249034122,  0.0000941189937294,  0.0000138054601848 ]
  - [  -0.0000743622658774, -0.0000929658999667, -0.0000091824331321 ]
  - [   0.0000292207114398, -0.0000001259613782, -0.0000008812639862 ]
  - [   0.0000115323346108,  0.0000000654254109, -0.0000139998737723 ]
  - [   0.0000108438543975,  0.0000004433095455,  0.0000128241372295 ]
  - [  -0.0000399408163503,  0.0000007206108421, -0.0000005876354408 ]
  - [  -0.0000780255650170, -0.0000932796974666,  0.0000145009253174 ]
  - [   0.0000286327558570,  0.0000008737551980,  0.0000005735782906 ]
  - [  -0.0000752174528316,  0.0000906889908947, -0.0000082134502009 ]
  - [   0.0000112461857498, -0.0000005992478691, -0.0000136337475851 ]
  - [  -0.0000400714343414,  0.0000004343455657,  0.0000031830277294 ]
  - [   0.0000108699896373, -0.0000002337619662,  0.0000134195433930 ]
  - [  -0.0000766310840845,  0.0000956159783527,  0.0000176320318133 ]
  - [   0.0000290721072815, -0.0000003372551873, -0.0000007041962817 ]
  - [  -0.0000735362991691, -0.0000922094914131, -0.0000059765297920 ]
  - [  -0.0281910393387079, -0.0280446484684944,  0.0002186887431890 ]
  - [  -0.0279098767787218, -0.0279330536723137,  0.0003226748667657 ]
  - [  -0.0279204025864601, -0.0281903147697449,  0.0001365508360323 ]
  - [  -0.0278872661292553, -0.0280593335628510,  0.0002352043520659 ]
  - [  -0.0278748814016581, -0.0280590932816267,  0.0002355215838179 ]
  - [  -0.0278755966573954, -0.0280599091202021,  0.0002345354150748 ]
  - [  -0.0282148607075214, -0.0280327126383781,  0.0002266090596095 ]
  - [  -0.0279148109257221, -0.0281868465244770,  0.0003265551058576 ]
  - [  -0.0279036182910204, -0.0279283896088600,  0.0001496520853834 ]
  - [  -0.0241976715624332, -0.0280611123889685, -0.0026124455034733 ]
  - [  -0.0242397673428059, -0.0280306208878756,  0.0030084494501352 ]
  - [  -0.0278411656618118, -0.0280584469437599,  0.0002355687320232 ]
  - [  -0.0277340300381184, -0.0279408767819405,  0.0004438608884811 ]
  - [  -0.0277407541871071, -0.0281758885830641,  0.0000335909426212 ]
  - [  -0.0278754588216543, -0.0280582718551159,  0.0002364851534367 ]
  - [  -0.0277325995266438, -0.0281617641448975,  0.0004360564053059 ]
  - [  -0.0277305208146572, -0.0279263891279697,  0.0000089220702648 ]
  - [  -0.0278762821108103, -0.0280593037605286,  0.0002366062253714 ]
  - [  -0.0278733335435390, -0.0280485153198242,  0.0002188928192481 ]
  - [  -0.0279157273471355, -0.0280544795095921,  0.0002325006062165 ]
  - [  -0.0278737396001816, -0.0280699729919434,  0.0002529171761125 ]
  - [  -0.0278742276132107, -0.0280695743858814,  0.0002204768825322 ]
  - [  -0.0279137827455997, -0.0280599705874920,  0.0002337951445952 ]
  - [  -0.0278744958341122, -0.0280481576919556,  0.0002512861974537 ]
  - [  -0.0277409851551056, -0.0280581489205360,  0.0001848591491580 ]
  - [  -0.0279416330158710, -0.0280597768723965,  0.0002359724603593 ]
  - [  -0.0277454107999802, -0.0280589200556278,  0.0002829126315191 ]
  - [   0.0316145233809948,  0.0280561931431293, -0.0031448532827199 ]
  - [   0.0279175750911236,  0.0280585065484047, -0.0002359875361435 ]
  - [   0.0314656496047974,  0.0280866026878357,  0.0024795930366963 ]
  - [   0.0280257053673267,  0.0279481224715710, -0.0000287014627247 ]
  - [   0.0278816055506468,  0.0280580576509237, -0.0002342865773244 ]
  - [   0.0280255489051342,  0.0281838048249483, -0.0004554907209240 ]
  - [   0.0280247963964939,  0.0281848423182964, -0.0000213893654291 ]
  - [   0.0278807766735554,  0.0280594360083342, -0.0002350265276618 ]
  - [   0.0280141718685627,  0.0279503911733627, -0.0004322894674260 ]
  - [   0.0275675021111965,  0.0280889980494976, -0.0002543497830629 ]
  - [   0.0278350450098515,  0.0279261711984873, -0.0003370568156242 ]
  - [   0.0278523117303848,  0.0281840134412050, -0.0001496132463217 ]
  - [   0.0275428090244532,  0.0280661508440971, -0.0002467706799507 ]
  - [   0.0278496071696281,  0.0281884651631117, -0.0003232657909393 ]
  - [   0.0278452690690756,  0.0279298759996891, -0.0001469701528549 ]
  - [   0.0278701968491077,  0.0280587151646614, -0.0002343002706766 ]
  - [   0.0278833415359259,  0.0280583780258894, -0.0002355240285397 ]
  - [   0.0278814993798733,  0.0280585326254368, -0.0002338141202927 ]
  - [   0.0278847068548203,  0.0280683375895023, -0.0002517458051443 ]
  - [   0.0278845578432083,  0.0280469357967377, -0.0002173939719796 ]
  - [   0.0278427228331566,  0.0280637480318546, -0.0002380041405559 ]
  - [   0.0280171893537045,  0.0280591845512390, -0.0002869019517675 ]
  - [   0.0280124731361866,  0.0280581004917622, -0.0001882056239992 ]
  - [   0.0278150476515293,  0.0280574746429920, -0.0002341801300645 ]
  - [   0.0278845988214016,  0.0280488859862089, -0.0002504681469873 ]
  - [   0.0278847925364971,  0.0280700549483299, -0.0002185361227021 ]
  - [   0.0278457365930080,  0.0280577465891838, -0.0002359994687140 ]
  - [   0.0008458411321044,  0.0000116880983114,  0.0000347457826138 ]
  - [  -0.0000804485753179, -0.0000057509168983, -0.0000538751482964 ]
  - [  -0.0000985274091363, -0.0000001955777407,  0.0000293292105198 ]
  - [  -0.0001471405848861, -0.0000001573935151, -0.0000038314610720 ]
  - [   0.0000619152560830,  0.0000570490956306, -0.0000806413590908 ]
  - [   0.0000661658123136, -0.0000585187226534,  0.0000849533826113 ]
  - [  -0.0001494102180004,  0.0000026822090149,  0.0000033769756556 ]
  - [   0.0000654356554151, -0.0000610193237662, -0.0000873059034348 ]
  - [   0.0000633550807834,  0.0000556902959943,  0.0000805612653494 ]
  - [   0.0000981129705906, -0.0007458440959454,  0.0000010374933481 ]
  - [   0.0003215214237571,  0.0005363980308175,  0.0000206325203180 ]
  - [   0.0002312390133739, -0.0000008344650269,  0.0000003185123205 ]
  - [   0.0002614967525005,  0.0006006350740790,  0.0000197775661945 ]
  - [   0.0001530172303319, -0.0006887027993798,  0.0000014621764421 ]
  - [   0.0002331538125873,  0.0000014500692487,  0.0000004712492228 ]
  - [   0.0000050095841289, -0.0000002523884177, -0.0000006519258022 ]
  - [   0.0000035222619772, -0.0000000270083547, -0.0000007525086403 ]
  - [  -0.0000068154186010, -0.0000009359791875, -0.0000005103647709 ]
  - [   0.0000612590956734,  0.0000556688755751, -0.0000798987457529 ]
  - [  -0.0001482699008193, -0.0000034328550100, -0.0000026397174224 ]
  - [   0.0000658829230815, -0.0000601764768362,  0.0000857729173731 ]
  - [  -0.0000818984117359, -0.0000051911920309, -0.0000489141821163 ]
  - [   0.0008455952047370,  0.0000130813568830,  0.0000448164064437 ]
  - [  -0.0000950794637902,  0.0000004563480616,  0.0000337007804774 ]
  - [   0.0000642128288746, -0.0000592600554228, -0.0000870325748110 ]
  - [  -0.0001512467861176,  0.0000055320560932,  0.0000045285560191 ]
  - [   0.0000618193298578,  0.0000576134771109,  0.0000806091993582 ]
- atom:    1
  displacement:
    [   0.0000544793229501,  0.0099998515990674,  0.0000000000000000 ]
  forces:
  - [  -0.0000235372572206, -0.0146082732826471, -0.0002487943274900 ]
  - [  -0.0000026265042834, -0.0001518436474726, -0.0000017174752429 ]
  - [  -0.0000020961160772, -0.0001523647224531, -0.0000018975697458 ]
  - [  -0.0000014736433513, -0.0001863312209025, -0.0000045084161684 ]
  - [  -0.0002994308597408, -0.0003340964904055,  0.0000001527369022 ]
  - [   0.0003217218909413, -0.0003644840326160, -0.0000024236505851 ]
  - [  -0.0000015888363123, -0.0001734627294354, -0.0000037184217945 ]
  - [   0.0003177318139933, -0.0003582809586078, -0.0000020554289222 ]
  - [  -0.0002951617352664, -0.0003282270627096,  0.0000002512242645 ]
  - [  -0.0000921948812902, -0.0000732573680580,  0.0000058162841015 ]
  - [   0.0000902671599761, -0.0000762547133490,  0.0000081347534433 ]
  - [  -0.0000003142049536,  0.0000112594570965, -0.0000137060997076 ]
  - [   0.0000957786105573, -0.0000770044280216, -0.0000180289498530 ]
  - [  -0.0000933407573029, -0.0000772628700361, -0.0000146808451973 ]
  - [  -0.0000001630978659,  0.0000110885594040,  0.0000131238484755 ]
  - [  -0.0000000866129994,  0.0000295025529340,  0.0000003491295502 ]
  - [   0.0000004502944648,  0.0000291373580694, -0.0000006789341569 ]
  - [   0.0000003319000825, -0.0000394138041884, -0.0000037999998312 ]
  - [  -0.0000935364514589, -0.0000739300739951,  0.0000093396520242 ]
  - [   0.0000001612352207,  0.0000114284921438, -0.0000133067369461 ]
  - [   0.0000918977893889, -0.0000769399339333,  0.0000111670233309 ]
  - [  -0.0000001167645678,  0.0000290959142148,  0.0000000183936208 ]
  - [  -0.0000000252621248, -0.0000396263785660, -0.0000001438893378 ]
  - [  -0.0000002672895789,  0.0000280974782072, -0.0000011117663234 ]
  - [   0.0000936418655328, -0.0000763237476349, -0.0000145942904055 ]
  - [  -0.0000004191533662,  0.0000112702837214,  0.0000134665751830 ]
  - [  -0.0000920040183701, -0.0000769446487539, -0.0000109235988930 ]
  - [  -0.0278317071497440, -0.0244195424020290, -0.0025363485328853 ]
  - [  -0.0279963798820972, -0.0279204249382019,  0.0004388035740703 ]
  - [  -0.0277458671480417, -0.0279109254479408,  0.0004628489259630 ]
  - [  -0.0278786420822144, -0.0280213020741940,  0.0002360708313063 ]
  - [  -0.0278789754956961, -0.0280564725399017,  0.0002355705946684 ]
  - [  -0.0278798639774323, -0.0280566215515137,  0.0002350199356442 ]
  - [  -0.0278600007295609, -0.0243784971535206,  0.0030854344367981 ]
  - [  -0.0277599468827248, -0.0279153045266867,  0.0000288749579340 ]
  - [  -0.0279801990836859, -0.0279126856476068,  0.0000369391564163 ]
  - [  -0.0278546027839184, -0.0283951200544834,  0.0002462044358253 ]
  - [  -0.0278664082288742, -0.0283710677176714,  0.0002542063593864 ]
  - [  -0.0278791300952435, -0.0280668456107378,  0.0002363249659538 ]
  - [  -0.0280066356062889, -0.0280938167124987,  0.0001462772488594 ]
  - [  -0.0277530606836081, -0.0280895102769136,  0.0001494940370321 ]
  - [  -0.0278779380023479, -0.0280541237443686,  0.0002362951636314 ]
  - [  -0.0277479682117701, -0.0280849672853947,  0.0003234650939703 ]
  - [  -0.0280106943100691, -0.0280997753143311,  0.0003356188535690 ]
  - [  -0.0278794206678867, -0.0280551388859749,  0.0002371557056904 ]
  - [  -0.0278673656284809, -0.0280537344515324,  0.0002186698839068 ]
  - [  -0.0278791524469852, -0.0279255434870720,  0.0001870641717687 ]
  - [  -0.0278903711587191, -0.0280532483011484,  0.0002178546274081 ]
  - [  -0.0278895162045956, -0.0280542448163033,  0.0002516985405236 ]
  - [  -0.0278783440589905, -0.0279209297150373,  0.0002856939099729 ]
  - [  -0.0278690792620182, -0.0280540883541107,  0.0002510219346732 ]
  - [  -0.0278802216053009, -0.0280928425490856,  0.0002368391724303 ]
  - [  -0.0278797894716263, -0.0281219072639942,  0.0002343433443457 ]
  - [  -0.0278744772076607, -0.0280946195125580,  0.0002374002942815 ]
  - [   0.0278859920799732,  0.0277213584631681, -0.0002235585125163 ]
  - [   0.0278795994818211,  0.0280501544475555, -0.0002356296754442 ]
  - [   0.0279078446328640,  0.0277469605207443, -0.0002156676346203 ]
  - [   0.0280097052454948,  0.0280291605740786, -0.0001459339109715 ]
  - [   0.0278784707188606,  0.0280622970312834, -0.0002338767080801 ]
  - [   0.0277457013726234,  0.0280152224004269, -0.0001340033486485 ]
  - [   0.0277515649795532,  0.0280269216746092, -0.0003238306380808 ]
  - [   0.0278781205415726,  0.0280636176466942, -0.0002350258291699 ]
  - [   0.0280025377869606,  0.0280322283506393, -0.0003209633287042 ]
  - [   0.0279265604913235,  0.0316458791494370, -0.0029510129243135 ]