phonopy:
  version: "2.37.1"
  frequency_unit_conversion_factor: 15.633302
  symmetry_tolerance: 1.00000e-05

space_group:
  type: "Imm2"
  number: 44
  Hall_symbol: "I 2 -2"

primitive_matrix:
- [  1.000000000000000,  0.000000000000000,  0.000000000000000 ]
- [  1.000000000000000, -1.000000000000000, -0.000000000000000 ]
- [  1.000000000000000,  0.000000000000000, -1.000000000000000 ]

supercell_matrix:
- [   2,   0,   0 ]
- [   0,   2,   0 ]
- [   0,   0,   2 ]

primitive_cell:
  lattice:
  - [     5.304577313509894,     1.498810159507056,     2.920728811772964 ] # a
  - [    -2.750263162254570,    -5.599256069800001,     0.000000000000000 ] # b
  - [     3.683925341335547,     4.100445910292945,    -2.920728811772964 ] # c
  points:
  - symbol: Li # 1
    coordinates: [  0.002845990718289,  0.002845989430585,  0.000000009044396 ]
    mass: 6.940000
  - symbol: Sn # 2
    coordinates: [  0.494007808141651,  0.994007806662516,  0.500000009914827 ]
    mass: 118.710000
  - symbol: Sn # 3
    coordinates: [  0.080347830840863,  0.334906437049661,  0.745441372943376 ]
    mass: 118.710000
  - symbol: Sn # 4
    coordinates: [  0.589465037430400,  0.334906433744435,  0.254558608054707 ]
    mass: 118.710000
  reciprocal_lattice: # without 2pi
  - [     0.160301636573539,    -0.078737546635025,     0.091648430030806 ] # a*
  - [     0.160301636573539,    -0.257332700622279,    -0.159083430391606 ] # b*
  - [     0.160301636573539,    -0.078737546635025,    -0.250731867643243 ] # c*

unit_cell:
  lattice:
  - [     6.238239492590870,     0.000000000000000,     0.000000000000000 ] # a
  - [     2.750263162254570,     5.599256069800001,     0.000000000000000 ] # b
  - [    -3.683925341335547,    -4.100445910292945,     2.920728811772964 ] # c
  points:
  - symbol: Li # 1
    coordinates: [  0.002845990718289,  0.000000001287704,  0.002845981673893 ]
    mass: 6.940000
    reduced_to: 1
  - symbol: Sn # 2
    coordinates: [  0.494007808141651,  0.500000001479135,  0.994007798226824 ]
    mass: 118.710000
    reduced_to: 2
  - symbol: Sn # 3
    coordinates: [  0.080347830840863,  0.745441393791202,  0.334906457897487 ]
    mass: 118.710000
    reduced_to: 3
  - symbol: Sn # 4
    coordinates: [  0.589465037430400,  0.254558603685965,  0.334906429375692 ]
    mass: 118.710000
    reduced_to: 4

supercell:
  lattice:
  - [    12.476478985181741,     0.000000000000000,     0.000000000000000 ] # a
  - [     5.500526324509140,    11.198512139600002,     0.000000000000000 ] # b
  - [    -7.367850682671095,    -8.200891820585889,     5.841457623545929 ] # c
  points:
  - symbol: Li # 1
    coordinates: [  0.001422995359144,  0.000000000643852,  0.001422990836946 ]
    mass: 6.940000
    reduced_to: 1
  - symbol: Li # 2
    coordinates: [  0.501422995359144,  0.000000000643852,  0.001422990836946 ]
    mass: 6.940000
    reduced_to: 1
  - symbol: Li # 3
    coordinates: [  0.001422995359144,  0.500000000643852,  0.001422990836946 ]
    mass: 6.940000
    reduced_to: 1
  - symbol: Li # 4
    coordinates: [  0.501422995359144,  0.500000000643852,  0.001422990836946 ]
    mass: 6.940000
    reduced_to: 1
  - symbol: Li # 5
    coordinates: [  0.001422995359144,  0.000000000643852,  0.501422990836946 ]
    mass: 6.940000
    reduced_to: 1
  - symbol: Li # 6
    coordinates: [  0.501422995359144,  0.000000000643852,  0.501422990836946 ]
    mass: 6.940000
    reduced_to: 1
  - symbol: Li # 7
    coordinates: [  0.001422995359144,  0.500000000643852,  0.501422990836946 ]
    mass: 6.940000
    reduced_to: 1
  - symbol: Li # 8
    coordinates: [  0.501422995359144,  0.500000000643852,  0.501422990836946 ]
    mass: 6.940000
    reduced_to: 1
  - symbol: Sn # 9
    coordinates: [  0.247003904070825,  0.250000000739567,  0.497003899113412 ]
    mass: 118.710000
    reduced_to: 9
  - symbol: Sn # 10
    coordinates: [  0.747003904070825,  0.250000000739567,  0.497003899113412 ]
    mass: 118.710000
    reduced_to: 9
  - symbol: Sn # 11
    coordinates: [  0.247003904070825,  0.750000000739568,  0.497003899113412 ]
    mass: 118.710000
    reduced_to: 9
  - symbol: Sn # 12
    coordinates: [  0.747003904070825,  0.750000000739568,  0.497003899113412 ]
    mass: 118.710000
    reduced_to: 9
  - symbol: Sn # 13
    coordinates: [  0.247003904070825,  0.250000000739567,  0.997003899113412 ]
    mass: 118.710000
    reduced_to: 9
  - symbol: Sn # 14
    coordinates: [  0.747003904070825,  0.250000000739567,  0.997003899113412 ]
    mass: 118.710000
    reduced_to: 9
  - symbol: Sn # 15
    coordinates: [  0.247003904070825,  0.750000000739568,  0.997003899113412 ]
    mass: 118.710000
    reduced_to: 9
  - symbol: Sn # 16
    coordinates: [  0.747003904070825,  0.750000000739568,  0.997003899113412 ]
    mass: 118.710000
    reduced_to: 9
  - symbol: Sn # 17
    coordinates: [  0.040173915420432,  0.372720696895601,  0.167453228948743 ]
    mass: 118.710000
    reduced_to: 17
  - symbol: Sn # 18
    coordinates: [  0.540173915420432,  0.372720696895601,  0.167453228948743 ]
    mass: 118.710000
    reduced_to: 17
  - symbol: Sn # 19
    coordinates: [  0.040173915420432,  0.872720696895601,  0.167453228948743 ]
    mass: 118.710000
    reduced_to: 17
  - symbol: Sn # 20
    coordinates: [  0.540173915420432,  0.872720696895601,  0.167453228948743 ]
    mass: 118.710000
    reduced_to: 17
  - symbol: Sn # 21
    coordinates: [  0.040173915420432,  0.372720696895601,  0.667453228948743 ]
    mass: 118.710000
    reduced_to: 17
  - symbol: Sn # 22
    coordinates: [  0.540173915420432,  0.372720696895601,  0.667453228948743 ]
    mass: 118.710000
    reduced_to: 17
  - symbol: Sn # 23
    coordinates: [  0.040173915420432,  0.872720696895601,  0.667453228948743 ]
    mass: 118.710000
    reduced_to: 17
  - symbol: Sn # 24
    coordinates: [  0.540173915420432,  0.872720696895601,  0.667453228948743 ]
    mass: 118.710000
    reduced_to: 17
  - symbol: Sn # 25
    coordinates: [  0.294732518715200,  0.127279301842983,  0.167453214687846 ]
    mass: 118.710000
    reduced_to: 25
  - symbol: Sn # 26
    coordinates: [  0.794732518715200,  0.127279301842983,  0.167453214687846 ]
    mass: 118.710000
    reduced_to: 25
  - symbol: Sn # 27
    coordinates: [  0.294732518715200,  0.627279301842983,  0.167453214687846 ]
    mass: 118.710000
    reduced_to: 25
  - symbol: Sn # 28
    coordinates: [  0.794732518715200,  0.627279301842983,  0.167453214687846 ]
    mass: 118.710000
    reduced_to: 25
  - symbol: Sn # 29
    coordinates: [  0.294732518715200,  0.127279301842983,  0.667453214687846 ]
    mass: 118.710000
    reduced_to: 25
  - symbol: Sn # 30
    coordinates: [  0.794732518715200,  0.127279301842983,  0.667453214687846 ]
    mass: 118.710000
    reduced_to: 25
  - symbol: Sn # 31
    coordinates: [  0.294732518715200,  0.627279301842983,  0.667453214687846 ]
    mass: 118.710000
    reduced_to: 25
  - symbol: Sn # 32
    coordinates: [  0.794732518715200,  0.627279301842983,  0.667453214687846 ]
    mass: 118.710000
    reduced_to: 25

displacements:
- atom:    1
  displacement:
    [   0.0100000000000000,  0.0000000000000000,  0.0000000000000000 ]
  forces:
  - [  -0.0114455642178655, -0.0010462831705809,  0.0001607956364751 ]
  - [  -0.0007138419896364, -0.0000723414123058,  0.0001436844468117 ]
  - [  -0.0000674715265632, -0.0003877244889736, -0.0000152727589011 ]
  - [  -0.0000796727836132,  0.0001046191900969, -0.0000108787789941 ]
  - [  -0.0002615423873067, -0.0003503933548927,  0.0003161020576954 ]
  - [   0.0000684503465891,  0.0000522807240486, -0.0001219157129526 ]
  - [  -0.0000612968578935, -0.0002540200948715, -0.0006738305091858 ]
  - [  -0.0004171589389443, -0.0002778172492981, -0.0002979729324579 ]
  - [  -0.0074866344220936,  0.0119045395404100, -0.0079234931617975 ]
  - [  -0.0077720666304231,  0.0122816264629364, -0.0087885092943907 ]
  - [  -0.0078987302258611,  0.0122539037838578, -0.0088120065629482 ]
  - [  -0.0075934212654829,  0.0119664315134287, -0.0082282945513725 ]
  - [  -0.0075636259280145,  0.0124484691768885, -0.0088086975738406 ]
  - [  -0.0071144932880998,  0.0112026259303093, -0.0087069394066930 ]
  - [  -0.0067624892108142,  0.0107411369681358, -0.0088270334526896 ]
  - [  -0.0075285658240318,  0.0124103408306837, -0.0087765632197261 ]
  - [  -0.0366968847811222, -0.0300979949533939,  0.0047496017068624 ]
  - [  -0.0373203419148922, -0.0316854007542133,  0.0043214648030698 ]
  - [  -0.0367455780506134, -0.0305704418569803,  0.0039604804478586 ]
  - [  -0.0373149923980236, -0.0317568480968475,  0.0043547935783863 ]
  - [  -0.0374213159084320, -0.0315045416355133,  0.0040006889030337 ]
  - [  -0.0373240411281586, -0.0317373424768448,  0.0043631130829453 ]
  - [  -0.0355584099888802, -0.0305507481098175,  0.0025997357442975 ]
  - [  -0.0372874848544598, -0.0317098237574100,  0.0044099483639002 ]
  - [   0.0477703213691711,  0.0196120068430901,  0.0052279094234109 ]
  - [   0.0484819971024990,  0.0192739125341177,  0.0035185604356229 ]
  - [   0.0449992790818214,  0.0195595808327198,  0.0043500196188688 ]
  - [   0.0449730195105076,  0.0194536633789539,  0.0043884972110391 ]
  - [   0.0449927933514118,  0.0195643361657858,  0.0043360134586692 ]
  - [   0.0448380820453167,  0.0194911547005177,  0.0043883197940886 ]
  - [   0.0453350469470024,  0.0192547962069511,  0.0044174324721098 ]
  - [   0.0469766035676003,  0.0204263199120760,  0.0059842607006431 ]
- atom:    1
  displacement:
    [  -0.0100000000000000,  0.0000000000000000,  0.0000000000000000 ]
  forces:
  - [   0.0115653369575739,  0.0009074863046408, -0.0000653918832541 ]
  - [   0.0007994091138244, -0.0000745709985495, -0.0000305622816086 ]
  - [   0.0001611234620214,  0.0002412237226963,  0.0001212256029248 ]
  - [   0.0001713549718261, -0.0002520643174648,  0.0001140423119068 ]
  - [   0.0003538252785802,  0.0002026762813330, -0.0002112081274390 ]
  - [   0.0000239796936512, -0.0001957081258297,  0.0002272892743349 ]
  - [   0.0001657642424107,  0.0001076813787222,  0.0007846169173717 ]
  - [   0.0005042757838964,  0.0001249741762877,  0.0003949198871851 ]
  - [  -0.0079152453690767,  0.0128000630065799, -0.0096687395125628 ]
  - [  -0.0076088132336736,  0.0124241635203362, -0.0088101560249925 ]
  - [  -0.0075007122941315,  0.0124467946588993, -0.0087844301015139 ]
  - [  -0.0077923359349370,  0.0127368709072471, -0.0093712899833918 ]
  - [  -0.0078255236148834,  0.0122532229870558, -0.0087869260460138 ]
  - [  -0.0082831606268883,  0.0135298985987902, -0.0088920267298818 ]
  - [  -0.0086135491728783,  0.0139202475547791, -0.0087751056998968 ]
  - [  -0.0078626042231917,  0.0122939180582762, -0.0088185034692287 ]
  - [  -0.0378831364214420, -0.0333839915692806,  0.0040017124265432 ]
  - [  -0.0372491553425789, -0.0318174920976162,  0.0044235019013286 ]
  - [  -0.0378350652754307, -0.0329456552863121,  0.0047922017984092 ]
  - [  -0.0372619032859802, -0.0317385792732239,  0.0043878871947527 ]
  - [  -0.0371431969106197, -0.0319880619645119,  0.0047386675141752 ]
  - [  -0.0372536145150661, -0.0317581929266453,  0.0043808533810079 ]
  - [  -0.0389807447791100, -0.0329148843884468,  0.0060965423472226 ]
  - [  -0.0372577682137489, -0.0317982621490955,  0.0043516526930034 ]
  - [   0.0422213524580002,  0.0193369109183550,  0.0035557816736400 ]
  - [   0.0412409678101540,  0.0196730382740498,  0.0052730576135218 ]
  - [   0.0448726713657379,  0.0193843916058540,  0.0043944688513875 ]
  - [   0.0449000485241413,  0.0194842927157879,  0.0043608448468149 ]
  - [   0.0448792725801468,  0.0193792097270489,  0.0044096540659666 ]
  - [   0.0450312830507755,  0.0194488950073719,  0.0043586408719420 ]
  - [   0.0445182211697102,  0.0196894798427820,  0.0043326057493687 ]
  - [   0.0428576804697514,  0.0184820368885994,  0.0027142115868628 ]
- atom:    9
  displacement:
    [   0.0100000000000000,  0.0000000000000000,  0.0000000000000000 ]
  forces:
  - [   0.0002641007304192, -0.0005190167576075,  0.0007268153131008 ]
  - [  -0.0000398224219680, -0.0002290699630976,  0.0001065963879228 ]
  - [  -0.0001477207988501, -0.0000844914466143, -0.0000055478885770 ]
  - [   0.0001446921378374, -0.0004615820944309,  0.0006320001557469 ]
  - [   0.0001779785379767,  0.0000061821192503,  0.0000534020364285 ]
  - [   0.0006364723667502, -0.0012526717036963,  0.0001429012045264 ]
  - [   0.0009605316445231, -0.0016328431665897,  0.0002207346260548 ]
  - [   0.0002108803018928,  0.0000053960829973,  0.0000611487776041 ]
  - [  -0.0292261540889740,  0.0087027177214622, -0.0095905652269721 ]
  - [  -0.0072363615036011,  0.0122695639729500, -0.0088361371308565 ]
  - [  -0.0075697610154748,  0.0124318748712540, -0.0087880659848452 ]
  - [  -0.0079403715208173,  0.0126138869673014, -0.0089301103726029 ]
  - [  -0.0075791198760271,  0.0125717725604773, -0.0088408244773746 ]
  - [  -0.0076491907238960,  0.0122858602553606, -0.0087237562984228 ]
  - [  -0.0082792462781072,  0.0108541715890169, -0.0103171430528164 ]
  - [  -0.0074669308960438,  0.0125190727412701, -0.0085403760895133 ]
  - [  -0.0373195409774780, -0.0314818471670151,  0.0042814360931516 ]
  - [  -0.0373146794736385, -0.0317620597779751,  0.0043224357068539 ]
  - [  -0.0353129506111145, -0.0299051646143198,  0.0071634491905570 ]
  - [  -0.0366350300610065, -0.0317080020904541,  0.0043686442077160 ]
  - [  -0.0322674438357353, -0.0320518240332603,  0.0024117729626596 ]
  - [  -0.0301063600927591, -0.0327493585646152,  0.0073630781844258 ]
  - [  -0.0374617688357830, -0.0316538810729980,  0.0041841398924589 ]
  - [  -0.0373709052801132, -0.0317349508404732,  0.0043923798948526 ]
  - [   0.0477584898471832,  0.0211780406534672,  0.0012823478318751 ]
  - [   0.0456578917801380,  0.0191387254744768,  0.0048312284052372 ]
  - [   0.0450788363814354,  0.0196228418499231,  0.0041064014658332 ]
  - [   0.0449484586715698,  0.0194498412311077,  0.0045698457397521 ]
  - [   0.0454893857240677,  0.0229898318648338,  0.0029109953902662 ]
  - [   0.0450543947517872,  0.0193392019718885,  0.0043038278818130 ]
  - [   0.0453770570456982,  0.0220736786723137,  0.0056230630725622 ]
  - [   0.0451642051339149,  0.0191741026937962,  0.0045138616114855 ]
- atom:    9
  displacement:
    [  -0.0100000000000000,  0.0000000000000000,  0.0000000000000000 ]
  forces:
  - [  -0.0001645516604185,  0.0003766268491745, -0.0006314227357507 ]
  - [   0.0001228125765920,  0.0000790711492300, -0.0000002346932888 ]
  - [   0.0002503301948309, -0.0000577308237553,  0.0001072129234672 ]
  - [  -0.0000545391812921,  0.0003092475235462, -0.0005152514204383 ]
  - [  -0.0000839279964566, -0.0001455079764128,  0.0000528898090124 ]
  - [  -0.0005323514342308,  0.0010750852525234, -0.0000388510525227 ]
  - [  -0.0008900426328182,  0.0015457086265087, -0.0001141875982285 ]
  - [  -0.0001228256151080, -0.0001543164253235,  0.0000416850671172 ]
  - [   0.0138535890728235,  0.0159477256238461, -0.0080639217048883 ]
  - [  -0.0081472294405103,  0.0124336127191782, -0.0087652318179607 ]
  - [  -0.0078189298510551,  0.0122708380222321, -0.0088085317984223 ]
  - [  -0.0074480753391981,  0.0120865721255541, -0.0086636980995536 ]
  - [  -0.0078085558488965,  0.0121342791244388, -0.0087550822645426 ]
  - [  -0.0077406656928360,  0.0124184451997280, -0.0088740754872561 ]
  - [  -0.0071076862514019,  0.0138540733605623, -0.0072712986730039 ]
  - [  -0.0079183820635080,  0.0121903046965599, -0.0090509383007884 ]
  - [  -0.0372533015906811, -0.0320229120552540,  0.0044673122465611 ]
  - [  -0.0372561067342758, -0.0317314043641090,  0.0044177682138979 ]
  - [  -0.0393235012888908, -0.0336727425456047,  0.0014660530723631 ]
  - [  -0.0380491241812706, -0.0317597165703773,  0.0043854387477040 ]
  - [  -0.0425688587129116, -0.0314346179366112,  0.0064477911219001 ]
  - [  -0.0441196337342262, -0.0307721570134163,  0.0015248404815793 ]
  - [  -0.0371152758598328, -0.0318548157811165,  0.0045659719035029 ]
  - [  -0.0372036062180996, -0.0317568294703960,  0.0043520312756300 ]
  - [   0.0422038920223713,  0.0178255904465914,  0.0073474356904626 ]
  - [   0.0441707670688629,  0.0198183655738831,  0.0038941917009652 ]
  - [   0.0448074601590633,  0.0193414706736803,  0.0046054203994572 ]
  - [   0.0449176765978336,  0.0194913391023874,  0.0041695944964886 ]
  - [   0.0443801060318947,  0.0158714838325977,  0.0058658504858613 ]
  - [   0.0448065251111984,  0.0196064338088036,  0.0044437637552619 ]
  - [   0.0444975197315216,  0.0169284641742706,  0.0031585339456797 ]
  - [   0.0447164811193943,  0.0197580214589834,  0.0042389295995235 ]
- atom:   17
  displacement:
    [   0.0100000000000000,  0.0000000000000000,  0.0000000000000000 ]
  forces:
  - [   0.0006346842274070,  0.0011943243443966,  0.0002733124420047 ]
  - [   0.0000087274238467, -0.0000511296093464,  0.0000248942524195 ]
  - [   0.0005975039675832,  0.0011724289506674, -0.0003909161314368 ]
  - [   0.0000235624611378,  0.0000533647835255, -0.0000346358865499 ]
  - [  -0.0000961460173130, -0.0000207331031561, -0.0002159466966987 ]
  - [   0.0000135293230414,  0.0000633373856544, -0.0000183703377843 ]
  - [   0.0017279135063291,  0.0010479893535376, -0.0013147033751011 ]
  - [   0.0000156396999955, -0.0000891815871000,  0.0001066327095032 ]
  - [  -0.0077267307788134,  0.0123965386301279, -0.0087761292234063 ]
  - [  -0.0077219884842634,  0.0123510062694550, -0.0088712619617581 ]
  - [  -0.0056581469252706,  0.0144455945119262, -0.0062668612226844 ]
  - [  -0.0069341021589935,  0.0121991820633411, -0.0087261376902461 ]
  - [  -0.0024155129212886,  0.0126123689115047, -0.0108823087066412 ]
  - [  -0.0008546119788662,  0.0127404099330306, -0.0066485712304711 ]
  - [  -0.0078697064891458,  0.0122580733150244, -0.0088895801454782 ]
  - [  -0.0077778054401278,  0.0123178493231535, -0.0087368674576283 ]
  - [  -0.0584746040403843, -0.0302730500698090,  0.0020978003740311 ]
  - [  -0.0367670729756355, -0.0317192412912846,  0.0042662243358791 ]
  - [  -0.0373529084026814, -0.0318601056933403,  0.0043773418292403 ]
  - [  -0.0367990769445896, -0.0323017947375774,  0.0045757899060845 ]
  - [  -0.0373716354370117, -0.0318985395133495,  0.0044333552941680 ]
  - [  -0.0372478254139423, -0.0317780263721943,  0.0045390026643872 ]
  - [  -0.0373556390404701, -0.0323062539100647,  0.0023461275268346 ]
  - [  -0.0370230749249458, -0.0315054729580879,  0.0046157510951161 ]
  - [   0.0465822480618954,  0.0160694643855095,  0.0045845191925764 ]
  - [   0.0451809987425804,  0.0196800883859396,  0.0043577309697866 ]
  - [   0.0451851636171341,  0.0196828767657280,  0.0043895663693547 ]
  - [   0.0458908565342426,  0.0164848975837231,  0.0040185712277889 ]
  - [   0.0453861169517040,  0.0199933424592018,  0.0041644135490060 ]
  - [   0.0445137768983841,  0.0190035179257393,  0.0060315094888210 ]
  - [   0.0449863448739052,  0.0187643356621265,  0.0061388490721583 ]
  - [   0.0446995683014393,  0.0192725043743849,  0.0044309068471193 ]
- atom:   17
  displacement:
    [  -0.0100000000000000,  0.0000000000000000,  0.0000000000000000 ]
  forces:
  - [  -0.0005519930273294, -0.0013794526457787, -0.0001810109242797 ]
  - [   0.0000798599794507, -0.0000913720577955,  0.0000796886160970 ]
  - [  -0.0004919869825244, -0.0012929569929838,  0.0004866272211075 ]
  - [   0.0000766627490520, -0.0002096146345139,  0.0001392392441630 ]
  - [   0.0001814235001802, -0.0001246519386768,  0.0003270534798503 ]
  - [   0.0000840909779072, -0.0002118647098541,  0.0001333896070719 ]
  - [  -0.0016934536397457, -0.0012390892952681,  0.0014834962785244 ]
  - [   0.0000453991815448, -0.0000507198274136, -0.0000166259706020 ]
  - [  -0.0076606366783381,  0.0123131293803453, -0.0088251391425729 ]
  - [  -0.0076635684818029,  0.0123489880934358, -0.0087234061211348 ]
  - [  -0.0096680680289865,  0.0103347692638636, -0.0112277874723077 ]
  - [  -0.0083488617092371,  0.0124793210998178, -0.0088796205818653 ]
  - [  -0.0127155315130949,  0.0120938904583454, -0.0068228212185204 ]
  - [  -0.0148672312498093,  0.0119581688195467, -0.0110706510022283 ]
  - [  -0.0075230458751321,  0.0124518685042858, -0.0087102996185422 ]
  - [  -0.0076103601604700,  0.0123813152313232, -0.0088568385690451 ]
  - [  -0.0161554291844368, -0.0332023352384567,  0.0067505631595850 ]
  - [  -0.0378075540065765, -0.0317796543240547,  0.0044803121127188 ]
  - [  -0.0372211821377277, -0.0316368713974953,  0.0043672020547092 ]
  - [  -0.0377726964652538, -0.0311982706189156,  0.0041705397889018 ]
  - [  -0.0372012630105019, -0.0315937846899033,  0.0043104002252221 ]
  - [  -0.0373257324099541, -0.0317231118679047,  0.0042091784998775 ]
  - [  -0.0372126027941704, -0.0312016922980547,  0.0063838548958302 ]
  - [  -0.0375550910830498, -0.0319953262805939,  0.0041271164081991 ]
  - [   0.0433182492852211,  0.0227796547114849,  0.0041609834879637 ]
  - [   0.0446966141462326,  0.0192669145762920,  0.0043889093212783 ]
  - [   0.0446799732744694,  0.0192543324083090,  0.0043557868339121 ]
  - [   0.0439703911542892,  0.0225348193198442,  0.0047359298914671 ]
  - [   0.0444878004491329,  0.0189518574625254,  0.0045792036689818 ]
  - [   0.0453717783093452,  0.0199391469359398,  0.0027008582837880 ]
  - [   0.0448763594031334,  0.0201755296438932,  0.0026274025440216 ]
  - [   0.0451776757836342,  0.0196670480072498,  0.0043164892122149 ]
- atom:   17
  displacement:
    [   0.0044087177637911,  0.0089757009575427,  0.0000000000000000 ]
  forces:
  - [   0.0017476379871368,  0.0030297134071589,  0.0008028699085116 ]
  - [   0.0000864667817950, -0.0000532846897840,  0.0000615287572145 ]
  - [   0.0013888170942664,  0.0024423189461231, -0.0008322848007083 ]
  - [   0.0000282060354948,  0.0000051744282246,  0.0000268537551165 ]
  - [   0.0001972736790776,  0.0002971235662699,  0.0001043425872922 ]
  - [   0.0000409381464124, -0.0000072102993727,  0.0000013476237655 ]
  - [   0.0018284395337105,  0.0013166461139917, -0.0012519331648946 ]
  - [   0.0000773780047894, -0.0001975595951080,  0.0000687642022967 ]
  - [  -0.0074714655056596,  0.0130456890910864, -0.0091407671570778 ]
  - [  -0.0077200871892273,  0.0123806158080697, -0.0088751409202814 ]
  - [  -0.0050767082720995,  0.0142031274735928, -0.0062880162149668 ]
  - [  -0.0073463763110340,  0.0123423617333174, -0.0084494855254889 ]
  - [  -0.0056839566677809,  0.0118527282029390, -0.0098519111052155 ]
  - [  -0.0055147577077150,  0.0119001911953092, -0.0080386716872454 ]
  - [  -0.0076819816604257,  0.0125963445752859, -0.0088348053395748 ]
  - [  -0.0077218683436513,  0.0125015778467059, -0.0088364910334349 ]
  - [  -0.0453064739704132, -0.0471609979867935,  0.0045209201052785 ]
  - [  -0.0370304100215435, -0.0316587276756763,  0.0042943884618580 ]
  - [  -0.0374158695340157, -0.0320378281176090,  0.0043698949739337 ]
  - [  -0.0375687554478645, -0.0310352928936481,  0.0041530868038535 ]
  - [  -0.0374645218253136, -0.0318934209644794,  0.0045208851806819 ]
  - [  -0.0372932553291321, -0.0315650440752506,  0.0041381432674825 ]
  - [  -0.0378173775970936, -0.0316249355673790,  0.0064230081625283 ]
  - [  -0.0369501560926437, -0.0315949320793152,  0.0044876155443490 ]
  - [   0.0432388260960579,  0.0213688425719738,  0.0042431536130607 ]
  - [   0.0451797470450401,  0.0196209400892258,  0.0043619023635983 ]
  - [   0.0452260188758373,  0.0196078922599554,  0.0043488675728440 ]
  - [   0.0431884974241257,  0.0221616290509701,  0.0044477535411716 ]
  - [   0.0451987497508526,  0.0198405943810940,  0.0043516997247934 ]
  - [   0.0444962941110134,  0.0197432562708855,  0.0027504423633218 ]
  - [   0.0445003248751163,  0.0192200280725956,  0.0036144489422441 ]
  - [   0.0446403771638870,  0.0193524621427059,  0.0043076057918370 ]
- atom:   17
  displacement:
    [  -0.0044087177637911, -0.0089757009575427,  0.0000000000000000 ]
  forces:
  - [  -0.0017260173335671, -0.0033303517848253, -0.0007569091394544 ]
  - [  -0.0000009220093489, -0.0000915545970201,  0.0000419393181801 ]
  - [  -0.0012237196788192, -0.0024558510631323,  0.0008854074403644 ]
  - [   0.0000682175159454, -0.0001556519418955,  0.0000789444893599 ]
  - [  -0.0001138532534242, -0.0004594046622515, -0.0000057676807046 ]
  - [   0.0000532725825906, -0.0001397542655468,  0.0001064306125045 ]
  - [  -0.0018014544621110, -0.0014900900423527,  0.0014179386198521 ]
  - [   0.0000115409493446,  0.0000498536974192,  0.0000335192307830 ]
  - [  -0.0079282764345407,  0.0116145117208362, -0.0084389569237828 ]
  - [  -0.0076666050590575,  0.0123200323432684, -0.0087200291454792 ]
  - [  -0.0102253146469593,  0.0105443112552166, -0.0112170260399580 ]
  - [  -0.0080153290182352,  0.0123691773042083, -0.0091188736259937 ]
  - [  -0.0096711395308375,  0.0128305703401566, -0.0077638435177505 ]
  - [  -0.0099154096096754,  0.0128266196697950, -0.0095771569758654 ]
  - [  -0.0077097145840526,  0.0121111050248146, -0.0087627097964287 ]
  - [  -0.0076677128672600,  0.0121987052261829, -0.0087579470127821 ]
  - [  -0.0292823668569326, -0.0163184162229300,  0.0041911052539945 ]
  - [  -0.0375428423285484, -0.0318396426737309,  0.0044481479562819 ]
  - [  -0.0371579304337502, -0.0314594916999340,  0.0043699415400624 ]
  - [  -0.0370073355734348, -0.0324582383036613,  0.0045906836166978 ]
  - [  -0.0371157154440880, -0.0316045545041561,  0.0042287344112992 ]
  - [  -0.0372784212231636, -0.0319326817989349,  0.0046081845648587 ]
  - [  -0.0367638953030109, -0.0318785905838013,  0.0023315323051065 ]
  - [  -0.0376244857907295, -0.0319027751684189,  0.0042595127597451 ]
  - [   0.0466806739568710,  0.0175386089831591,  0.0044980747625232 ]
  - [   0.0446928106248379,  0.0193203259259462,  0.0043864878825843 ]
  - [   0.0446435138583183,  0.0193314105272293,  0.0043970672413707 ]
  - [   0.0466304048895836,  0.0168346371501684,  0.0042963568121195 ]
  - [   0.0446711517870426,  0.0190989840775728,  0.0043960195034742 ]
  - [   0.0453704372048378,  0.0191920492798090,  0.0059871999546885 ]
  - [   0.0453742891550064,  0.0197464656084776,  0.0051231109537184 ]
  - [   0.0452421270310879,  0.0195896737277508,  0.0044428869150579 ]

force_constants:
  format: "full"
  shape: [ 32, 32 ]
  elements:
  - # (1, 1)
    - [     1.150542699043075,     0.097687940551661,    -0.011308754142168 ]
    - [     0.097687940551661,     1.054577298932239,     0.018153960900633 ]
    - [    -0.011308754142168,     0.018153960900633,     1.016169618939596 ]
  - # (1, 2)
    - [     0.075659890906630,    -0.000107587542489,    -0.008709712789503 ]
    - [    -0.000107579410019,    -0.003963567856160,    -0.003320064064669 ]
    - [    -0.008709717908979,    -0.003320062975447,    -0.003115375181112 ]
  - # (1, 3)
    - [     0.011427521918625,     0.031442303680940,     0.006819850106532 ]
    - [     0.031442303463316,     0.060268817729564,     0.006353853000465 ]
    - [     0.006819851686051,     0.006353854188330,    -0.003115376177309 ]
  - # (1, 4)
    - [     0.012549028610252,    -0.017834738231489,     0.006246682442986 ]
    - [    -0.017834738683905,     0.030069305263251,    -0.010027819150469 ]
    - [     0.006246681807834,    -0.010027819546128,     0.028780768467827 ]
  - # (1, 5)
    - [     0.030766235899513,     0.027654335844663,    -0.026358941728923 ]
    - [     0.027654337097502,     0.022594673514916,    -0.025649382873659 ]
    - [    -0.026358940019321,    -0.025649379099190,     0.015220049299685 ]
  - # (1, 6)
    - [    -0.002225893026069,    -0.012400004857226,     0.017460878894998 ]
    - [    -0.012400004857226,     0.009955479752085,    -0.028029999208939 ]
    - [     0.017460878894998,    -0.028029999208939,    -0.016976492079926 ]
  - # (1, 7)
    - [     0.011350696493016,     0.018084517656324,     0.072923007057532 ]
    - [     0.018084517203909,    -0.006414927313132,    -0.117063504551189 ]
    - [     0.072923006422380,    -0.117063504946847,    -0.162418068263486 ]
  - # (1, 8)
    - [     0.046069324680665,     0.020137705795925,     0.034643019237568 ]
    - [     0.020137716281911,     0.007291582098614,     0.012350914937723 ]
    - [     0.034643020201293,     0.012350908954724,     0.015220045230954 ]
  - # (1, 9)
    - [    -0.021433952604277,     0.044779079806617,    -0.087285834299319 ]
    - [     0.044779075363785,    -0.065423419855107,     0.140120160441928 ]
    - [    -0.067950588102184,     0.109081242084826,    -0.263672944050132 ]
  - # (1, 10)
    - [     0.008142610805515,     0.007121848937889,    -0.001086546512552 ]
    - [     0.015406735550829,     0.011667069490814,    -0.001006198869983 ]
    - [    -0.005338045517931,    -0.003654608204473,     0.000277896909414 ]
  - # (1, 11)
    - [     0.019896875976372,     0.009633230418806,     0.001382161324744 ]
    - [     0.001348346809790,    -0.000087197934361,     0.000531648145344 ]
    - [     0.005633656919374,     0.003180055567475,     0.000277895862851 ]
  - # (1, 12)
    - [    -0.009955409156720,     0.038531969040063,    -0.057179579009483 ]
    - [     0.038531995576260,    -0.047807986782940,     0.091790603230217 ]
    - [    -0.057369458469518,     0.092095337216048,    -0.179334556768470 ]
  - # (1, 13)
    - [    -0.013098892142558,    -0.009757956086334,     0.001083110948621 ]
    - [    -0.007590448866581,    -0.009046638772749,     0.001793828622806 ]
    - [    -0.000029174842432,     0.001100946490646,    -0.001396942858377 ]
  - # (1, 14)
    - [    -0.058444952656704,     0.116372354953175,    -0.009248438258401 ]
    - [     0.116372349813030,    -0.172765302856746,     0.014846534198904 ]
    - [    -0.009058592586579,     0.014541777233023,    -0.005887700107717 ]
  - # (1, 15)
    - [    -0.092547902190226,     0.158938499512801,     0.002622972036562 ]
    - [     0.158938566255883,    -0.248683965923429,    -0.004210656727086 ]
    - [    -0.016712273137628,     0.026828259651663,    -0.009298452667441 ]
  - # (1, 16)
    - [    -0.016699266480930,    -0.005822002677627,    -0.002087598164268 ]