# Thermal properties / unit cell (natom)

unit:
  temperature:   K
  free_energy:   kJ/mol
  entropy:       J/K/mol
  heat_capacity: J/K/mol

natom: 4    
cutoff_frequency: 0.00000
num_modes: 252960
num_integrated_modes: 252957

zero_point_energy:       6.9321794

thermal_properties:
- temperature:         0.0000000
  free_energy:         6.9321794
  entropy:             0.0000000
  heat_capacity:       0.0000000
  energy:              6.9321794

- temperature:        10.0000000
  free_energy:         6.9295105
  entropy:             1.2002553
  heat_capacity:       4.1380246
  energy:              6.9415131

- temperature:        20.0000000
  free_energy:         6.8823444
  entropy:             9.4822087
  heat_capacity:      23.0178113
  energy:              7.0719886

- temperature:        30.0000000
  free_energy:         6.7250460
  entropy:            22.2875718
  heat_capacity:      40.3209474
  energy:              7.3936731

- temperature:        40.0000000
  free_energy:         6.4351759
  entropy:            35.6148011
  heat_capacity:      52.1506429
  energy:              7.8597679

- temperature:        50.0000000
  free_energy:         6.0153134
  entropy:            48.2025669
  heat_capacity:      60.5683991
  energy:              8.4254417

- temperature:        60.0000000
  free_energy:         5.4743170
  entropy:            59.8392441
  heat_capacity:      67.0207370
  energy:              9.0646716

- temperature:        70.0000000
  free_energy:         4.8215469
  entropy:            70.5713831
  heat_capacity:      72.1693294
  energy:              9.7615437

- temperature:        80.0000000
  free_energy:         4.0655998
  entropy:            80.4902169
  heat_capacity:      76.3420694
  energy:             10.5048171

- temperature:        90.0000000
  free_energy:         3.2141541
  entropy:            89.6852435
  heat_capacity:      79.7455013
  energy:             11.2858261

- temperature:       100.0000000
  free_energy:         2.2740400
  entropy:            98.2364026
  heat_capacity:      82.5338508
  energy:             12.0976803

- temperature:       110.0000000
  free_energy:         1.2513374
  entropy:           106.2138707
  heat_capacity:      84.8294300
  energy:             12.9348632

- temperature:       120.0000000
  free_energy:         0.1514694
  entropy:           113.6790439
  heat_capacity:      86.7300817
  energy:             13.7929547

- temperature:       130.0000000
  free_energy:        -1.0207154
  entropy:           120.6855786
  heat_capacity:      88.3136859
  energy:             14.6684098

- temperature:       140.0000000
  free_energy:        -2.2608703
  entropy:           127.2803487
  heat_capacity:      89.6419038
  energy:             15.5583785

- temperature:       150.0000000
  free_energy:        -3.5650869
  entropy:           133.5043132
  heat_capacity:      90.7634318
  energy:             16.4605600

- temperature:       160.0000000
  free_energy:        -4.9298404
  entropy:           139.3932985
  heat_capacity:      91.7167406
  energy:             17.3730873

- temperature:       170.0000000
  free_energy:        -6.3519414
  entropy:           144.9786926
  heat_capacity:      92.5322998
  energy:             18.2944364

- temperature:       180.0000000
  free_energy:        -7.8284946
  entropy:           150.2880556
  heat_capacity:      93.2343409
  energy:             19.2233555

- temperature:       190.0000000
  free_energy:        -9.3568636
  entropy:           155.3456492
  heat_capacity:      93.8422322
  energy:             20.1588098

- temperature:       200.0000000
  free_energy:       -10.9346400
  entropy:           160.1728924
  heat_capacity:      94.3715427
  energy:             21.0999385

- temperature:       210.0000000
  free_energy:       -12.5596170
  entropy:           164.7887522
  heat_capacity:      94.8348627
  energy:             22.0460209

- temperature:       220.0000000
  free_energy:       -14.2297668
  entropy:           169.2100768
  heat_capacity:      95.2424355
  energy:             22.9964501

- temperature:       230.0000000
  free_energy:       -15.9432203
  entropy:           173.4518794
  heat_capacity:      95.6026458
  energy:             23.9507119

- temperature:       240.0000000
  free_energy:       -17.6982508
  entropy:           177.5275798
  heat_capacity:      95.9223983
  energy:             24.9083683

- temperature:       250.0000000
  free_energy:       -19.4932585
  entropy:           181.4492108
  heat_capacity:      96.2074118
  energy:             25.8690442

- temperature:       260.0000000
  free_energy:       -21.3267577
  entropy:           185.2275939
  heat_capacity:      96.4624501
  energy:             26.8324167

- temperature:       270.0000000
  free_energy:       -23.1973655
  entropy:           188.8724896
  heat_capacity:      96.6915026
  energy:             27.7982067

- temperature:       280.0000000
  free_energy:       -25.1037920
  entropy:           192.3927266
  heat_capacity:      96.8979280
  energy:             28.7661714

- temperature:       290.0000000
  free_energy:       -27.0448313
  entropy:           195.7963124
  heat_capacity:      97.0845678
  energy:             29.7360993

- temperature:       300.0000000
  free_energy:       -29.0193538
  entropy:           199.0905290
  heat_capacity:      97.2538378
  energy:             30.7078049

- temperature:       310.0000000
  free_energy:       -31.0262995
  entropy:           202.2820148
  heat_capacity:      97.4078010
  energy:             31.6811251

- temperature:       320.0000000
  free_energy:       -33.0646719
  entropy:           205.3768367
  heat_capacity:      97.5482269
  energy:             32.6559158

- temperature:       330.0000000
  free_energy:       -35.1335326
  entropy:           208.3805521
  heat_capacity:      97.6766395
  energy:             33.6320496

- temperature:       340.0000000
  free_energy:       -37.2319963
  entropy:           211.2982627
  heat_capacity:      97.7943566
  energy:             34.6094130

- temperature:       350.0000000
  free_energy:       -39.3592269
  entropy:           214.1346622
  heat_capacity:      97.9025221
  energy:             35.5879049

- temperature:       360.0000000
  free_energy:       -41.5144330
  entropy:           216.8940776
  heat_capacity:      98.0021324
  energy:             36.5674349

- temperature:       370.0000000
  free_energy:       -43.6968652
  entropy:           219.5805057
  heat_capacity:      98.0940585
  energy:             37.5479219

- temperature:       380.0000000
  free_energy:       -45.9058122
  entropy:           222.1976453
  heat_capacity:      98.1790643
  energy:             38.5292930

- temperature:       390.0000000
  free_energy:       -48.1405986
  entropy:           224.7489256
  heat_capacity:      98.2578220
  energy:             39.5114824

- temperature:       400.0000000
  free_energy:       -50.4005818
  entropy:           227.2375311
  heat_capacity:      98.3309244
  energy:             40.4944306

- temperature:       410.0000000
  free_energy:       -52.6851502
  entropy:           229.6664243
  heat_capacity:      98.3988966
  energy:             41.4780838

- temperature:       420.0000000
  free_energy:       -54.9937205
  entropy:           232.0383655
  heat_capacity:      98.4622043
  energy:             42.4623930

- temperature:       430.0000000
  free_energy:       -57.3257362
  entropy:           234.3559302
  heat_capacity:      98.5212618
  energy:             43.4473137

- temperature:       440.0000000
  free_energy:       -59.6806659
  entropy:           236.6215254
  heat_capacity:      98.5764391
  energy:             44.4328053

- temperature:       450.0000000
  free_energy:       -62.0580010
  entropy:           238.8374038
  heat_capacity:      98.6280666
  energy:             45.4188307

- temperature:       460.0000000
  free_energy:       -64.4572553
  entropy:           241.0056763
  heat_capacity:      98.6764407
  energy:             46.4053558

- temperature:       470.0000000
  free_energy:       -66.8779625
  entropy:           243.1283235
  heat_capacity:      98.7218277
  energy:             47.3923495

- temperature:       480.0000000
  free_energy:       -69.3196759
  entropy:           245.2072064
  heat_capacity:      98.7644672
  energy:             48.3797832

- temperature:       490.0000000
  free_energy:       -71.7819666
  entropy:           247.2440756
  heat_capacity:      98.8045755
  energy:             49.3676304

- temperature:       500.0000000
  free_energy:       -74.2644228
  entropy:           249.2405796
  heat_capacity:      98.8423481
  energy:             50.3558669

- temperature:       510.0000000
  free_energy:       -76.7666488
  entropy:           251.1982726
  heat_capacity:      98.8779620
  energy:             51.3444702

- temperature:       520.0000000
  free_energy:       -79.2882638
  entropy:           253.1186218
  heat_capacity:      98.9115779
  energy:             52.3334195

- temperature:       530.0000000
  free_energy:       -81.8289014
  entropy:           255.0030132
  heat_capacity:      98.9433420
  energy:             53.3226956

- temperature:       540.0000000
  free_energy:       -84.3882086
  entropy:           256.8527578
  heat_capacity:      98.9733871
  energy:             54.3122806

- temperature:       550.0000000
  free_energy:       -86.9658452
  entropy:           258.6690968
  heat_capacity:      99.0018346
  energy:             55.3021580

- temperature:       560.0000000
  free_energy:       -89.5614831
  entropy:           260.4532062
  heat_capacity:      99.0287954
  energy:             56.2923124

- temperature:       570.0000000
  free_energy:       -92.1748056
  entropy:           262.2062017
  heat_capacity:      99.0543710
  energy:             57.2827293

- temperature:       580.0000000
  free_energy:       -94.8055070
  entropy:           263.9291422
  heat_capacity:      99.0786542
  energy:             58.2733955

- temperature:       590.0000000
  free_energy:       -97.4532917
  entropy:           265.6230339
  heat_capacity:      99.1017304
  energy:             59.2642984

- temperature:       600.0000000
  free_energy:      -100.1178740
  entropy:           267.2888339
  heat_capacity:      99.1236781
  energy:             60.2554263

- temperature:       610.0000000
  free_energy:      -102.7989777
  entropy:           268.9274527
  heat_capacity:      99.1445693
  energy:             61.2467684

- temperature:       620.0000000
  free_energy:      -105.4963354
  entropy:           270.5397577
  heat_capacity:      99.1644706
  energy:             62.2383144

- temperature:       630.0000000
  free_energy:      -108.2096879
  entropy:           272.1265757
  heat_capacity:      99.1834434
  energy:             63.2300547

- temperature:       640.0000000
  free_energy:      -110.9387846
  entropy:           273.6886952
  heat_capacity:      99.2015444
  energy:             64.2219804

- temperature:       650.0000000
  free_energy:      -113.6833820
  entropy:           275.2268691
  heat_capacity:      99.2188261
  energy:             65.2140829

- temperature:       660.0000000
  free_energy:      -116.4432445
  entropy:           276.7418164
  heat_capacity:      99.2353370
  energy:             66.2063543

- temperature:       670.0000000
  free_energy:      -119.2181432
  entropy:           278.2342245
  heat_capacity:      99.2511221
  energy:             67.1987872

- temperature:       680.0000000
  free_energy:      -122.0078561
  entropy:           279.7047508
  heat_capacity:      99.2662233
  energy:             68.1913745

- temperature:       690.0000000
  free_energy:      -124.8121674
  entropy:           281.1540245
  heat_capacity:      99.2806794
  energy:             69.1841095

- temperature:       700.0000000
  free_energy:      -127.6308677
  entropy:           282.5826483
  heat_capacity:      99.2945266
  energy:             70.1769861

- temperature:       710.0000000
  free_energy:      -130.4637535
  entropy:           283.9911994
  heat_capacity:      99.3077985
  energy:             71.1699981

- temperature:       720.0000000
  free_energy:      -133.3106267
  entropy:           285.3802318
  heat_capacity:      99.3205264
  energy:             72.1631402

- temperature:       730.0000000
  free_energy:      -136.1712948
  entropy:           286.7502764
  heat_capacity:      99.3327397
  energy:             73.1564070

- temperature:       740.0000000
  free_energy:      -139.0455706
  entropy:           288.1018432
  heat_capacity:      99.3444655
  energy:             74.1497934

- temperature:       750.0000000
  free_energy:      -141.9332717
  entropy:           289.4354219
  heat_capacity:      99.3557296
  energy:             75.1432947

- temperature:       760.0000000
  free_energy:      -144.8342206
  entropy:           290.7514831
  heat_capacity:      99.3665557
  energy:             76.1369065

- temperature:       770.0000000
  free_energy:      -147.7482445
  entropy:           292.0504792
  heat_capacity:      99.3769662
  energy:             77.1306245

- temperature:       780.0000000
  free_energy:      -150.6751748
  entropy:           293.3328453
  heat_capacity:      99.3869821
  energy:             78.1244445

- temperature:       790.0000000
  free_energy:      -153.6148474
  entropy:           294.5990003
  heat_capacity:      99.3966231
  energy:             79.1183628

- temperature:       800.0000000
  free_energy:      -156.5671021
  entropy:           295.8493474
  heat_capacity:      99.4059075
  energy:             80.1123758

- temperature:       810.0000000
  free_energy:      -159.5317829
  entropy:           297.0842750
  heat_capacity:      99.4148527
  energy:             81.1064799

- temperature:       820.0000000
  free_energy:      -162.5087375
  entropy:           298.3041576
  heat_capacity:      99.4234751
  energy:             82.1006718

- temperature:       830.0000000
  free_energy:      -165.4978171
  entropy:           299.5093560
  heat_capacity:      99.4317899
  energy:             83.0949483

- temperature:       840.0000000
  free_energy:      -168.4988768
  entropy:           300.7002183
  heat_capacity:      99.4398116
  energy:             84.0893066

- temperature:       850.0000000
  free_energy:      -171.5117748
  entropy:           301.8770805
  heat_capacity:      99.4475537
  energy:             85.0837436

- temperature:       860.0000000
  free_energy:      -174.5363728
  entropy:           303.0402670
  heat_capacity:      99.4550291
  energy:             86.0782568

- temperature:       870.0000000
  free_energy:      -177.5725356
  entropy:           304.1900908
  heat_capacity:      99.4622499
  energy:             87.0728434

- temperature:       880.0000000
  free_energy:      -180.6201311
  entropy:           305.3268546
  heat_capacity:      99.4692275
  energy:             88.0675010

- temperature:       890.0000000
  free_energy:      -183.6790302
  entropy:           306.4508509
  heat_capacity:      99.4759727
  energy:             89.0622272

- temperature:       900.0000000
  free_energy:      -186.7491065
  entropy:           307.5623624
  heat_capacity:      99.4824956
  energy:             90.0570197

- temperature:       910.0000000
  free_energy:      -189.8302367
  entropy:           308.6616627
  heat_capacity:      99.4888059
  energy:             91.0518764

- temperature:       920.0000000
  free_energy:      -192.9222999
  entropy:           309.7490164
  heat_capacity:      99.4949128
  energy:             92.0467951

- temperature:       930.0000000
  free_energy:      -196.0251781
  entropy:           310.8246796
  heat_capacity:      99.5008249
  energy:             93.0417740

- temperature:       940.0000000
  free_energy:      -199.1387554
  entropy:           311.8889004
  heat_capacity:      99.5065503
  energy:             94.0368110

- temperature:       950.0000000
  free_energy:      -202.2629187
  entropy:           312.9419191
  heat_capacity:      99.5120969
  energy:             95.0319044

- temperature:       960.0000000
  free_energy:      -205.3975572
  entropy:           313.9839683
  heat_capacity:      99.5174719
  energy:             96.0270524

- temperature:       970.0000000
  free_energy:      -208.5425623
  entropy:           315.0152738
  heat_capacity:      99.5226825
  energy:             97.0222533

- temperature:       980.0000000
  free_energy:      -211.6978276
  entropy:           316.0360542
  heat_capacity:      99.5277351
  energy:             98.0175055

- temperature:       990.0000000
  free_energy:      -214.8632490
  entropy:           317.0465217
  heat_capacity:      99.5326362
  energy:             99.0128075

- temperature:      1000.0000000
  free_energy:      -218.0387243
  entropy:           318.0468821
  heat_capacity:      99.5373917
  energy:            100.0081577
