phonopy:
  version: "2.37.1"
  frequency_unit_conversion_factor: 15.633302
  symmetry_tolerance: 1.00000e-05

space_group:
  type: "P1"
  number: 1
  Hall_symbol: "P 1"

primitive_matrix:
- [ -1.000000000000000,  1.000000000000000, -0.000000000000000 ]
- [  0.000000000000000,  1.000000000000000, -1.000000000000000 ]
- [ -1.000000000000000,  1.000000000000000, -1.000000000000000 ]

supercell_matrix:
- [   3,   0,   0 ]
- [   0,   3,   0 ]
- [   0,   0,   3 ]

primitive_cell:
  lattice:
  - [    -2.324424085528914,     2.336499164775137,    -3.273429064893555 ] # a
  - [     2.324574425084919,     2.336463146924272,     3.273429064893556 ] # b
  - [     2.324708423206123,    -2.336463146924272,    -3.273429064893556 ] # c
  points:
  - symbol: Li # 1
    coordinates: [  0.947568001496729,  0.233741214395250,  0.418488855328830 ]
    mass: 6.940000
  - symbol: Li # 2
    coordinates: [  0.700306171982923,  0.733704705911497,  0.671220471977183 ]
    mass: 6.940000
  - symbol: Li # 3
    coordinates: [  0.453114802801054,  0.233816421967629,  0.924043708587570 ]
    mass: 6.940000
  - symbol: Sn # 4
    coordinates: [  0.200347534562759,  0.733834028954047,  0.171257878575669 ]
    mass: 118.710000
  reciprocal_lattice: # without 2pi
  - [     0.000000000000000,     0.213997018014967,    -0.152743846355479 ] # a*
  - [     0.215086935475990,     0.213990098191475,     0.000010518752921 ] # b*
  - [     0.215086935475989,    -0.000006919823492,    -0.152735682232070 ] # c*

unit_cell:
  lattice:
  - [     4.649282848291043,     0.000000000000000,     0.000000000000000 ] # a
  - [     0.000150339556006,     4.672962311699408,     0.000000000000000 ] # b
  - [    -2.324858762762129,    -2.336499164775136,     3.273429064893555 ] # c
  points:
  - symbol: Li # 1
    coordinates: [  0.286173212898521,  0.815252359066421,  0.867684357569692 ]
    mass: 6.940000
    reduced_to: 1
  - symbol: Li # 2
    coordinates: [  0.033398533928574,  0.062484233934314,  0.362178061951391 ]
    mass: 6.940000
    reduced_to: 2
  - symbol: Li # 3
    coordinates: [  0.780701619166574,  0.309772713380059,  0.856657910579005 ]
    mass: 6.940000
    reduced_to: 3
  - symbol: Sn # 4
    coordinates: [  0.533486494391288,  0.562576150378378,  0.362228615815619 ]
    mass: 118.710000
    reduced_to: 4

supercell:
  lattice:
  - [    13.947848544873128,     0.000000000000000,     0.000000000000000 ] # a
  - [     0.000451018668018,    14.018886935098223,     0.000000000000000 ] # b
  - [    -6.974576288286388,    -7.009497494325409,     9.820287194680663 ] # c
  points:
  - symbol: Li # 1
    coordinates: [  0.095391070966174,  0.271750786355474,  0.289228119189897 ]
    mass: 6.940000
    reduced_to: 1
  - symbol: Li # 2
    coordinates: [  0.428724404299507,  0.271750786355474,  0.289228119189897 ]
    mass: 6.940000
    reduced_to: 1
  - symbol: Li # 3
    coordinates: [  0.762057737632841,  0.271750786355474,  0.289228119189897 ]
    mass: 6.940000
    reduced_to: 1
  - symbol: Li # 4
    coordinates: [  0.095391070966174,  0.605084119688807,  0.289228119189897 ]
    mass: 6.940000
    reduced_to: 1
  - symbol: Li # 5
    coordinates: [  0.428724404299507,  0.605084119688807,  0.289228119189897 ]
    mass: 6.940000
    reduced_to: 1
  - symbol: Li # 6
    coordinates: [  0.762057737632841,  0.605084119688807,  0.289228119189897 ]
    mass: 6.940000
    reduced_to: 1
  - symbol: Li # 7
    coordinates: [  0.095391070966174,  0.938417453022140,  0.289228119189897 ]
    mass: 6.940000
    reduced_to: 1
  - symbol: Li # 8
    coordinates: [  0.428724404299507,  0.938417453022140,  0.289228119189897 ]
    mass: 6.940000
    reduced_to: 1
  - symbol: Li # 9
    coordinates: [  0.762057737632841,  0.938417453022140,  0.289228119189897 ]
    mass: 6.940000
    reduced_to: 1
  - symbol: Li # 10
    coordinates: [  0.095391070966174,  0.271750786355474,  0.622561452523231 ]
    mass: 6.940000
    reduced_to: 1
  - symbol: Li # 11
    coordinates: [  0.428724404299507,  0.271750786355474,  0.622561452523231 ]
    mass: 6.940000
    reduced_to: 1
  - symbol: Li # 12
    coordinates: [  0.762057737632841,  0.271750786355474,  0.622561452523231 ]
    mass: 6.940000
    reduced_to: 1
  - symbol: Li # 13
    coordinates: [  0.095391070966174,  0.605084119688807,  0.622561452523231 ]
    mass: 6.940000
    reduced_to: 1
  - symbol: Li # 14
    coordinates: [  0.428724404299507,  0.605084119688807,  0.622561452523231 ]
    mass: 6.940000
    reduced_to: 1
  - symbol: Li # 15
    coordinates: [  0.762057737632841,  0.605084119688807,  0.622561452523231 ]
    mass: 6.940000
    reduced_to: 1
  - symbol: Li # 16
    coordinates: [  0.095391070966174,  0.938417453022140,  0.622561452523231 ]
    mass: 6.940000
    reduced_to: 1
  - symbol: Li # 17
    coordinates: [  0.428724404299507,  0.938417453022140,  0.622561452523231 ]
    mass: 6.940000
    reduced_to: 1
  - symbol: Li # 18
    coordinates: [  0.762057737632841,  0.938417453022140,  0.622561452523231 ]
    mass: 6.940000
    reduced_to: 1
  - symbol: Li # 19
    coordinates: [  0.095391070966174,  0.271750786355474,  0.955894785856564 ]
    mass: 6.940000
    reduced_to: 1
  - symbol: Li # 20
    coordinates: [  0.428724404299507,  0.271750786355474,  0.955894785856564 ]
    mass: 6.940000
    reduced_to: 1
  - symbol: Li # 21
    coordinates: [  0.762057737632841,  0.271750786355474,  0.955894785856564 ]
    mass: 6.940000
    reduced_to: 1
  - symbol: Li # 22
    coordinates: [  0.095391070966174,  0.605084119688807,  0.955894785856564 ]
    mass: 6.940000
    reduced_to: 1
  - symbol: Li # 23
    coordinates: [  0.428724404299507,  0.605084119688807,  0.955894785856564 ]
    mass: 6.940000
    reduced_to: 1
  - symbol: Li # 24
    coordinates: [  0.762057737632841,  0.605084119688807,  0.955894785856564 ]
    mass: 6.940000
    reduced_to: 1
  - symbol: Li # 25
    coordinates: [  0.095391070966174,  0.938417453022140,  0.955894785856564 ]
    mass: 6.940000
    reduced_to: 1
  - symbol: Li # 26
    coordinates: [  0.428724404299507,  0.938417453022140,  0.955894785856564 ]
    mass: 6.940000
    reduced_to: 1
  - symbol: Li # 27
    coordinates: [  0.762057737632841,  0.938417453022140,  0.955894785856564 ]
    mass: 6.940000
    reduced_to: 1
  - symbol: Li # 28
    coordinates: [  0.011132844642858,  0.020828077978105,  0.120726020650464 ]
    mass: 6.940000
    reduced_to: 28
  - symbol: Li # 29
    coordinates: [  0.344466177976191,  0.020828077978105,  0.120726020650464 ]
    mass: 6.940000
    reduced_to: 28
  - symbol: Li # 30
    coordinates: [  0.677799511309525,  0.020828077978105,  0.120726020650464 ]
    mass: 6.940000
    reduced_to: 28
  - symbol: Li # 31
    coordinates: [  0.011132844642858,  0.354161411311438,  0.120726020650464 ]
    mass: 6.940000
    reduced_to: 28
  - symbol: Li # 32
    coordinates: [  0.344466177976191,  0.354161411311438,  0.120726020650464 ]
    mass: 6.940000
    reduced_to: 28
  - symbol: Li # 33
    coordinates: [  0.677799511309525,  0.354161411311438,  0.120726020650464 ]
    mass: 6.940000
    reduced_to: 28
  - symbol: Li # 34
    coordinates: [  0.011132844642858,  0.687494744644771,  0.120726020650464 ]
    mass: 6.940000
    reduced_to: 28
  - symbol: Li # 35
    coordinates: [  0.344466177976191,  0.687494744644771,  0.120726020650464 ]
    mass: 6.940000
    reduced_to: 28
  - symbol: Li # 36
    coordinates: [  0.677799511309525,  0.687494744644771,  0.120726020650464 ]
    mass: 6.940000
    reduced_to: 28
  - symbol: Li # 37
    coordinates: [  0.011132844642858,  0.020828077978105,  0.454059353983797 ]
    mass: 6.940000
    reduced_to: 28
  - symbol: Li # 38
    coordinates: [  0.344466177976191,  0.020828077978105,  0.454059353983797 ]
    mass: 6.940000
    reduced_to: 28
  - symbol: Li # 39
    coordinates: [  0.677799511309525,  0.020828077978105,  0.454059353983797 ]
    mass: 6.940000
    reduced_to: 28
  - symbol: Li # 40
    coordinates: [  0.011132844642858,  0.354161411311438,  0.454059353983797 ]
    mass: 6.940000
    reduced_to: 28
  - symbol: Li # 41
    coordinates: [  0.344466177976191,  0.354161411311438,  0.454059353983797 ]
    mass: 6.940000
    reduced_to: 28
  - symbol: Li # 42
    coordinates: [  0.677799511309525,  0.354161411311438,  0.454059353983797 ]
    mass: 6.940000
    reduced_to: 28
  - symbol: Li # 43
    coordinates: [  0.011132844642858,  0.687494744644771,  0.454059353983797 ]
    mass: 6.940000
    reduced_to: 28
  - symbol: Li # 44
    coordinates: [  0.344466177976191,  0.687494744644771,  0.454059353983797 ]
    mass: 6.940000
    reduced_to: 28
  - symbol: Li # 45
    coordinates: [  0.677799511309525,  0.687494744644771,  0.454059353983797 ]
    mass: 6.940000
    reduced_to: 28
  - symbol: Li # 46
    coordinates: [  0.011132844642858,  0.020828077978105,  0.787392687317130 ]
    mass: 6.940000
    reduced_to: 28
  - symbol: Li # 47
    coordinates: [  0.344466177976191,  0.020828077978105,  0.787392687317130 ]
    mass: 6.940000
    reduced_to: 28
  - symbol: Li # 48
    coordinates: [  0.677799511309525,  0.020828077978105,  0.787392687317130 ]
    mass: 6.940000
    reduced_to: 28
  - symbol: Li # 49
    coordinates: [  0.011132844642858,  0.354161411311438,  0.787392687317130 ]
    mass: 6.940000
    reduced_to: 28
  - symbol: Li # 50
    coordinates: [  0.344466177976191,  0.354161411311438,  0.787392687317130 ]
    mass: 6.940000
    reduced_to: 28
  - symbol: Li # 51
    coordinates: [  0.677799511309525,  0.354161411311438,  0.787392687317130 ]
    mass: 6.940000
    reduced_to: 28
  - symbol: Li # 52
    coordinates: [  0.011132844642858,  0.687494744644771,  0.787392687317130 ]
    mass: 6.940000
    reduced_to: 28
  - symbol: Li # 53
    coordinates: [  0.344466177976191,  0.687494744644771,  0.787392687317130 ]
    mass: 6.940000
    reduced_to: 28
  - symbol: Li # 54
    coordinates: [  0.677799511309525,  0.687494744644771,  0.787392687317130 ]
    mass: 6.940000
    reduced_to: 28
  - symbol: Li # 55
    coordinates: [  0.260233873055525,  0.103257571126686,  0.285552636859668 ]
    mass: 6.940000
    reduced_to: 55
  - symbol: Li # 56
    coordinates: [  0.593567206388858,  0.103257571126686,  0.285552636859668 ]
    mass: 6.940000
    reduced_to: 55
  - symbol: Li # 57
    coordinates: [  0.926900539722191,  0.103257571126686,  0.285552636859668 ]
    mass: 6.940000
    reduced_to: 55
  - symbol: Li # 58
    coordinates: [  0.260233873055525,  0.436590904460020,  0.285552636859668 ]
    mass: 6.940000
    reduced_to: 55
  - symbol: Li # 59
    coordinates: [  0.593567206388858,  0.436590904460020,  0.285552636859668 ]
    mass: 6.940000
    reduced_to: 55
  - symbol: Li # 60
    coordinates: [  0.926900539722191,  0.436590904460020,  0.285552636859668 ]
    mass: 6.940000
    reduced_to: 55
  - symbol: Li # 61
    coordinates: [  0.260233873055525,  0.769924237793353,  0.285552636859668 ]
    mass: 6.940000
    reduced_to: 55
  - symbol: Li # 62
    coordinates: [  0.593567206388858,  0.769924237793353,  0.285552636859668 ]
    mass: 6.940000
    reduced_to: 55
  - symbol: Li # 63
    coordinates: [  0.926900539722191,  0.769924237793353,  0.285552636859668 ]
    mass: 6.940000
    reduced_to: 55
  - symbol: Li # 64
    coordinates: [  0.260233873055525,  0.103257571126686,  0.618885970193002 ]
    mass: 6.940000
    reduced_to: 55
  - symbol: Li # 65
    coordinates: [  0.593567206388858,  0.103257571126686,  0.618885970193002 ]
    mass: 6.940000
    reduced_to: 55
  - symbol: Li # 66
    coordinates: [  0.926900539722191,  0.103257571126686,  0.618885970193002 ]
    mass: 6.940000
    reduced_to: 55
  - symbol: Li # 67
    coordinates: [  0.260233873055525,  0.436590904460020,  0.618885970193002 ]
    mass: 6.940000
    reduced_to: 55
  - symbol: Li # 68
    coordinates: [  0.593567206388858,  0.436590904460020,  0.618885970193002 ]
    mass: 6.940000
    reduced_to: 55
  - symbol: Li # 69
    coordinates: [  0.926900539722191,  0.436590904460020,  0.618885970193002 ]
    mass: 6.940000
    reduced_to: 55
  - symbol: Li # 70
    coordinates: [  0.260233873055525,  0.769924237793353,  0.618885970193002 ]
    mass: 6.940000
    reduced_to: 55
  - symbol: Li # 71
    coordinates: [  0.593567206388858,  0.769924237793353,  0.618885970193002 ]
    mass: 6.940000
    reduced_to: 55
  - symbol: Li # 72
    coordinates: [  0.926900539722191,  0.769924237793353,  0.618885970193002 ]
    mass: 6.940000
    reduced_to: 55
  - symbol: Li # 73
    coordinates: [  0.260233873055525,  0.103257571126686,  0.952219303526335 ]
    mass: 6.940000
    reduced_to: 55
  - symbol: Li # 74
    coordinates: [  0.593567206388858,  0.103257571126686,  0.952219303526335 ]
    mass: 6.940000
    reduced_to: 55
  - symbol: Li # 75
    coordinates: [  0.926900539722191,  0.103257571126686,  0.952219303526335 ]
    mass: 6.940000
    reduced_to: 55
  - symbol: Li # 76
    coordinates: [  0.260233873055525,  0.436590904460020,  0.952219303526335 ]
    mass: 6.940000
    reduced_to: 55
  - symbol: Li # 77
    coordinates: [  0.593567206388858,  0.436590904460020,  0.952219303526335 ]
    mass: 6.940000
    reduced_to: 55
  - symbol: Li # 78
    coordinates: [  0.926900539722191,  0.436590904460020,  0.952219303526335 ]
    mass: 6.940000
    reduced_to: 55
  - symbol: Li # 79
    coordinates: [  0.260233873055525,  0.769924237793353,  0.952219303526335 ]
    mass: 6.940000
    reduced_to: 55
  - symbol: Li # 80
    coordinates: [  0.593567206388858,  0.769924237793353,  0.952219303526335 ]
    mass: 6.940000
    reduced_to: 55
  - symbol: Li # 81
    coordinates: [  0.926900539722191,  0.769924237793353,  0.952219303526335 ]
    mass: 6.940000
    reduced_to: 55
  - symbol: Sn # 82
    coordinates: [  0.177828831463763,  0.187525383459459,  0.120742871938540 ]
    mass: 118.710000
    reduced_to: 82
  - symbol: Sn # 83
    coordinates: [  0.511162164797096,  0.187525383459459,  0.120742871938540 ]
    mass: 118.710000
    reduced_to: 82
  - symbol: Sn # 84
    coordinates: [  0.844495498130429,  0.187525383459459,  0.120742871938540 ]
    mass: 118.710000
    reduced_to: 82
  - symbol: Sn # 85
    coordinates: [  0.177828831463763,  0.520858716792792,  0.120742871938540 ]
    mass: 118.710000
    reduced_to: 82
  - symbol: Sn # 86
    coordinates: [  0.511162164797096,  0.520858716792792,  0.120742871938540 ]
    mass: 118.710000
    reduced_to: 82
  - symbol: Sn # 87
    coordinates: [  0.844495498130429,  0.520858716792792,  0.120742871938540 ]
    mass: 118.710000
    reduced_to: 82
  - symbol: Sn # 88
    coordinates: [  0.177828831463763,  0.854192050126126,  0.120742871938540 ]
    mass: 118.710000
    reduced_to: 82
  - symbol: Sn # 89
    coordinates: [  0.511162164797096,  0.854192050126126,  0.120742871938540 ]
    mass: 118.710000
    reduced_to: 82
  - symbol: Sn # 90
    coordinates: [  0.844495498130429,  0.854192050126126,  0.120742871938540 ]
    mass: 118.710000
    reduced_to: 82
  - symbol: Sn # 91
    coordinates: [  0.177828831463763,  0.187525383459459,  0.454076205271873 ]
    mass: 118.710000
    reduced_to: 82
  - symbol: Sn # 92
    coordinates: [  0.511162164797096,  0.187525383459459,  0.454076205271873 ]
    mass: 118.710000
    reduced_to: 82
  - symbol: Sn # 93
    coordinates: [  0.844495498130429,  0.187525383459459,  0.454076205271873 ]
    mass: 118.710000
    reduced_to: 82
  - symbol: Sn # 94
    coordinates: [  0.177828831463763,  0.520858716792792,  0.454076205271873 ]
    mass: 118.710000
    reduced_to: 82
  - symbol: Sn # 95
    coordinates: [  0.511162164797096,  0.520858716792792,  0.454076205271873 ]
    mass: 118.710000
    reduced_to: 82
  - symbol: Sn # 96
    coordinates: [  0.844495498130429,  0.520858716792792,  0.454076205271873 ]
    mass: 118.710000
    reduced_to: 82
  - symbol: Sn # 97
    coordinates: [  0.177828831463763,  0.854192050126126,  0.454076205271873 ]
    mass: 118.710000
    reduced_to: 82
  - symbol: Sn # 98
    coordinates: [  0.511162164797096,  0.854192050126126,  0.454076205271873 ]
    mass: 118.710000
    reduced_to: 82
  - symbol: Sn # 99
    coordinates: [  0.844495498130429,  0.854192050126126,  0.454076205271873 ]
    mass: 118.710000
    reduced_to: 82
  - symbol: Sn # 100
    coordinates: [  0.177828831463763,  0.187525383459459,  0.787409538605206 ]
    mass: 118.710000
    reduced_to: 82
  - symbol: Sn # 101
    coordinates: [  0.511162164797096,  0.187525383459459,  0.787409538605206 ]
    mass: 118.710000
    reduced_to: 82
  - symbol: Sn # 102
    coordinates: [  0.844495498130429,  0.187525383459459,  0.787409538605206 ]
    mass: 118.710000
    reduced_to: 82
  - symbol: Sn # 103
    coordinates: [  0.177828831463763,  0.520858716792792,  0.787409538605206 ]
    mass: 118.710000
    reduced_to: 82
  - symbol: Sn # 104
    coordinates: [  0.511162164797096,  0.520858716792792,  0.787409538605206 ]
    mass: 118.710000
    reduced_to: 82
  - symbol: Sn # 105
    coordinates: [  0.844495498130429,  0.520858716792792,  0.787409538605206 ]
    mass: 118.710000
    reduced_to: 82
  - symbol: Sn # 106
    coordinates: [  0.177828831463763,  0.854192050126126,  0.787409538605206 ]
    mass: 118.710000
    reduced_to: 82
  - symbol: Sn # 107
    coordinates: [  0.511162164797096,  0.854192050126126,  0.787409538605206 ]
    mass: 118.710000
    reduced_to: 82
  - symbol: Sn # 108
    coordinates: [  0.844495498130429,  0.854192050126126,  0.787409538605206 ]
    mass: 118.710000
    reduced_to: 82

displacements:
- atom:    1
  displacement:
    [   0.0100000000000000,  0.0000000000000000,  0.0000000000000000 ]
  forces:
  - [  -0.0221441723406315,  0.0003809216432273, -0.0365979783236980 ]
  - [  -0.0001471930008847,  0.0003697520587593, -0.0366277880966663 ]
  - [  -0.0001651976490393,  0.0003703534603119, -0.0368399247527122 ]
  - [   0.0002834791957866,  0.0003703262191266, -0.0367333143949509 ]
  - [   0.0003343451244291,  0.0003999033942819, -0.0367305316030979 ]
  - [   0.0003371766069904,  0.0003430591896176, -0.0367348343133926 ]
  - [   0.0002855528728105,  0.0003680204099510, -0.0367326028645039 ]
  - [   0.0003418916894589,  0.0003470015653875, -0.0367273911833763 ]
  - [   0.0003387662291061,  0.0003950389509555, -0.0367340482771397 ]
  - [   0.0003046327619813,  0.0000493733678013, -0.0365197695791721 ]
  - [   0.0003074903506786,  0.0006881558801979, -0.0369463562965393 ]
  - [   0.0003084912023041,  0.0003701038658619, -0.0367343574762344 ]
  - [   0.0003033684042748,  0.0006899842992425, -0.0365196838974953 ]
  - [   0.0003067536163144,  0.0000516416039318, -0.0369454473257065 ]
  - [   0.0003105250943918,  0.0003739967942238, -0.0367294028401375 ]
  - [   0.0003241838712711,  0.0003733334597200, -0.0367184393107891 ]
  - [   0.0003245841944590,  0.0003734093625098, -0.0367390476167202 ]
  - [   0.0003093965351582,  0.0003737471997738, -0.0367285832762718 ]
  - [   0.0003083353512920,  0.0001988101721508, -0.0366285964846611 ]
  - [   0.0003080193419009,  0.0003704401315190, -0.0367343761026859 ]
  - [   0.0003028884530067,  0.0005408214055933, -0.0368428379297256 ]
  - [   0.0003201700455975,  0.0003742362023331, -0.0367267280817032 ]
  - [   0.0003071115352213,  0.0003701322129928, -0.0367343463003635 ]
  - [   0.0003215172328055,  0.0003698993532453, -0.0367400161921978 ]
  - [   0.0003084331983700,  0.0005402174429037, -0.0366293378174305 ]
  - [   0.0003082365728915,  0.0003688585711643, -0.0367344319820404 ]
  - [   0.0003035669215024,  0.0001989935262827, -0.0368433110415936 ]
  - [  -0.0000848334893817,  0.0002037821977865,  0.0000028016511351 ]
  - [   0.0004155918431934,  0.0001177160302177, -0.0000630475115031 ]
  - [   0.0004165308200754,  0.0002745347155724,  0.0000568372379348 ]
  - [  -0.0000852747471072,  0.0001884265220724,  0.0000035096891224 ]
  - [   0.0004156366921961,  0.0002738992916420, -0.0000627135159448 ]
  - [   0.0004156174836680,  0.0001170692048618,  0.0000579537700105 ]
  - [   0.0002778742637020,  0.0001957862259587, -0.0000024285341169 ]
  - [   0.0002642975305207,  0.0001959065994015,  0.0000096621415651 ]
  - [   0.0002639242447913,  0.0001963542745216, -0.0000143298020703 ]
  - [   0.0004228308098391,  0.0003187284455635,  0.0000323153799400 ]
  - [   0.0004220410773996,  0.0000734205532353, -0.0000370126217604 ]
  - [   0.0002467842423357,  0.0001954721810762, -0.0000024512410164 ]
  - [   0.0031628170982003,  0.0001967390999198, -0.0023013087920845 ]
  - [   0.0032237726263702,  0.0001960572408279,  0.0023559262044728 ]
  - [   0.0002445958671160,  0.0001957127824426, -0.0000022277235985 ]
  - [   0.0004230501072016,  0.0000736563088140,  0.0000317022204399 ]
  - [   0.0004225640150253,  0.0003182312648278, -0.0000375360250473 ]
  - [   0.0002469298487995,  0.0001960997178685, -0.0000028237700462 ]
  - [   0.0004002474888694,  0.0001959167420864,  0.0000358707839041 ]
  - [   0.0002459594979882,  0.0001963277463801, -0.0000036433093555 ]
  - [   0.0003990791738033,  0.0001963764661923, -0.0000360653866665 ]
  - [   0.0002647752407938,  0.0001928843557835,  0.0000102035992313 ]
  - [   0.0002478882670403,  0.0001959875226021, -0.0000027790929380 ]
  - [   0.0002648383378983,  0.0001981705427170, -0.0000156692676683 ]
  - [   0.0002652645052876,  0.0001984164118767,  0.0000104057035060 ]
  - [   0.0002481788396835,  0.0001961141824722, -0.0000025748240660 ]
  - [   0.0002656579017639,  0.0001936778426170, -0.0000160977106134 ]
  - [   0.0002310462296009, -0.0004514034662861,  0.0374664962291718 ]
  - [  -0.0002310583367944,  0.0000019715917006,  0.0373640879988670 ]
  - [   0.0002240519970655,  0.0004415239964146,  0.0372630767524242 ]
  - [   0.0002302741631866,  0.0004551302699838,  0.0374659486114979 ]
  - [  -0.0002312143333256,  0.0000023275115382,  0.0373632311820984 ]
  - [   0.0002280217595398, -0.0004335847334005,  0.0372672826051712 ]
  - [  -0.0002635810524225,  0.0000013061417121,  0.0373582467436790 ]
  - [  -0.0002874135971069,  0.0000011130455277,  0.0373631827533245 ]
  - [  -0.0002634720876813,  0.0000014405559341,  0.0373686477541924 ]
  - [  -0.0004786942154169,  0.0000057193701650,  0.0373690798878670 ]
  - [  -0.0002503846772015, -0.0000074761483120,  0.0373713038861752 ]
  - [  -0.0002513222862035,  0.0000121927405416,  0.0373559370636940 ]
  - [  -0.0000610789284110,  0.0000012522441466,  0.0373593643307686 ]
  - [  -0.0004342128522694,  0.0000048669671742,  0.0372757315635681 ]
  - [  -0.0004349066875875,  0.0000008345496099,  0.0374583825469017 ]
  - [  -0.0004790946841240,  0.0000014217839635,  0.0373645722866058 ]
  - [  -0.0002507418394089,  0.0000120003051052,  0.0373708046972752 ]
  - [  -0.0002507045865059, -0.0000075943544289,  0.0373551100492477 ]
  - [  -0.0007204137509689,  0.0000061477830968,  0.0375363379716873 ]
  - [  -0.0007254299125634,  0.0000058421210269,  0.0371957831084728 ]
  - [  -0.0003578572068363,  0.0000014061552065,  0.0373675972223282 ]
  - [  -0.0002604763139971,  0.0000107714440674,  0.0373458527028561 ]
  - [  -0.0002606373454910, -0.0000082058832049,  0.0373829193413258 ]
  - [  -0.0003017658600584,  0.0000065676867962,  0.0373651124536991 ]
  - [  -0.0002575257385615, -0.0000046065542847,  0.0373516380786896 ]
  - [  -0.0002553765079938,  0.0000181554351002,  0.0373923406004906 ]
  - [  -0.0002988616179209,  0.0000038319267333,  0.0373693332076073 ]
  - [   0.0075059728696942, -0.0005749128758907, -0.0060478188097477 ]
  - [  -0.0001001087948680, -0.0005674567073584, -0.0006281565874815 ]
  - [   0.0073270667344332, -0.0005769897252321,  0.0046021118760109 ]
  - [  -0.0002832859754562, -0.0005960902199149, -0.0005784463137388 ]
  - [  -0.0003277687355876, -0.0005674529820681, -0.0006269570440054 ]
  - [  -0.0002882303670049, -0.0005492828786373, -0.0006776843219995 ]
  - [  -0.0002865083515644, -0.0005476223304868, -0.0005752611905336 ]
  - [  -0.0003344127908349, -0.0005760667845607, -0.0006368067115545 ]
  - [  -0.0002855444326997, -0.0005858400836587, -0.0006794240325689 ]
  - [  -0.0000403616577387, -0.0005556084215641, -0.0006547868251801 ]
  - [  -0.0002910792827606, -0.0006654337048531, -0.0006428360939026 ]
  - [  -0.0002916157245636, -0.0004678582772613, -0.0006187818944454 ]
  - [  -0.0000344431027770, -0.0005828896537423, -0.0006437152624130 ]
  - [  -0.0002849157899618, -0.0004670368507504, -0.0006398055702448 ]
  - [  -0.0002912664785981, -0.0006736898794770, -0.0006247721612453 ]
  - [  -0.0003026342019439, -0.0005683749914169, -0.0006263311952353 ]
  - [  -0.0003200629726052, -0.0005685631185770, -0.0006346013396978 ]
  - [  -0.0003196308389306, -0.0005690036341548, -0.0006189979612827 ]
  - [  -0.0002871603937820, -0.0004828460514545, -0.0006974637508392 ]
  - [  -0.0002858991501853, -0.0006545037031174, -0.0005527455359697 ]
  - [  -0.0003744490677491, -0.0005684979259968, -0.0006248503923416 ]
  - [  -0.0003179474733770, -0.0005661994218826, -0.0006975457072258 ]
  - [  -0.0003175927558914, -0.0005658194422722, -0.0005532670766115 ]
  - [  -0.0002812311868183, -0.0005745850503445, -0.0006305575370789 ]
  - [  -0.0002919752150774, -0.0006598308682442, -0.0007092207670212 ]
  - [  -0.0002912096679211, -0.0004884004592896, -0.0005639791488647 ]
  - [  -0.0003799535334110, -0.0005741231143475, -0.0006354935467243 ]
- atom:    1
  displacement:
    [  -0.0100000000000000,  0.0000000000000000,  0.0000000000000000 ]
  forces:
  - [   0.0227904655039310,  0.0003805363085121, -0.0365720726549625 ]
  - [   0.0007975308690220,  0.0003699997905642, -0.0368395298719406 ]
  - [   0.0007796881254762,  0.0003700545057654, -0.0366280972957611 ]
  - [   0.0003512792463880,  0.0003702687099576, -0.0367332883179188 ]
  - [   0.0002962154103443,  0.0003476412966847, -0.0367331318557262 ]
  - [   0.0002990819048136,  0.0003953790292144, -0.0367322191596031 ]
  - [   0.0003530619724188,  0.0003681913367473, -0.0367326959967613 ]
  - [   0.0003036837442778,  0.0003991555422544, -0.0367296859622002 ]
  - [   0.0003007287159562,  0.0003427492338233, -0.0367315113544464 ]
  - [   0.0003272586327512,  0.0006881144363433, -0.0369464904069901 ]
  - [   0.0003290229942650,  0.0000495801214129, -0.0365203469991684 ]
  - [   0.0003258009965066,  0.0003700591623783, -0.0367345400154591 ]
  - [   0.0003260772209615,  0.0000516502186656, -0.0369460880756378 ]
  - [   0.0003290587337688,  0.0006900813896209, -0.0365194864571095 ]
  - [   0.0003275542985648,  0.0003740191459656, -0.0367295630276203 ]
  - [   0.0003147524839733,  0.0003732535988092, -0.0367388874292374 ]
  - [   0.0003149359254166,  0.0003733055200428, -0.0367184728384018 ]
  - [   0.0003294593188912,  0.0003737956285477, -0.0367285609245300 ]
  - [   0.0003304821439087,  0.0005404424737208, -0.0368431732058525 ]
  - [   0.0003251677844673,  0.0003704375703819, -0.0367343202233315 ]
  - [   0.0003244632389396,  0.0001990060118260, -0.0366284549236298 ]
  - [   0.0003106342046522,  0.0003742194967344, -0.0367376431822777 ]
  - [   0.0003271889872849,  0.0003700495581143, -0.0367343276739120 ]
  - [   0.0003120184410363,  0.0003697687643580, -0.0367291271686554 ]
  - [   0.0003309105813969,  0.0001989319134736, -0.0368437543511391 ]
  - [   0.0003253042232245,  0.0003687629068736, -0.0367345288395882 ]
  - [   0.0003257393836975,  0.0005406363634393, -0.0366288200020790 ]
  - [   0.0006237908964977,  0.0002036556252278,  0.0000032675452530 ]
  - [   0.0001228444161825,  0.0002744926023297,  0.0000573629513383 ]
  - [   0.0001238929980900,  0.0001182457926916, -0.0000637950288365 ]
  - [   0.0006241581868380,  0.0001879821211332,  0.0000042344909161 ]
  - [   0.0001227741886396,  0.0001175018114736,  0.0000581387430429 ]
  - [   0.0001229066110682,  0.0002733032451943, -0.0000629094138276 ]
  - [   0.0002605915651657,  0.0001958908978850, -0.0000024924033823 ]
  - [   0.0002729379921220,  0.0001957235508598, -0.0000144572331919 ]
  - [   0.0002726011152845,  0.0001961092348211,  0.0000097211741377 ]
  - [   0.0001156481812359,  0.0000733533161110, -0.0000372016802430 ]
  - [   0.0001145767309936,  0.0003188875271007,  0.0000322721898556 ]
  - [   0.0002907968009822,  0.0001952912862180, -0.0000024810433388 ]
  - [  -0.0026810725685209,  0.0001959607179742,  0.0023549175821245 ]
  - [  -0.0026242430321872,  0.0001966367999557, -0.0023040943779051 ]
  - [   0.0002950390917249,  0.0001955996413017, -0.0000021010637283 ]
  - [   0.0001158302402473,  0.0003186683752574, -0.0000378340482712 ]
  - [   0.0001152003824245,  0.0000732029729988,  0.0000321567058563 ]
  - [   0.0002909231989179,  0.0001959859946510, -0.0000027716159821 ]
  - [   0.0001406660594512,  0.0001957900822163, -0.0000348626053892 ]
  - [   0.0002943873405457,  0.0001961585512618, -0.0000038088564907 ]
  - [   0.0001390092074871,  0.0001963573158719,  0.0000357400240318 ]
  - [   0.0002733517321758,  0.0001985169947147, -0.0000155476645887 ]
  - [   0.0002912357449532,  0.0001960694789886, -0.0000027392470656 ]
  - [   0.0002732127904892,  0.0001929476857185,  0.0000103567326732 ]
  - [   0.0002739349729382,  0.0001928769052029, -0.0000153717373905 ]
  - [   0.0002912282943726,  0.0001961141824722, -0.0000025300851121 ]
  - [   0.0002740398049355,  0.0001989156007767,  0.0000098399486888 ]
  - [  -0.0007690973579884,  0.0004414747527335,  0.0372631736099720 ]
  - [  -0.0003135334700346,  0.0000019246726879,  0.0373641513288021 ]
  - [  -0.0007757046259940, -0.0004521009395830,  0.0374662503600121 ]
  - [  -0.0007685855962336, -0.0004372723633423,  0.0372627452015877 ]
  - [  -0.0003137844614685,  0.0000021756477508,  0.0373632386326790 ]
  - [  -0.0007713059894741,  0.0004603033303283,  0.0374704003334045 ]
  - [  -0.0002798833884299,  0.0000013070866771,  0.0373687185347080 ]
  - [  -0.0002550827339292,  0.0000013212866179,  0.0373630747199059 ]
  - [  -0.0002797385677695,  0.0000016079002307,  0.0373579226434231 ]
  - [  -0.0000598502811044,  0.0000058815803641,  0.0373691357672215 ]