phonopy:
  version: "2.37.1"
  frequency_unit_conversion_factor: 15.633302
  symmetry_tolerance: 1.00000e-05

space_group:
  type: "I4_1/amd"
  number: 141
  Hall_symbol: "I 4bw 2bw -1bw"

primitive_matrix:
- [  0.000000000000000, -1.000000000000000,  0.000000000000000 ]
- [ -1.000000000000000,  0.000000000000000,  0.000000000000000 ]
- [  0.000000000000000,  0.000000000000000, -1.000000000000000 ]

supercell_matrix:
- [   1,   0,   0 ]
- [   0,   1,   0 ]
- [   0,   0,   1 ]

primitive_cell:
  lattice:
  - [   -13.014642592149867,    -6.257384559923549,     0.000000000000000 ] # a
  - [   -14.440768170245970,     0.000000000000000,     0.000000000000000 ] # b
  - [    13.727704669648395,     3.128692635186983,    -3.208921093628407 ] # c
  points:
  - symbol: Li # 1
    coordinates: [  0.917413730321547,  0.917413719338195,  0.999999994835957 ]
    mass: 6.940000
  - symbol: Li # 2
    coordinates: [  0.082586271909184,  0.082586270081561,  0.999999991893043 ]
    mass: 6.940000
  - symbol: Li # 3
    coordinates: [  0.667413718794942,  0.167413724629701,  0.499999990356182 ]
    mass: 6.940000
  - symbol: Li # 4
    coordinates: [  0.832586280557891,  0.332586273338331,  0.500000011460449 ]
    mass: 6.940000
  - symbol: Sn # 5
    coordinates: [  0.752739099790929,  0.752739112150475,  0.000000006214238 ]
    mass: 118.710000
  - symbol: Sn # 6
    coordinates: [  0.247260900475581,  0.247260893162783,  0.000000003402046 ]
    mass: 118.710000
  - symbol: Sn # 7
    coordinates: [  0.502739117674458,  0.002739098862512,  0.500000011687200 ]
    mass: 118.710000
  - symbol: Sn # 8
    coordinates: [  0.997260897470574,  0.497260911132030,  0.500000008696178 ]
    mass: 118.710000
  - symbol: Sn # 9
    coordinates: [  0.588158180875836,  0.588158185843412,  0.000000003052543 ]
    mass: 118.710000
  - symbol: Sn # 10
    coordinates: [  0.411841800711780,  0.411841811830316,  0.999999979445468 ]
    mass: 118.710000
  - symbol: Sn # 11
    coordinates: [  0.338158193697904,  0.838158201865016,  0.500000019103960 ]
    mass: 118.710000
  - symbol: Sn # 12
    coordinates: [  0.161841807473341,  0.661841798015552,  0.499999979887386 ]
    mass: 118.710000
  reciprocal_lattice: # without 2pi
  - [    -0.000000000000000,    -0.159811178364307,    -0.155815628424692 ] # a*
  - [    -0.069248393728834,     0.144028720918545,    -0.155815579434627 ] # b*
  - [    -0.000000000000000,    -0.000000000000000,    -0.311631221467423 ] # c*

unit_cell:
  lattice:
  - [    14.440768170245970,     0.000000000000000,     0.000000000000000 ] # a
  - [    13.014642592149867,     6.257384559923549,     0.000000000000000 ] # b
  - [   -13.727704669648395,    -3.128692635186983,     3.208921093628407 ] # c
  points:
  - symbol: Li # 1
    coordinates: [  0.082586280661805,  0.082586269678453,  0.000000005164043 ]
    mass: 6.940000
    reduced_to: 1
  - symbol: Li # 2
    coordinates: [  0.917413729918439,  0.917413728090816,  0.000000008106957 ]
    mass: 6.940000
    reduced_to: 2
  - symbol: Li # 3
    coordinates: [  0.832586275370299,  0.332586281205058,  0.500000009643818 ]
    mass: 6.940000
    reduced_to: 3
  - symbol: Li # 4
    coordinates: [  0.667413726661669,  0.167413719442109,  0.499999988539551 ]
    mass: 6.940000
    reduced_to: 4
  - symbol: Sn # 5
    coordinates: [  0.247260887849525,  0.247260900209071,  0.999999993785762 ]
    mass: 118.710000
    reduced_to: 5
  - symbol: Sn # 6
    coordinates: [  0.752739106837217,  0.752739099524419,  0.999999996597954 ]
    mass: 118.710000
    reduced_to: 6
  - symbol: Sn # 7
    coordinates: [  0.997260901137488,  0.497260882325542,  0.499999988312800 ]
    mass: 118.710000
    reduced_to: 7
  - symbol: Sn # 8
    coordinates: [  0.502739088867970,  0.002739102529426,  0.499999991303822 ]
    mass: 118.710000
    reduced_to: 8
  - symbol: Sn # 9
    coordinates: [  0.411841814156588,  0.411841819124164,  0.999999996947457 ]
    mass: 118.710000
    reduced_to: 9
  - symbol: Sn # 10
    coordinates: [  0.588158188169684,  0.588158199288220,  0.000000020554532 ]
    mass: 118.710000
    reduced_to: 10
  - symbol: Sn # 11
    coordinates: [  0.161841798134985,  0.661841806302096,  0.499999980896040 ]
    mass: 118.710000
    reduced_to: 11
  - symbol: Sn # 12
    coordinates: [  0.338158201984448,  0.838158192526659,  0.500000020112614 ]
    mass: 118.710000
    reduced_to: 12

supercell:
  lattice:
  - [    14.440768170245970,     0.000000000000000,     0.000000000000000 ] # a
  - [    13.014642592149867,     6.257384559923549,     0.000000000000000 ] # b
  - [   -13.727704669648395,    -3.128692635186983,     3.208921093628407 ] # c
  points:
  - symbol: Li # 1
    coordinates: [  0.082586280661805,  0.082586269678453,  0.000000005164043 ]
    mass: 6.940000
    reduced_to: 1
  - symbol: Li # 2
    coordinates: [  0.917413729918439,  0.917413728090816,  0.000000008106957 ]
    mass: 6.940000
    reduced_to: 2
  - symbol: Li # 3
    coordinates: [  0.832586275370299,  0.332586281205058,  0.500000009643818 ]
    mass: 6.940000
    reduced_to: 3
  - symbol: Li # 4
    coordinates: [  0.667413726661669,  0.167413719442109,  0.499999988539551 ]
    mass: 6.940000
    reduced_to: 4
  - symbol: Sn # 5
    coordinates: [  0.247260887849525,  0.247260900209071,  0.999999993785762 ]
    mass: 118.710000
    reduced_to: 5
  - symbol: Sn # 6
    coordinates: [  0.752739106837217,  0.752739099524419,  0.999999996597954 ]
    mass: 118.710000
    reduced_to: 6
  - symbol: Sn # 7
    coordinates: [  0.997260901137488,  0.497260882325542,  0.499999988312800 ]
    mass: 118.710000
    reduced_to: 7
  - symbol: Sn # 8
    coordinates: [  0.502739088867970,  0.002739102529426,  0.499999991303822 ]
    mass: 118.710000
    reduced_to: 8
  - symbol: Sn # 9
    coordinates: [  0.411841814156588,  0.411841819124164,  0.999999996947457 ]
    mass: 118.710000
    reduced_to: 9
  - symbol: Sn # 10
    coordinates: [  0.588158188169684,  0.588158199288220,  0.000000020554532 ]
    mass: 118.710000
    reduced_to: 10
  - symbol: Sn # 11
    coordinates: [  0.161841798134985,  0.661841806302096,  0.499999980896040 ]
    mass: 118.710000
    reduced_to: 11
  - symbol: Sn # 12
    coordinates: [  0.338158201984448,  0.838158192526659,  0.500000020112614 ]
    mass: 118.710000
    reduced_to: 12

displacements:
- atom:    1
  displacement:
    [   0.0100000000000000,  0.0000000000000000,  0.0000000000000000 ]
  forces:
  - [  -0.0019253566861153,  0.0027376054786146,  0.0002953172661364 ]
  - [  -0.0101735275238752, -0.0021645729430020, -0.0000001634618911 ]
  - [   0.0099643003195524,  0.0022703823633492,  0.0000004635407436 ]
  - [  -0.0078183114528656, -0.0020168903283775,  0.0002477897505742 ]
  - [   0.0446677729487419,  0.0102314259856939, -0.0000333031639457 ]
  - [  -0.0447430647909641, -0.0101775517687201, -0.0000120815820992 ]
  - [   0.0472297519445419,  0.0104772178456187, -0.0003888867795467 ]
  - [  -0.0411693342030048, -0.0098623270168900,  0.0006267625722103 ]
  - [  -0.0003015249967575, -0.0000295657664537,  0.0000064712949097 ]
  - [   0.0001739449799061, -0.0019063260406256, -0.0001609102764633 ]
  - [   0.0038365013897419,  0.0003819800913334, -0.0005809381837025 ]
  - [   0.0002588741481304,  0.0000586193054914, -0.0000005589556622 ]
- atom:    1
  displacement:
    [  -0.0100000000000000,  0.0000000000000000,  0.0000000000000000 ]
  forces:
  - [   0.0215167086571455,  0.0017496589571238, -0.0002542303409427 ]
  - [  -0.0094648152589798, -0.0023156623356044,  0.0000001918362358 ]
  - [   0.0096768587827682,  0.0022048843093216,  0.0000005152002132 ]
  - [  -0.0117647014558315, -0.0024576690047979, -0.0002340919163544 ]
  - [   0.0453584529459476,  0.0102887917309999,  0.0000338964164257 ]
  - [  -0.0453022718429565, -0.0103440470993519,  0.0000106592196971 ]
  - [   0.0427859053015709,  0.0100495256483555,  0.0004117479547858 ]
  - [  -0.0489600934088230, -0.0106536792591214, -0.0006653569289483 ]
  - [   0.0003211349248886,  0.0000344244763255, -0.0000058761797845 ]
  - [  -0.0001610964536667,  0.0018961317837238,  0.0001594125351403 ]
  - [  -0.0037374570965767, -0.0003907168284059,  0.0005439164815471 ]
  - [  -0.0002685636281967, -0.0000616246834397, -0.0000007772351864 ]
- atom:    5
  displacement:
    [   0.0100000000000000,  0.0000000000000000,  0.0000000000000000 ]
  forces:
  - [   0.0094908550381660,  0.0022116089239717, -0.0000332361087203 ]
  - [  -0.0095383133739233, -0.0021538250148296,  0.0000112270781756 ]
  - [   0.0120726749300957,  0.0024482565931976,  0.0004124778788537 ]
  - [  -0.0059741251170635, -0.0018398240208626,  0.0006249768193811 ]
  - [   0.0312083046883345,  0.0117303794249892, -0.0000766618177295 ]
  - [  -0.0479042753577232, -0.0142785646021366,  0.0000031841918826 ]
  - [   0.0448767878115177,  0.0102281644940376, -0.0000004479661584 ]
  - [  -0.0452238470315933, -0.0103073073551059,  0.0000002830516905 ]
  - [   0.0015381909906864,  0.0002425480633974, -0.0001776595599949 ]
  - [   0.0006499364972115,  0.0001889858394861,  0.0000040865538722 ]
  - [   0.0051808878779411,  0.0007389392703772, -0.0005350512219593 ]
  - [   0.0036229342222214,  0.0007906649261713, -0.0002331743453396 ]
- atom:    5
  displacement:
    [  -0.0100000000000000,  0.0000000000000000,  0.0000000000000000 ]
  forces:
  - [   0.0101813618093729,  0.0022689593024552,  0.0000339392572641 ]
  - [  -0.0100981891155243, -0.0023206486366689, -0.0000114608710646 ]
  - [   0.0076286531984806,  0.0020208214409649, -0.0003884180623572 ]
  - [  -0.0137651320546865, -0.0026308991946280, -0.0006668434944004 ]
  - [   0.0588031560182571,  0.0087756346911192,  0.0000777225941420 ]
  - [  -0.0421468541026115, -0.0062554934993386,  0.0000035178381950 ]
  - [   0.0451746173202991,  0.0102960010990500, -0.0000005243346095 ]
  - [  -0.0448281317949295, -0.0102169979363680,  0.0000003321791269 ]
  - [  -0.0015069171786308, -0.0002366192638874,  0.0001720199361444 ]
  - [  -0.0006287395954132, -0.0001852018758655, -0.0000046753293645 ]
  - [  -0.0053284876048565, -0.0007308153435588,  0.0005847574211657 ]
  - [  -0.0034853294491768, -0.0007847584784031,  0.0001996167266043 ]
- atom:    9
  displacement:
    [   0.0100000000000000,  0.0000000000000000,  0.0000000000000000 ]
  forces:
  - [   0.0094977039843798,  0.0022033294662833,  0.0000061960890889 ]
  - [  -0.0096640251576900, -0.0041395127773285,  0.0001575085188961 ]
  - [   0.0135574564337730,  0.0026266654022038,  0.0005432296311483 ]
  - [  -0.0095516126602888, -0.0021771262399852, -0.0000003010869136 ]
  - [   0.0465249344706535,  0.0104978159070015, -0.0001712618395686 ]
  - [  -0.0443876348435879, -0.0100747747346759, -0.0000047825742513 ]
  - [   0.0503770075738430,  0.0110017135739326,  0.0005892305634916 ]
  - [  -0.0414058975875378, -0.0094678532332182, -0.0002354346943321 ]
  - [  -0.0233336947858334, -0.0005716485902667,  0.0005433778278530 ]
  - [   0.0016864761710167,  0.0001323102042079, -0.0000005216312502 ]
  - [  -0.0008390061557293, -0.0001915479078889,  0.0000009379754147 ]
  - [   0.0075382590293884,  0.0001606503501534, -0.0014281959738582 ]
- atom:    9
  displacement:
    [  -0.0100000000000000,  0.0000000000000000,  0.0000000000000000 ]
  forces:
  - [   0.0101194921880960,  0.0022670063190162, -0.0000061285682023 ]
  - [  -0.0099994298070669, -0.0003370149061084, -0.0001623807620490 ]
  - [   0.0059844218194485,  0.0018539614975452, -0.0005817825440317 ]
  - [  -0.0100790485739708, -0.0022974293678999, -0.0000002168027606 ]
  - [   0.0434801355004311,  0.0100179975852370,  0.0001773694530129 ]
  - [  -0.0456658005714417, -0.0104488581418991,  0.0000039089936763 ]
  - [   0.0398656874895096,  0.0095322579145432, -0.0005307672545314 ]
  - [  -0.0485160127282143, -0.0110430959612131,  0.0001973162143258 ]
  - [   0.0236924625933170,  0.0005764272063971, -0.0006435760296881 ]
  - [  -0.0018214732408524, -0.0001697111874819, -0.0000005961356919 ]
  - [   0.0008630678057671,  0.0001966739073396,  0.0000009174860907 ]
  - [  -0.0079235136508942, -0.0001482106745243,  0.0015459419228137 ]

force_constants:
  format: "full"
  shape: [ 12, 12 ]
  elements:
  - # (1, 1)
    - [     1.172109601489831,    -0.049396922833757,    -0.027476590862797 ]
    - [    -0.049396922833757,     1.377589530136313,     0.120558523660717 ]
    - [    -0.027476590862797,     0.120558523660717,     1.388847651419401 ]
  - # (1, 2)
    - [     0.035441947803804,    -0.007554077430303,    -0.000000021325121 ]
    - [    -0.007554077868650,     0.066865180780845,     0.000000006384046 ]
    - [    -0.000000021244710,     0.000000006031225,     0.068586829553835 ]
  - # (1, 3)
    - [    -0.014365748554165,    -0.003274501687984,    -0.000000000007807 ]
    - [    -0.003274492623929,    -0.000744523805593,    -0.000000000001498 ]
    - [    -0.000000003159215,    -0.000000000719737,     0.000001766130938 ]
  - # (1, 4)
    - [    -0.197313151062813,    -0.022038557736299,    -0.024093265100860 ]
    - [    -0.022038564792185,    -0.105637898845837,     0.105713704628916 ]
    - [    -0.024093268781215,     0.105713696271556,    -0.100615026777381 ]
  - # (1, 5)
    - [     0.034536454969362,     0.002868790344366,     0.003362761846644 ]
    - [     0.002868791690966,     0.022602943311448,    -0.014754845020234 ]
    - [     0.003362769127373,    -0.014754844214846,     0.021949103556346 ]
  - # (1, 6)
    - [    -0.027970282864429,    -0.008332086353522,     0.001133074292593 ]
    - [    -0.008332088164848,     0.006689283692468,    -0.004971664288595 ]
    - [     0.001133081333487,    -0.004971662205771,     0.008588248567379 ]
  - # (1, 7)
    - [    -0.222189934712445,    -0.021377276879077,     0.040035687045592 ]
    - [    -0.021377265273467,    -0.133265268104584,    -0.175663663615813 ]
    - [     0.040035673350038,    -0.175663655722873,    -0.128393212033949 ]
  - # (1, 8)
    - [    -0.389537340152570,    -0.039559820681342,    -0.064595015438363 ]
    - [    -0.039559830718878,    -0.224977702879868,     0.283422662613356 ]
    - [    -0.064595027284034,     0.283422641242551,    -0.215961478388056 ]
  - # (1, 9)
    - [     0.031107470414959,     0.003191073855382,    -0.000618489264596 ]
    - [     0.003191071611547,     0.017833356144946,     0.002713596431847 ]
    - [    -0.000618470834952,     0.002713601878496,     0.017106066727186 ]
  - # (1, 10)
    - [    -0.016764877454030,     0.190123271017788,     0.016007667052356 ]
    - [     0.190123283001203,    -0.807634164343566,    -0.070237056548521 ]
    - [     0.016007686893444,    -0.070237053646221,    -0.850965342197404 ]
  - # (1, 11)
    - [    -0.378678575446146,    -0.038635589813968,     0.056249190722510 ]
    - [    -0.038635597215243,    -0.217963197795926,    -0.246803232379403 ]
    - [     0.056249174761561,    -0.246803218097502,    -0.209157800683723 ]
  - # (1, 12)
    - [    -0.026375564431359,    -0.006014301801285,    -0.000004998960150 ]
    - [    -0.006014306812760,    -0.001357538290645,     0.000021968135182 ]
    - [    -0.000005003298980,     0.000021965522405,     0.000013194125427 ]
  - # (2, 1)
    - [     0.035441947803804,    -0.007554077868650,    -0.000000021244710 ]
    - [    -0.007554077430303,     0.066865180780845,     0.000000006031225 ]
    - [    -0.000000021325121,     0.000000006384046,     0.068586829553835 ]
  - # (2, 2)
    - [     1.172109600405083,    -0.049396920577607,     0.027476490784977 ]
    - [    -0.049396920577607,     1.377589531221060,    -0.120558098603829 ]
    - [     0.027476490784977,    -0.120558098603829,     1.388847573665827 ]
  - # (2, 3)
    - [    -0.197313169814412,    -0.022038525791007,     0.024093328440867 ]
    - [    -0.022038518735121,    -0.105637880094236,    -0.105713722638675 ]
    - [     0.024093321502616,    -0.105713716701410,    -0.100615094956992 ]
  - # (2, 4)
    - [    -0.014365735779091,    -0.003274519194618,    -0.000000000007812 ]
    - [    -0.003274528258673,    -0.000744536580667,    -0.000000000001492 ]
    - [    -0.000000003159222,    -0.000000000719734,     0.000001766130938 ]
  - # (2, 5)
    - [    -0.027970283759149,    -0.008332086303933,    -0.001133116111281 ]
    - [    -0.008332084492607,     0.006689284587188,     0.004971657527144 ]
    - [    -0.001133108863207,     0.004971658700931,     0.008588251773831 ]
  - # (2, 6)
    - [     0.034536454873936,     0.002868791889442,    -0.003362814043508 ]
    - [     0.002868790542842,     0.022602943406874,     0.014754840201999 ]
    - [    -0.003362807132817,     0.014754842630989,     0.021949113072420 ]
  - # (2, 7)
    - [    -0.389537367941922,    -0.039559772920211,     0.064595162853888 ]
    - [    -0.039559762882675,    -0.224977675090515,    -0.283422698657520 ]
    - [     0.064595142917796,    -0.283422684530123,    -0.215961661180311 ]
  - # (2, 8)
    - [    -0.222189910045538,    -0.021377316577805,    -0.040035599371558 ]
    - [    -0.021377328183415,    -0.133265292771492,     0.175663642194358 ]
    - [    -0.040035608294465,     0.175663629146427,    -0.128393098740421 ]
  - # (2, 9)
    - [    -0.016764885311145,     0.190123299343101,    -0.016007829118279 ]
    - [     0.190123287359686,    -0.807634156486451,     0.070236745198702 ]
    - [    -0.016007809979033,     0.070236751180442,    -0.850965296898411 ]
  - # (2, 10)
    - [     0.031107473251394,     0.003191065712086,     0.000618428488344 ]
    - [     0.003191067955921,     0.017833353308511,    -0.002713604767166 ]
    - [     0.000618447458043,    -0.002713601690101,     0.017106064977060 ]
  - # (2, 11)
    - [    -0.026375583125520,    -0.006014267931048,     0.000005013817557 ]
    - [    -0.006014262919573,    -0.001357519596483,    -0.000021964744764 ]
    - [     0.000005008775066,    -0.000021964270092,     0.000013194111260 ]
  - # (2, 12)
    - [    -0.378678540557440,    -0.038635669779752,    -0.056249044488484 ]
    - [    -0.038635662378477,    -0.217963232684634,     0.246803198260018 ]
    - [    -0.056249052684632,     0.246803178472453,    -0.209157641509036 ]
  - # (3, 1)
    - [    -0.014365748554165,    -0.003274492623929,    -0.000000003159215 ]
    - [    -0.003274501687984,    -0.000744523805593,    -0.000000000719737 ]
    - [    -0.000000000007807,    -0.000000000001498,     0.000001766130938 ]
  - # (3, 2)
    - [    -0.197313169814412,    -0.022038518735121,     0.024093321502616 ]
    - [    -0.022038525791007,    -0.105637880094236,    -0.105713716701410 ]
    - [     0.024093328440867,    -0.105713722638675,    -0.100615094956992 ]
  - # (3, 3)
    - [     1.172109698919068,    -0.049397134841855,     0.027476287807769 ]
    - [    -0.049397134841855,     1.377589514901087,    -0.120558144864472 ]
    - [     0.027476287807769,    -0.120558144864472,     1.388847491471894 ]
  - # (3, 4)
    - [     0.035441947675557,    -0.007554066027506,     0.000000005364525 ]
    - [    -0.007554088146029,     0.066865178311855,     0.000000012466906 ]
    - [     0.000000005444934,     0.000000012114081,     0.068586832151062 ]
  - # (3, 5)
    - [    -0.222189940024565,    -0.021377243204902,    -0.040035613756572 ]
    - [    -0.021377276732937,    -0.133265263308017,     0.175663627901545 ]
    - [    -0.040035629997860,     0.175663635214275,    -0.128393098224860 ]
  - # (3, 6)
    - [    -0.389537365740384,    -0.039559773357049,     0.064595139413613 ]
    - [    -0.039559771486288,    -0.224977677807348,    -0.283422685328764 ]
    - [     0.064595165892568,    -0.283422697964970,    -0.215961660665016 ]
  - # (3, 7)
    - [     0.034536443458902,     0.002868808902620,    -0.003362780498551 ]
    - [     0.002868822170167,     0.022602949747208,     0.014754848701219 ]
    - [    -0.003362780878714,     0.014754847760609,     0.021949118147109 ]
  - # (3, 8)
    - [    -0.027970281600975,    -0.008332071174254,    -0.001133072531813 ]
    - [    -0.008332107247652,     0.006689276496236,     0.004971666981251 ]
    - [    -0.001133074154460,     0.004971667089554,     0.008588257706592 ]
  - # (3, 9)
    - [    -0.378678582924388,    -0.038635552400965,    -0.056249065157803 ]
    - [    -0.038635604097429,    -0.217963187786202,     0.246803175629669 ]
    - [    -0.056249085577682,     0.246803188895322,    -0.209157644040508 ]
  - # (3, 10)
    - [    -0.026375578830476,    -0.006014270494314,     0.000004999049876 ]
    - [    -0.006014278799912,    -0.001357521358930,    -0.000021966486565 ]
    - [     0.000005020015179,    -0.000021963332257,     0.000013191578664 ]
  - # (3, 11)
    - [     0.031107458579790,     0.003191101074094,     0.000618473514718 ]
    - [     0.003191095547110,     0.017833359543971,    -0.002713595751510 ]
    - [     0.000618470457131,    -0.002713595202034,     0.017106073413190 ]
  - # (3, 12)
    - [    -0.016764881143953,     0.190123212883180,    -0.016007691549162 ]
    - [     0.190123371113815,    -0.807634224840031,     0.070236778171868 ]
    - [    -0.016007707441924,     0.070236772930066,    -0.850965232712074 ]
  - # (4, 1)
    - [    -0.197313151062813,    -0.022038564792185,    -0.024093268781215 ]
    - [    -0.022038557736299,    -0.105637898845837,     0.105713696271556 ]
    - [    -0.024093265100860,     0.105713704628916,    -0.100615026777381 ]
  - # (4, 2)
    - [    -0.014365735779091,    -0.003274528258673,    -0.000000003159222 ]
    - [    -0.003274519194618,    -0.000744536580667,    -0.000000000719734 ]
    - [    -0.000000000007812,    -0.000000000001492,     0.000001766130938 ]
  - # (4, 3)
    - [     0.035441947675557,    -0.007554088146029,     0.000000005444934 ]
    - [    -0.007554066027506,     0.066865178311855,     0.000000012114081 ]
    - [     0.000000005364525,     0.000000012466906,     0.068586832151062 ]
  - # (4, 4)
    - [     1.172109511093072,    -0.049396744185313,    -0.027476793839920 ]
    - [    -0.049396744185313,     1.377589702727094,     0.120558477400007 ]
    - [    -0.027476793839920,     0.120558477400007,     1.388847569225468 ]
  - # (4, 5)
    - [    -0.389537342404997,    -0.039559820021219,    -0.064595030788214 ]
    - [    -0.039559821891980,    -0.224977701142737,     0.283422640443911 ]
    - [    -0.064595012399683,     0.283422663305902,    -0.215961477872760 ]
  - # (4, 6)
    - [    -0.222189904784332,    -0.021377350028583,     0.040035667887899 ]
    - [    -0.021377316500549,    -0.133265298548252,    -0.175663656967745 ]
    - [     0.040035656419268,    -0.175663670595865,    -0.128393211518388 ]
  - # (4, 7)
    - [    -0.027970285608506,    -0.008332098912447,     0.001133117664879 ]
    - [    -0.008332062839048,     0.006689280503768,    -0.004971653925460 ]
    - [     0.001133116249420,    -0.004971654726179,     0.008588254500141 ]
  - # (4, 8)
    - [     0.034536465883235,     0.002868775530126,     0.003362795761629 ]
    - [     0.002868762262579,     0.022602927322874,    -0.014754838144606 ]
    - [     0.003362795011427,    -0.014754837461618,     0.021949108631035 ]
  - # (4, 9)
    - [    -0.026375568476292,    -0.006014300335428,    -0.000005013024166 ]
    - [    -0.006014292029830,    -0.001357531713115,     0.000021963305928 ]
    - [    -0.000004992762524,     0.000021969547687,     0.000013191592831 ]
  - # (4, 10)
    - [    -0.378678532829198,    -0.038635708289681,     0.056249162288347 ]
    - [    -0.038635656593218,    -0.217963237881394,    -0.246803220940267 ]
    - [     0.056249149633278,    -0.246803241744059,    -0.209157803215195 ]
  - # (4, 11)
    - [    -0.016764887960071,     0.190123385290559,     0.016007805323338 ]
    - [     0.190123227059925,    -0.807634218023913,    -0.070237026654767 ]
    - [     0.016007788728701,    -0.070237028817195,    -0.850965278011067 ]
  - # (4, 12)
    - [     0.031107484253435,     0.003191042148872,    -0.000618444778289 ]
    - [     0.003191047675856,     0.017833333870325,     0.002713607817096 ]
    - [    -0.000618447295821,     0.002713605996990,     0.017106075163316 ]
  - # (5, 1)
    - [     0.034536454969362,     0.002868791690966,     0.003362769127373 ]
    - [     0.002868790344366,     0.022602943311448,    -0.014754844214846 ]
    - [     0.003362761846644,    -0.014754845020234,     0.021949103556346 ]
  - # (5, 2)
    - [    -0.027970283759149,    -0.008332084492607,    -0.001133108863207 ]
    - [    -0.008332086303933,     0.006689284587188,     0.004971658700931 ]
    - [    -0.001133116111281,     0.004971657527144,     0.008588251773831 ]
  - # (5, 3)
    - [    -0.222189940024565,    -0.021377276732937,    -0.040035629997860 ]
    - [    -0.021377243204902,    -0.133265263308017,     0.175663635214275 ]
    - [    -0.040035613756572,     0.175663627901545,    -0.128393098224860 ]
  - # (5, 4)
    - [    -0.389537342404997,    -0.039559821891980,    -0.064595012399683 ]
    - [    -0.039559820021219,    -0.224977701142737,     0.283422663305902 ]
    - [    -0.064595030788214,     0.283422640443911,    -0.215961477872760 ]
  - # (5, 5)
    - [     1.379749803687436,    -0.147735857892942,     0.007725302421780 ]
    - [    -0.147735857892942,     1.994297081179551,    -0.033895960247616 ]
    - [     0.007725302421780,    -0.033895960247616,     2.027967662583444 ]
  - # (5, 6)
    - [     0.287878303536518,     0.401154934967309,    -0.000000140480476 ]
    - [     0.401154952864771,    -1.380834278469961,    -0.000000270067701 ]
    - [    -0.000000140770109,    -0.000000268796872,    -1.472261828550920 ]
  - # (5, 7)
    - [     0.014898705460498,     0.003393222415895,     0.000000004214947 ]
    - [     0.003393240626371,     0.000783725599945,     0.000000000962298 ]
    - [    -0.000000009641364,    -0.000000002195701,     0.000010367282295 ]
  - # (5, 8)
    - [     0.019793006702658,     0.004516851470671,     0.000008497556395 ]
    - [     0.004516831232361,     0.001003909497655,    -0.000037267346944 ]
    - [     0.000008482901550,    -0.000037269354332,    -0.000025523838414 ]
  - # (5, 9)
    - [    -0.152250959775339,    -0.023974755933146,     0.017458724076220 ]
    - [    -0.023974759546734,    -0.052521483755657,    -0.076603379466894 ]
    - [     0.017458735217109,    -0.076603374819345,    -0.047057410336387 ]
  - # (5, 10)
    - [    -0.063924324399411,    -0.018706891857111,    -0.000431282197476 ]
    - [    -0.018706891954812,     0.013892047223749,     0.001892258487013 ]
    - [    -0.000431270439454,     0.001892260397505,     0.018155541968522 ]
  - # (5, 11)
    - [    -0.525520688599650,    -0.073480330880316,     0.056000324105107 ]
    - [    -0.073480325006132,    -0.219859174305213,    -0.245711195413792 ]
    - [     0.056000316877890,    -0.245711178361781,    -0.203112286957893 ]
  - # (5, 12)
    - [    -0.355462735393361,    -0.078766780863804,     0.021639552436881 ]
    - [    -0.078766831137196,    -0.027811090417951,    -0.094947299912625 ]
    - [     0.021639582242021,    -0.094947287474223,    -0.009859301383204 ]
  - # (6, 1)
    - [    -0.027970282864429,    -0.008332088164848,     0.001133081333487 ]
    - [    -0.008332086353522,     0.006689283692468,    -0.004971662205771 ]
    - [     0.001133074292593,    -0.004971664288595,     0.008588248567379 ]
  - # (6, 2)
    - [     0.034536454873936,     0.002868790542842,    -0.003362807132817 ]
    - [     0.002868791889442,     0.022602943406874,     0.014754842630989 ]
    - [    -0.003362814043508,     0.014754840201999,     0.021949113072420 ]
  - # (6, 3)
    - [    -0.389537365740384,    -0.039559771486288,     0.064595165892568 ]
    - [    -0.039559773357049,    -0.224977677807348,    -0.283422697964970 ]
    - [     0.064595139413613,    -0.283422685328764,    -0.215961660665016 ]
  - # (6, 4)
    - [    -0.222189904784332,    -0.021377316500549,     0.040035656419268 ]
    - [    -0.021377350028583,    -0.133265298548252,    -0.175663670595865 ]
    - [     0.040035667887899,    -0.175663656967745,    -0.128393211518388 ]
  - # (6, 5)
    - [     0.287878303536518,     0.401154952864771,    -0.000000140770109 ]
    - [     0.401154934967309,    -1.380834278469961,    -0.000000268796872 ]
    - [    -0.000000140480476,    -0.000000270067701,    -1.472261828550920 ]
  - # (6, 6)
    - [     1.379749786411541,    -0.147735821961060,    -0.007725354572566 ]
    - [    -0.147735821961060,     1.994297098455447,     0.033896602326487 ]
    - [    -0.007725354572566,     0.033896602326487,     2.027967684444707 ]
  - # (6, 7)
    - [     0.019792992856342,     0.004516860031111,    -0.000008490091023 ]
    - [     0.004516880269421,     0.001003923343971,     0.000037269040153 ]
    - [    -0.000008504168422,     0.000037264499151,    -0.000025523814378 ]
  - # (6, 8)
    - [     0.014898721337428,     0.003393207604177,     0.000000004214942 ]
    - [     0.003393189393702,     0.000783709723015,     0.000000000962308 ]
    - [    -0.000000009641374,    -0.000000002195700,     0.000010367282295 ]
  - # (6, 9)
    - [    -0.063924325643085,    -0.018706889368112,     0.000431250401130 ]
    - [    -0.018706889270411,     0.013892048467424,    -0.001892259879071 ]
    - [     0.000431261825809,    -0.001892256505975,     0.018155540748118 ]
  - # (6, 10)
    - [    -0.152250961995927,    -0.023974754928166,    -0.017458745926657 ]
    - [    -0.023974751314578,    -0.052521481535070,     0.076603359312215 ]
    - [    -0.017458733872160,     0.076603359951145,    -0.047057360931368 ]
  - # (6, 11)
    - [    -0.355462771331785,    -0.078766756389393,    -0.021639480256748 ]
    - [    -0.078766706116001,    -0.027811054479525,     0.094947313183909 ]
    - [    -0.021639448005325,     0.094947314888868,    -0.009859240147341 ]
  - # (6, 12)
    - [    -0.525520646655823,    -0.073480412244486,    -0.056000139511474 ]
    - [    -0.073480418118670,    -0.219859216249043,     0.245711171986490 ]
    - [    -0.056000138636083,     0.245711153486830,    -0.203112128487508 ]
  - # (7, 1)