# Thermal properties / unit cell (natom)

unit:
  temperature:   K
  free_energy:   kJ/mol
  entropy:       J/K/mol
  heat_capacity: J/K/mol

natom: 18   
cutoff_frequency: 0.00000
num_modes: 166698
num_integrated_modes: 166698

zero_point_energy:      75.3968670

thermal_properties:
- temperature:         0.0000000
  free_energy:        75.3968670
  entropy:             0.0000000
  heat_capacity:       0.0000000
  energy:             75.3968670

- temperature:        10.0000000
  free_energy:        75.3940439
  entropy:             0.8296831
  heat_capacity:       2.3067916
  energy:             75.4023407

- temperature:        20.0000000
  free_energy:        75.3636327
  entropy:             6.3881122
  heat_capacity:      17.8756273
  energy:             75.4913949

- temperature:        30.0000000
  free_energy:        75.2460625
  entropy:            17.8910688
  heat_capacity:      40.6461594
  energy:             75.7827945

- temperature:        40.0000000
  free_energy:        74.9949050
  entropy:            32.7249585
  heat_capacity:      63.5196389
  energy:             76.3039034

- temperature:        50.0000000
  free_energy:        74.5856691
  entropy:            49.3573968
  heat_capacity:      86.4960884
  energy:             77.0535389

- temperature:        60.0000000
  free_energy:        74.0037182
  entropy:            67.2104058
  heat_capacity:     110.2010816
  energy:             78.0363425

- temperature:        70.0000000
  free_energy:        73.2382694
  entropy:            86.0222532
  heat_capacity:     134.5698756
  energy:             79.2598271

- temperature:        80.0000000
  free_energy:        72.2807437
  entropy:           105.5925799
  heat_capacity:     159.0581329
  energy:             80.7281501

- temperature:        90.0000000
  free_energy:        71.1245689
  entropy:           125.7174733
  heat_capacity:     182.9959028
  energy:             82.4391415

- temperature:       100.0000000
  free_energy:        69.7652342
  entropy:           146.1908383
  heat_capacity:     205.8151842
  energy:             84.3843181

- temperature:       110.0000000
  free_energy:        68.2002361
  entropy:           166.8198818
  heat_capacity:     227.1340330
  energy:             86.5504231

- temperature:       120.0000000
  free_energy:        66.4288799
  entropy:           187.4369580
  heat_capacity:     246.7524746
  energy:             88.9213149

- temperature:       130.0000000
  free_energy:        64.4519983
  entropy:           207.9046349
  heat_capacity:     264.6125836
  energy:             91.4796008

- temperature:       140.0000000
  free_energy:        62.2716460
  entropy:           228.1155865
  heat_capacity:     280.7530603
  energy:             94.2078281

- temperature:       150.0000000
  free_energy:        59.8908123
  entropy:           247.9895869
  heat_capacity:     295.2709941
  energy:             97.0892503

- temperature:       160.0000000
  free_energy:        57.3131705
  entropy:           267.4693296
  heat_capacity:     308.2938693
  energy:            100.1082633

- temperature:       170.0000000
  free_energy:        54.5428706
  entropy:           286.5161027
  heat_capacity:     319.9608122
  energy:            103.2506080

- temperature:       180.0000000
  free_energy:        51.5843732
  entropy:           305.1058388
  heat_capacity:     330.4109088
  energy:            106.5034241

- temperature:       190.0000000
  free_energy:        48.4423208
  entropy:           323.2257443
  heat_capacity:     339.7764727
  energy:            109.8552122

- temperature:       200.0000000
  free_energy:        45.1214393
  entropy:           340.8715369
  heat_capacity:     348.1795815
  energy:            113.2957467

- temperature:       210.0000000
  free_energy:        41.6264642
  entropy:           358.0452424
  heat_capacity:     355.7306674
  energy:            116.8159651

- temperature:       220.0000000
  free_energy:        37.9620864
  entropy:           374.7534705
  heat_capacity:     362.5283399
  energy:            120.4078499

- temperature:       230.0000000
  free_energy:        34.1329138
  entropy:           391.0060823
  heat_capacity:     368.6599022
  energy:            124.0643127

- temperature:       240.0000000
  free_energy:        30.1434434
  entropy:           406.8151731
  heat_capacity:     374.2022218
  energy:            127.7790849

- temperature:       250.0000000
  free_energy:        25.9980436
  entropy:           422.1943006
  heat_capacity:     379.2227480
  energy:            131.5466188

- temperature:       260.0000000
  free_energy:        21.7009425
  entropy:           437.1579070
  heat_capacity:     383.7805544
  energy:            135.3619983

- temperature:       270.0000000
  free_energy:        17.2562209
  entropy:           451.7208873
  heat_capacity:     387.9273385
  energy:            139.2208605

- temperature:       280.0000000
  free_energy:        12.6678100
  entropy:           465.8982728
  heat_capacity:     391.7083430
  energy:            143.1193264

- temperature:       290.0000000
  free_energy:         7.9394909
  entropy:           479.7049991
  heat_capacity:     395.1631865
  energy:            147.0539407

- temperature:       300.0000000
  free_energy:         3.0748966
  entropy:           493.1557418
  heat_capacity:     398.3265981
  energy:            151.0216192

- temperature:       310.0000000
  free_energy:        -1.9224850
  entropy:           506.2648007
  heat_capacity:     401.2290630
  energy:            155.0196032

- temperature:       320.0000000
  free_energy:        -7.0493067
  entropy:           519.0460217
  heat_capacity:     403.8973833
  energy:            159.0454203

- temperature:       330.0000000
  free_energy:       -12.3023572
  entropy:           531.5127472
  heat_capacity:     406.3551645
  energy:            163.0968494

- temperature:       340.0000000
  free_energy:       -17.6785560
  entropy:           543.6777869
  heat_capacity:     408.6232361
  energy:            167.1718915

- temperature:       350.0000000
  free_energy:       -23.1749482
  entropy:           555.5534046
  heat_capacity:     410.7200133
  energy:            171.2687434

- temperature:       360.0000000
  free_energy:       -28.7886985
  entropy:           567.1513163
  heat_capacity:     412.6618100
  energy:            175.3857754

- temperature:       370.0000000
  free_energy:       -34.5170862
  entropy:           578.4826962
  heat_capacity:     414.4631074
  energy:            179.5215114

- temperature:       380.0000000
  free_energy:       -40.3574995
  entropy:           589.5581890
  heat_capacity:     416.1367860
  energy:            183.6746123

- temperature:       390.0000000
  free_energy:       -46.3074308
  entropy:           600.3879256
  heat_capacity:     417.6943260
  energy:            187.8438602

- temperature:       400.0000000
  free_energy:       -52.3644710
  entropy:           610.9815425
  heat_capacity:     419.1459796
  energy:            192.0281459

- temperature:       410.0000000
  free_energy:       -58.5263052
  entropy:           621.3482016
  heat_capacity:     420.5009209
  energy:            196.2264575

- temperature:       420.0000000
  free_energy:       -64.7907076
  entropy:           631.4966122
  heat_capacity:     421.7673750
  energy:            200.4378695

- temperature:       430.0000000
  free_energy:       -71.1555376
  entropy:           641.4350519
  heat_capacity:     422.9527304
  energy:            204.6615347

- temperature:       440.0000000
  free_energy:       -77.6187350
  entropy:           651.1713887
  heat_capacity:     424.0636365
  energy:            208.8966760

- temperature:       450.0000000
  free_energy:       -84.1783167
  entropy:           660.7131022
  heat_capacity:     425.1060886
  energy:            213.1425793

- temperature:       460.0000000
  free_energy:       -90.8323721
  entropy:           670.0673039
  heat_capacity:     426.0855016
  energy:            217.3985877

- temperature:       470.0000000
  free_energy:       -97.5790603
  entropy:           679.2407572
  heat_capacity:     427.0067753
  energy:            221.6640956

- temperature:       480.0000000
  free_energy:      -104.4166062
  entropy:           688.2398968
  heat_capacity:     427.8743505
  energy:            225.9385443

- temperature:       490.0000000
  free_energy:      -111.3432976
  entropy:           697.0708464
  heat_capacity:     428.6922588
  energy:            230.2214171

- temperature:       500.0000000
  free_energy:      -118.3574820
  entropy:           705.7394362
  heat_capacity:     429.4641664
  energy:            234.5122361

- temperature:       510.0000000
  free_energy:      -125.4575637
  entropy:           714.2512195
  heat_capacity:     430.1934124
  energy:            238.8105583

- temperature:       520.0000000
  free_energy:      -132.6420013
  entropy:           722.6114879
  heat_capacity:     430.8830426
  energy:            243.1159724

- temperature:       530.0000000
  free_energy:      -139.9093052
  entropy:           730.8252860
  heat_capacity:     431.5358392
  energy:            247.4280964

- temperature:       540.0000000
  free_energy:      -147.2580349
  entropy:           738.8974255
  heat_capacity:     432.1543478
  energy:            251.7465749

- temperature:       550.0000000
  free_energy:      -154.6867969
  entropy:           746.8324976
  heat_capacity:     432.7409005
  energy:            256.0710768

- temperature:       560.0000000
  free_energy:      -162.1942426
  entropy:           754.6348859
  heat_capacity:     433.2976369
  energy:            260.4012935

- temperature:       570.0000000
  free_energy:      -169.7790663
  entropy:           762.3087773
  heat_capacity:     433.8265223
  energy:            264.7369368

- temperature:       580.0000000
  free_energy:      -177.4400032
  entropy:           769.8581730
  heat_capacity:     434.3293648
  energy:            269.0777372

- temperature:       590.0000000
  free_energy:      -185.1758275
  entropy:           777.2868989
  heat_capacity:     434.8078293
  energy:            273.4234428

- temperature:       600.0000000
  free_energy:      -192.9853511
  entropy:           784.5986146
  heat_capacity:     435.2634515
  energy:            277.7738176

- temperature:       610.0000000
  free_energy:      -200.8674215
  entropy:           791.7968228
  heat_capacity:     435.6976489
  energy:            282.1286404

- temperature:       620.0000000
  free_energy:      -208.8209204
  entropy:           798.8848774
  heat_capacity:     436.1117321
  energy:            286.4877036

- temperature:       630.0000000
  free_energy:      -216.8447626
  entropy:           805.8659915
  heat_capacity:     436.5069137
  energy:            290.8508121

- temperature:       640.0000000
  free_energy:      -224.9378941
  entropy:           812.7432448
  heat_capacity:     436.8843170
  energy:            295.2177826

- temperature:       650.0000000
  free_energy:      -233.0992911
  entropy:           819.5195904
  heat_capacity:     437.2449841
  energy:            299.5884426

- temperature:       660.0000000
  free_energy:      -241.3279590
  entropy:           826.1978616
  heat_capacity:     437.5898823
  energy:            303.9626297

- temperature:       670.0000000
  free_energy:      -249.6229305
  entropy:           832.7807780
  heat_capacity:     437.9199105
  energy:            308.3401907

- temperature:       680.0000000
  free_energy:      -257.9832654
  entropy:           839.2709508
  heat_capacity:     438.2359050
  energy:            312.7209812

- temperature:       690.0000000
  free_energy:      -266.4080488
  entropy:           845.6708890
  heat_capacity:     438.5386448
  energy:            317.1048647

- temperature:       700.0000000
  free_energy:      -274.8963904
  entropy:           851.9830039
  heat_capacity:     438.8288556
  energy:            321.4917123

- temperature:       710.0000000
  free_energy:      -283.4474238
  entropy:           858.2096142
  heat_capacity:     439.1072147
  energy:            325.8814023

- temperature:       720.0000000
  free_energy:      -292.0603051
  entropy:           864.3529505
  heat_capacity:     439.3743545
  energy:            330.2738192

- temperature:       730.0000000
  free_energy:      -300.7342124
  entropy:           870.4151594
  heat_capacity:     439.6308660
  energy:            334.6688539

- temperature:       740.0000000
  free_energy:      -309.4683448
  entropy:           876.3983078
  heat_capacity:     439.8773022
  energy:            339.0664029

- temperature:       750.0000000
  free_energy:      -318.2619217
  entropy:           882.3043864
  heat_capacity:     440.1141807
  energy:            343.4663681

- temperature:       760.0000000
  free_energy:      -327.1141820
  entropy:           888.1353136
  heat_capacity:     440.3419864
  energy:            347.8686563

- temperature:       770.0000000
  free_energy:      -336.0243836
  entropy:           893.8929386
  heat_capacity:     440.5611743
  energy:            352.2731791

- temperature:       780.0000000
  free_energy:      -344.9918024
  entropy:           899.5790448
  heat_capacity:     440.7721711
  energy:            356.6798525

- temperature:       790.0000000
  free_energy:      -354.0157319
  entropy:           905.1953525
  heat_capacity:     440.9753776
  energy:            361.0885966

- temperature:       800.0000000
  free_energy:      -363.0954823
  entropy:           910.7435221
  heat_capacity:     441.1711708
  energy:            365.4993353

- temperature:       810.0000000
  free_energy:      -372.2303805
  entropy:           916.2251568
  heat_capacity:     441.3599050
  energy:            369.9119965

- temperature:       820.0000000
  free_energy:      -381.4197689
  entropy:           921.6418048
  heat_capacity:     441.5419138
  energy:            374.3265110

- temperature:       830.0000000
  free_energy:      -390.6630050
  entropy:           926.9949619
  heat_capacity:     441.7175113
  energy:            378.7428134

- temperature:       840.0000000
  free_energy:      -399.9594613
  entropy:           932.2860740
  heat_capacity:     441.8869938
  energy:            383.1608409

- temperature:       850.0000000
  free_energy:      -409.3085243
  entropy:           937.5165390
  heat_capacity:     442.0506406
  energy:            387.5805338

- temperature:       860.0000000
  free_energy:      -418.7095944
  entropy:           942.6877088
  heat_capacity:     442.2087154
  energy:            392.0018351

- temperature:       870.0000000
  free_energy:      -428.1620852
  entropy:           947.8008915
  heat_capacity:     442.3614670
  energy:            396.4246904

- temperature:       880.0000000
  free_energy:      -437.6654232
  entropy:           952.8573531
  heat_capacity:     442.5091309
  energy:            400.8490475

- temperature:       890.0000000
  free_energy:      -447.2190473
  entropy:           957.8583192
  heat_capacity:     442.6519296
  energy:            405.2748568

- temperature:       900.0000000
  free_energy:      -456.8224086
  entropy:           962.8049768
  heat_capacity:     442.7900734
  energy:            409.7020706

- temperature:       910.0000000
  free_energy:      -466.4749696
  entropy:           967.6984759
  heat_capacity:     442.9237618
  energy:            414.1306434

- temperature:       920.0000000
  free_energy:      -476.1762046
  entropy:           972.5399306
  heat_capacity:     443.0531836
  energy:            418.5605316

- temperature:       930.0000000
  free_energy:      -485.9255984
  entropy:           977.3304213
  heat_capacity:     443.1785176
  energy:            422.9916934

- temperature:       940.0000000
  free_energy:      -495.7226466
  entropy:           982.0709952
  heat_capacity:     443.2999336
  energy:            427.4240889

- temperature:       950.0000000
  free_energy:      -505.5668553
  entropy:           986.7626683
  heat_capacity:     443.4175926
  energy:            431.8576796

- temperature:       960.0000000
  free_energy:      -515.4577403
  entropy:           991.4064260
  heat_capacity:     443.5316474
  energy:            436.2924287

- temperature:       970.0000000
  free_energy:      -525.3948273
  entropy:           996.0032250
  heat_capacity:     443.6422432
  energy:            440.7283010

- temperature:       980.0000000
  free_energy:      -535.3776514
  entropy:          1000.5539937
  heat_capacity:     443.7495180
  energy:            445.1652625

- temperature:       990.0000000
  free_energy:      -545.4057567
  entropy:          1005.0596338
  heat_capacity:     443.8536030
  energy:            449.6032807

- temperature:      1000.0000000
  free_energy:      -555.4786965
  entropy:          1009.5210209
  heat_capacity:     443.9546229
  energy:            454.0423244
