# Tetrahedron method
       -1.2162475906        0.0000000000
       -1.1432727395        0.0000000000
       -1.0702978883        0.0000000000
       -0.9973230372        0.0000000000
       -0.9243481861        0.0000000000
       -0.8513733349        0.0000000000
       -0.7783984838        0.0000000000
       -0.7054236327        0.0000000000
       -0.6324487815        0.0000000000
       -0.5594739304        0.0000000000
       -0.4864990793        0.0000000000
       -0.4135242282        0.0000000000
       -0.3405493770        0.0000000000
       -0.2675745259        0.0000000000
       -0.1945996748        0.0000000000
       -0.1216248236        0.0000000000
       -0.0486499725        0.0000000000
        0.0243248786        0.0001912978
        0.0972997298        0.0030607685
        0.1702745809        0.0117457112
        0.2432494320        0.0232048796
        0.3162242831        0.0413035817
        0.3891991343        0.0673606469
        0.4621739854        0.1111407441
        0.5351488365        0.1394845340
        0.6081236877        0.1752142384
        0.6810985388        0.2136121692
        0.7540733899        0.2599068321
        0.8270482411        0.3188193050
        0.9000230922        0.3816512649
        0.9729979433        0.4483284100
        1.0459727944        0.5236095696
        1.1189476456        0.6110410576
        1.1919224967        0.6966622931
        1.2648973478        0.8472062102
        1.3378721990        1.1163203941
        1.4108470501        1.1925552800
        1.4838219012        1.1647103981
        1.5567967524        1.1899738300
        1.6297716035        1.2725009376
        1.7027464546        1.4140441942
        1.7757213057        1.5198699644
        1.8486961569        1.7639816472
        1.9216710080        2.0341305941
        1.9946458591        2.5061730132
        2.0676207103        3.4945045233
        2.1405955614        5.0565879824
        2.2135704125        6.5028388433
        2.2865452637        5.7020136830
        2.3595201148        5.0370262287
        2.4324949659        4.7077565664
        2.5054698170        4.2408153297
        2.5784446682        5.3033138162
        2.6514195193        4.6177811770
        2.7243943704        1.6450110443
        2.7973692216        0.5810426044
        2.8703440727        0.7748771278
        2.9433189238        0.0191204047
        3.0162937750        0.1395579680
        3.0892686261        0.8139117662
        3.1622434772        0.8116361077
        3.2352183283        0.8415197452
        3.3081931795        0.9204335895
        3.3811680306        0.9498354186
        3.4541428817        1.0307251426
        3.5271177329        1.1525682380
        3.6000925840        1.3633780323
        3.6730674351        2.0408090901
        3.7460422863        1.6447090931
        3.8190171374        1.7452334761
        3.8919919885        3.9631155026
        3.9649668396        1.4012617408
        4.0379416908        1.2738777596
        4.1109165419        1.0278990403
        4.1838913930        0.9429013616
        4.2568662442        0.8828583243
        4.3298410953        0.8599848222
        4.4028159464        0.8401845708
        4.4757907976        0.8248512142
        4.5487656487        0.8154890642
        4.6217404998        0.8186922781
        4.6947153509        0.8210990672
        4.7676902021        0.8232587300
        4.8406650532        0.8229984715
        4.9136399043        0.8263829531
        4.9866147555        0.8303394825
        5.0595896066        0.8350283811
        5.1325644577        0.8309818358
        5.2055393089        0.7426142416
        5.2785141600        0.6636747327
        5.3514890111        0.6314406399
        5.4244638622        0.6708342286
        5.4974387134        0.6637799397
        5.5704135645        0.6884090054
        5.6433884156        0.5370544871
        5.7163632668        0.4787450775
        5.7893381179        0.5991199109
        5.8623129690        0.6451471220
        5.9352878202        0.4462562800
        6.0082626713        0.5331342034
        6.0812375224        0.3249929168
        6.1542123735        0.4333688298
        6.2271872247        0.8594234024
        6.3001620758        0.5322982932
        6.3731369269        0.5876785683
        6.4461117781        0.7691784457
        6.5190866292        1.0747999645
        6.5920614803        1.3189916553
        6.6650363315        2.6063029584
        6.7380111826        3.8390594313
        6.8109860337        4.9428989231
        6.8839608848        5.7239661091
        6.9569357360        3.9983856619
        7.0299105871        3.2878926133
        7.1028854382        2.6177570776
        7.1758602894        1.8707079523
        7.2488351405        1.5780481407
        7.3218099916        1.2586259867
        7.3947848428        1.7085391865
        7.4677596939        2.2268288880
        7.5407345450        2.3019619092
        7.6137093961        2.3586703379
        7.6866842473        2.4347646245
        7.7596590984        2.1761914624
        7.8326339495        1.9262777378
        7.9056088007        1.6246709096
        7.9785836518        1.5168754984
        8.0515585029        1.3549630219
        8.1245333541        1.3657661914
        8.1975082052        1.4061930029
        8.2704830563        1.5116495183
        8.3434579074        1.7475722789
        8.4164327586        2.1568280370
        8.4894076097        2.2188926559
        8.5623824608        2.2630688655
        8.6353573120        2.3110128767
        8.7083321631        1.9714810943
        8.7813070142        1.6842974657
        8.8542818654        1.9582659817
        8.9272567165        1.7037920386
        9.0002315676        0.8475656621
        9.0732064187        0.5607730248
        9.1461812699        0.3776204331
        9.2191561210        0.2270014518
        9.2921309721        0.1697214395
        9.3651058233        0.3115543743
        9.4380806744        0.0431794086
        9.5110555255        0.3039508899
        9.5840303767        0.3975652179
        9.6570052278        0.4285636534
        9.7299800789        0.5699233355
        9.8029549300        0.6720709615
        9.8759297812        0.9089510409
        9.9489046323        1.0574243432
       10.0218794834        1.3840072328
       10.0948543346        1.5391265596
       10.1678291857        1.4774620549
       10.2408040368        1.4556088524
       10.3137788880        1.4460187695
       10.3867537391        1.4663089632
       10.4597285902        1.4845658383
       10.5327034413        1.2462695407
       10.6056782925        1.1719429291
       10.6786531436        1.1968664824
       10.7516279947        1.3668906798
       10.8246028459        1.6876655949
       10.8975776970        2.1718245270
       10.9705525481        1.6488208643
       11.0435273993        1.2386469003
       11.1165022504        1.3301265576
       11.1894771015        0.9666614784
       11.2624519527        2.2172477477
       11.3354268038        2.9794573222
       11.4084016549        6.1311021033
       11.4813765060        5.9696150873
       11.5543513572        3.3467449919
       11.6273262083        2.0840432783
       11.7003010594        1.1990801932
       11.7732759106        0.8792822694
       11.8462507617        0.5544560392
       11.9192256128        0.4503400426
       11.9922004640        0.3456274794
       12.0651753151        0.2423818337
       12.1381501662        0.0805811777
       12.2111250173        0.0000000000
       12.2840998685        0.0000000000
       12.3570747196        0.0000000000
       12.4300495707        0.0000000000
       12.5030244219        0.0000000000
       12.5759992730        0.0000000000
       12.6489741241        0.0000000000
       12.7219489753        0.0000000000
       12.7949238264        0.0000000000
       12.8678986775        0.0000000000
       12.9408735286        0.0000000000
       13.0138483798        0.0000000000
       13.0868232309        0.0000000000
       13.1597980820        0.0000000000
       13.2327729332        0.0000000000
       13.3057477843        0.0000000000
       13.3787226354        0.0000000000
