phonopy:
  version: "2.37.1"
  frequency_unit_conversion_factor: 15.633302
  symmetry_tolerance: 1.00000e-05

space_group:
  type: "P-1"
  number: 2
  Hall_symbol: "-P 1"

primitive_matrix:
- [  0.000000000000000,  1.000000000000000,  0.000000000000000 ]
- [ -1.000000000000000,  0.000000000000000, -1.000000000000000 ]
- [ -1.000000000000000,  0.000000000000000,  0.000000000000000 ]

supercell_matrix:
- [   2,   0,   0 ]
- [   0,   2,   0 ]
- [   0,   0,   2 ]

primitive_cell:
  lattice:
  - [     2.442263642698314,    -1.177591905587525,    -4.244066180086036 ] # a
  - [     5.175229155551749,     0.000000000000000,     0.000000000000000 ] # b
  - [     0.813793432804755,    -5.338662883401271,     0.000000000000000 ] # c
  points:
  - symbol: Li # 1
    coordinates: [  0.909049938064244,  0.501750245829606,  0.569201995335508 ]
    mass: 6.940000
  - symbol: Li # 2
    coordinates: [  0.738002034699004,  0.834906621792785,  0.069751969482613 ]
    mass: 6.940000
  - symbol: Li # 3
    coordinates: [  0.244911962216977,  0.831425609706853,  0.563260787270018 ]
    mass: 6.940000
  - symbol: Li # 4
    coordinates: [  0.073863905778818,  0.164581938141804,  0.063810473041952 ]
    mass: 6.940000
  - symbol: Sn # 5
    coordinates: [  0.405641555900760,  0.499242931892359,  0.066124952708473 ]
    mass: 118.710000
  - symbol: Sn # 6
    coordinates: [  0.577272350284876,  0.167089278475166,  0.566888558127278 ]
    mass: 118.710000
  reciprocal_lattice: # without 2pi
  - [     0.000000000000000,    -0.000000000000000,    -0.235623092941432 ] # a*
  - [     0.193228158588349,     0.029454530081130,     0.103021176321662 ] # b*
  - [     0.000000000000000,    -0.187312820052593,     0.051973284898737 ] # c*

unit_cell:
  lattice:
  - [     5.175229155551749,     0.000000000000000,     0.000000000000000 ] # a
  - [    -0.813793432804755,     5.338662883401271,     0.000000000000000 ] # b
  - [    -1.628470209893559,    -4.161070977813747,     4.244066180086036 ] # c
  points:
  - symbol: Li # 1
    coordinates: [  0.501750245829606,  0.521748066600248,  0.090950061935756 ]
    mass: 6.940000
    reduced_to: 1
  - symbol: Li # 2
    coordinates: [  0.834906621792785,  0.192245995818383,  0.261997965300996 ]
    mass: 6.940000
    reduced_to: 2
  - symbol: Li # 3
    coordinates: [  0.831425609706853,  0.191827250513005,  0.755088037783023 ]
    mass: 6.940000
    reduced_to: 3
  - symbol: Li # 4
    coordinates: [  0.164581938141804,  0.862325621179230,  0.926136094221182 ]
    mass: 6.940000
    reduced_to: 4
  - symbol: Sn # 5
    coordinates: [  0.499242931892359,  0.528233491390767,  0.594358444099240 ]
    mass: 118.710000
    reduced_to: 5
  - symbol: Sn # 6
    coordinates: [  0.167089278475166,  0.855839091587846,  0.422727649715124 ]
    mass: 118.710000
    reduced_to: 6

supercell:
  lattice:
  - [    10.350458311103498,     0.000000000000000,     0.000000000000000 ] # a
  - [    -1.627586865609510,    10.677325766802543,     0.000000000000000 ] # b
  - [    -3.256940419787117,    -8.322141955627494,     8.488132360172072 ] # c
  points:
  - symbol: Li # 1
    coordinates: [  0.250875122914803,  0.260874033300124,  0.045475030967878 ]
    mass: 6.940000
    reduced_to: 1
  - symbol: Li # 2
    coordinates: [  0.750875122914803,  0.260874033300124,  0.045475030967878 ]
    mass: 6.940000
    reduced_to: 1
  - symbol: Li # 3
    coordinates: [  0.250875122914803,  0.760874033300124,  0.045475030967878 ]
    mass: 6.940000
    reduced_to: 1
  - symbol: Li # 4
    coordinates: [  0.750875122914803,  0.760874033300124,  0.045475030967878 ]
    mass: 6.940000
    reduced_to: 1
  - symbol: Li # 5
    coordinates: [  0.250875122914803,  0.260874033300124,  0.545475030967878 ]
    mass: 6.940000
    reduced_to: 1
  - symbol: Li # 6
    coordinates: [  0.750875122914803,  0.260874033300124,  0.545475030967878 ]
    mass: 6.940000
    reduced_to: 1
  - symbol: Li # 7
    coordinates: [  0.250875122914803,  0.760874033300124,  0.545475030967878 ]
    mass: 6.940000
    reduced_to: 1
  - symbol: Li # 8
    coordinates: [  0.750875122914803,  0.760874033300124,  0.545475030967878 ]
    mass: 6.940000
    reduced_to: 1
  - symbol: Li # 9
    coordinates: [  0.417453310896392,  0.096122997909191,  0.130998982650498 ]
    mass: 6.940000
    reduced_to: 9
  - symbol: Li # 10
    coordinates: [  0.917453310896392,  0.096122997909191,  0.130998982650498 ]
    mass: 6.940000
    reduced_to: 9
  - symbol: Li # 11
    coordinates: [  0.417453310896392,  0.596122997909191,  0.130998982650498 ]
    mass: 6.940000
    reduced_to: 9
  - symbol: Li # 12
    coordinates: [  0.917453310896392,  0.596122997909191,  0.130998982650498 ]
    mass: 6.940000
    reduced_to: 9
  - symbol: Li # 13
    coordinates: [  0.417453310896392,  0.096122997909191,  0.630998982650498 ]
    mass: 6.940000
    reduced_to: 9
  - symbol: Li # 14
    coordinates: [  0.917453310896392,  0.096122997909191,  0.630998982650498 ]
    mass: 6.940000
    reduced_to: 9
  - symbol: Li # 15
    coordinates: [  0.417453310896392,  0.596122997909191,  0.630998982650498 ]
    mass: 6.940000
    reduced_to: 9
  - symbol: Li # 16
    coordinates: [  0.917453310896392,  0.596122997909191,  0.630998982650498 ]
    mass: 6.940000
    reduced_to: 9
  - symbol: Li # 17
    coordinates: [  0.415712804853427,  0.095913625256503,  0.377544018891512 ]
    mass: 6.940000
    reduced_to: 17
  - symbol: Li # 18
    coordinates: [  0.915712804853427,  0.095913625256503,  0.377544018891512 ]
    mass: 6.940000
    reduced_to: 17
  - symbol: Li # 19
    coordinates: [  0.415712804853427,  0.595913625256503,  0.377544018891512 ]
    mass: 6.940000
    reduced_to: 17
  - symbol: Li # 20
    coordinates: [  0.915712804853427,  0.595913625256503,  0.377544018891512 ]
    mass: 6.940000
    reduced_to: 17
  - symbol: Li # 21
    coordinates: [  0.415712804853427,  0.095913625256503,  0.877544018891512 ]
    mass: 6.940000
    reduced_to: 17
  - symbol: Li # 22
    coordinates: [  0.915712804853427,  0.095913625256503,  0.877544018891512 ]
    mass: 6.940000
    reduced_to: 17
  - symbol: Li # 23
    coordinates: [  0.415712804853427,  0.595913625256503,  0.877544018891512 ]
    mass: 6.940000
    reduced_to: 17
  - symbol: Li # 24
    coordinates: [  0.915712804853427,  0.595913625256503,  0.877544018891512 ]
    mass: 6.940000
    reduced_to: 17
  - symbol: Li # 25
    coordinates: [  0.082290969070902,  0.431162810589615,  0.463068047110591 ]
    mass: 6.940000
    reduced_to: 25
  - symbol: Li # 26
    coordinates: [  0.582290969070902,  0.431162810589615,  0.463068047110591 ]
    mass: 6.940000
    reduced_to: 25
  - symbol: Li # 27
    coordinates: [  0.082290969070902,  0.931162810589615,  0.463068047110591 ]
    mass: 6.940000
    reduced_to: 25
  - symbol: Li # 28
    coordinates: [  0.582290969070902,  0.931162810589615,  0.463068047110591 ]
    mass: 6.940000
    reduced_to: 25
  - symbol: Li # 29
    coordinates: [  0.082290969070902,  0.431162810589615,  0.963068047110591 ]
    mass: 6.940000
    reduced_to: 25
  - symbol: Li # 30
    coordinates: [  0.582290969070902,  0.431162810589615,  0.963068047110591 ]
    mass: 6.940000
    reduced_to: 25
  - symbol: Li # 31
    coordinates: [  0.082290969070902,  0.931162810589615,  0.963068047110591 ]
    mass: 6.940000
    reduced_to: 25
  - symbol: Li # 32
    coordinates: [  0.582290969070902,  0.931162810589615,  0.963068047110591 ]
    mass: 6.940000
    reduced_to: 25
  - symbol: Sn # 33
    coordinates: [  0.249621465946180,  0.264116745695384,  0.297179222049620 ]
    mass: 118.710000
    reduced_to: 33
  - symbol: Sn # 34
    coordinates: [  0.749621465946180,  0.264116745695384,  0.297179222049620 ]
    mass: 118.710000
    reduced_to: 33
  - symbol: Sn # 35
    coordinates: [  0.249621465946180,  0.764116745695384,  0.297179222049620 ]
    mass: 118.710000
    reduced_to: 33
  - symbol: Sn # 36
    coordinates: [  0.749621465946180,  0.764116745695384,  0.297179222049620 ]
    mass: 118.710000
    reduced_to: 33
  - symbol: Sn # 37
    coordinates: [  0.249621465946180,  0.264116745695384,  0.797179222049620 ]
    mass: 118.710000
    reduced_to: 33
  - symbol: Sn # 38
    coordinates: [  0.749621465946180,  0.264116745695384,  0.797179222049620 ]
    mass: 118.710000
    reduced_to: 33
  - symbol: Sn # 39
    coordinates: [  0.249621465946180,  0.764116745695384,  0.797179222049620 ]
    mass: 118.710000
    reduced_to: 33
  - symbol: Sn # 40
    coordinates: [  0.749621465946180,  0.764116745695384,  0.797179222049620 ]
    mass: 118.710000
    reduced_to: 33
  - symbol: Sn # 41
    coordinates: [  0.083544639237583,  0.427919545793923,  0.211363824857562 ]
    mass: 118.710000
    reduced_to: 41
  - symbol: Sn # 42
    coordinates: [  0.583544639237583,  0.427919545793923,  0.211363824857562 ]
    mass: 118.710000
    reduced_to: 41
  - symbol: Sn # 43
    coordinates: [  0.083544639237583,  0.927919545793923,  0.211363824857562 ]
    mass: 118.710000
    reduced_to: 41
  - symbol: Sn # 44
    coordinates: [  0.583544639237583,  0.927919545793923,  0.211363824857562 ]
    mass: 118.710000
    reduced_to: 41
  - symbol: Sn # 45
    coordinates: [  0.083544639237583,  0.427919545793923,  0.711363824857562 ]
    mass: 118.710000
    reduced_to: 41
  - symbol: Sn # 46
    coordinates: [  0.583544639237583,  0.427919545793923,  0.711363824857562 ]
    mass: 118.710000
    reduced_to: 41
  - symbol: Sn # 47
    coordinates: [  0.083544639237583,  0.927919545793923,  0.711363824857562 ]
    mass: 118.710000
    reduced_to: 41
  - symbol: Sn # 48
    coordinates: [  0.583544639237583,  0.927919545793923,  0.711363824857562 ]
    mass: 118.710000
    reduced_to: 41

displacements:
- atom:    1
  displacement:
    [   0.0100000000000000,  0.0000000000000000,  0.0000000000000000 ]
  forces:
  - [  -0.0234608147293329,  0.0110000018030405,  0.0059335334226489 ]
  - [  -0.0006767604500055,  0.0120349060744047,  0.0029575796797872 ]
  - [  -0.0005867807194591,  0.0119254942983389,  0.0029134347569197 ]
  - [  -0.0007144035771489,  0.0119845848530531,  0.0028632562607527 ]
  - [  -0.0008870773017406,  0.0114411711692810,  0.0032777455635369 ]
  - [  -0.0007011657580733,  0.0119338259100914,  0.0028705701697618 ]
  - [  -0.0002036578953266,  0.0120021272450686,  0.0032845418900251 ]
  - [  -0.0000689541921020,  0.0118585508316755,  0.0026075905188918 ]
  - [   0.0008635446429253,  0.0110858576372266, -0.0075606703758240 ]
  - [  -0.0004378259181976,  0.0123060327023268, -0.0081875026226044 ]
  - [  -0.0000209882855415,  0.0133077381178737, -0.0079293958842754 ]
  - [   0.0000221580266953,  0.0125267477706075, -0.0083379633724689 ]
  - [  -0.0001019835472107,  0.0125247705727816, -0.0082774832844734 ]
  - [  -0.0001581758260727,  0.0124739306047559, -0.0084833912551403 ]
  - [  -0.0000918507575989,  0.0126162655651569, -0.0081317014992237 ]
  - [  -0.0001486837863922,  0.0125552564859390, -0.0082577355206013 ]
  - [   0.0001693442463875, -0.0124566629528999,  0.0081600956618786 ]
  - [   0.0002179667353630, -0.0124794859439135,  0.0082770213484764 ]
  - [  -0.0001405701041222, -0.0122728142887354,  0.0084660239517689 ]
  - [  -0.0018319040536880, -0.0125188659876585,  0.0080225951969624 ]
  - [   0.0038507953286171, -0.0129456315189600,  0.0055171288549900 ]
  - [   0.0031269565224648, -0.0120865963399410,  0.0100046657025814 ]
  - [   0.0001440718770027, -0.0124191679060459,  0.0082330889999866 ]
  - [  -0.0000515952706337, -0.0124807450920343,  0.0081948563456535 ]
  - [   0.0005706371739507, -0.0122848004102707, -0.0026156052481383 ]
  - [   0.0006209986750036, -0.0119972210377455, -0.0029009913560003 ]
  - [   0.0006942520849407, -0.0118745062500238, -0.0028248880989850 ]
  - [   0.0007179707754403, -0.0118996147066355, -0.0028621009550989 ]
  - [   0.0015360999386758, -0.0134698394685984, -0.0022817468270659 ]
  - [   0.0005945516750216, -0.0119554642587900, -0.0028929901309311 ]
  - [   0.0009323349222541, -0.0106860511004925, -0.0025221696123481 ]
  - [   0.0007621939294040, -0.0119950287044048, -0.0028644520789385 ]
  - [   0.0268661901354790, -0.0039399564266205,  0.0023535992950201 ]
  - [   0.0262376628816128, -0.0053949393332005,  0.0043295836076140 ]
  - [   0.0257794559001923, -0.0053378455340862,  0.0043008401989937 ]
  - [   0.0260836631059647, -0.0050053335726261,  0.0043723136186600 ]
  - [   0.0268624052405357, -0.0045570936053991,  0.0027682287618518 ]
  - [   0.0261083319783211, -0.0052268672734499,  0.0044107427820563 ]
  - [   0.0258996784687042, -0.0045874062925577,  0.0046879556030035 ]
  - [   0.0260791294276714, -0.0052300393581390,  0.0043668178841472 ]
  - [  -0.0177319198846817,  0.0044569326564670, -0.0090115871280432 ]
  - [  -0.0198921840637922,  0.0058083203621209, -0.0011924088466913 ]
  - [  -0.0260623041540384,  0.0051703676581383, -0.0043059336021543 ]
  - [  -0.0261799171566963,  0.0052853799425066, -0.0043411566875875 ]
  - [  -0.0259996708482504,  0.0049327034503222, -0.0043295985087752 ]
  - [  -0.0260632149875164,  0.0052530197426677, -0.0043703145347536 ]
  - [  -0.0257311388850212,  0.0054413247853518, -0.0043138754554093 ]
  - [  -0.0267968419939280,  0.0051766759715974, -0.0043781516142190 ]
- atom:    1
  displacement:
    [  -0.0100000000000000,  0.0000000000000000,  0.0000000000000000 ]
  forces:
  - [   0.0220875907689333,  0.0128288511186838, -0.0005107198376209 ]
  - [  -0.0007096286863089,  0.0118753872811794,  0.0027745317202061 ]
  - [  -0.0007982058450580,  0.0119853969663382,  0.0028216545470059 ]
  - [  -0.0006705746054649,  0.0119261723011732,  0.0028714716900140 ]
  - [  -0.0004969686269760,  0.0124724451452494,  0.0024523369502276 ]
  - [  -0.0006837453693151,  0.0119782127439976,  0.0028606262058020 ]
  - [  -0.0011783316731453,  0.0119098667055368,  0.0024391505867243 ]
  - [  -0.0013210680335760,  0.0120497327297926,  0.0031157257035375 ]
  - [  -0.0011283531785011,  0.0139309056103230, -0.0089057050645351 ]
  - [   0.0001787096261978,  0.0127396518364549, -0.0082849524915218 ]
  - [  -0.0002528578042984,  0.0117237027734518, -0.0085445269942284 ]
  - [  -0.0002826675772667,  0.0125027289614081, -0.0081320814788342 ]
  - [  -0.0001610815525055,  0.0125017426908016, -0.0081918165087700 ]
  - [  -0.0001108273863792,  0.0125558907166123, -0.0079852938652039 ]
  - [  -0.0001730099320412,  0.0124159194529057, -0.0083394274115562 ]
  - [  -0.0001188591122627,  0.0124750342220068, -0.0082132332026958 ]
  - [   0.0000976324081421, -0.0125766694545746,  0.0083118155598640 ]
  - [   0.0000465437769890, -0.0125533007085323,  0.0081969574093819 ]
  - [   0.0004068762063980, -0.0127633810043335,  0.0079939290881157 ]
  - [   0.0020956844091415, -0.0125103108584881,  0.0084671452641487 ]
  - [  -0.0035153403878212, -0.0121017098426819,  0.0108914598822594 ]
  - [  -0.0029185712337494, -0.0129589773714542,  0.0064234770834446 ]
  - [   0.0001238882541656, -0.0126143936067820,  0.0082413889467716 ]
  - [   0.0003201439976692, -0.0125549361109734,  0.0082782618701458 ]
  - [   0.0008160532452166, -0.0116271348670125, -0.0031216910574585 ]
  - [   0.0007665103767067, -0.0119142718613148, -0.0028407201170921 ]
  - [   0.0006934683769941, -0.0120421508327127, -0.0029110333416611 ]
  - [   0.0006692269816995, -0.0120176430791616, -0.0028684432618320 ]
  - [  -0.0001506512053311, -0.0104262158274651, -0.0034545697271824 ]
  - [   0.0007836020085961, -0.0119738038629293, -0.0028371112421155 ]
  - [   0.0004701055586338, -0.0132232215255499, -0.0032080896198750 ]
  - [   0.0006232582964003, -0.0119197163730860, -0.0028682732954621 ]
  - [   0.0251993834972382, -0.0064757037907839,  0.0062682796269655 ]
  - [   0.0258071832358837, -0.0050122477114201,  0.0042891744524240 ]
  - [   0.0262603927403688, -0.0050843264907598,  0.0043190792202950 ]
  - [   0.0259643457829952, -0.0054075401276350,  0.0042497925460339 ]
  - [   0.0251655578613281, -0.0058687906712294,  0.0058632669970393 ]
  - [   0.0259360335767269, -0.0051880255341530,  0.0042058993130922 ]
  - [   0.0261485427618027, -0.0058061927556992,  0.0039368318393826 ]
  - [   0.0259672105312347, -0.0051707588136196,  0.0042536333203316 ]
  - [  -0.0346064195036888,  0.0060196560807526,  0.0005805790424347 ]
  - [  -0.0319088101387024,  0.0046407738700509, -0.0072661414742470 ]
  - [  -0.0259841866791248,  0.0052485489286482, -0.0043149483390152 ]
  - [  -0.0258673336356878,  0.0051350682042539, -0.0042804130353034 ]
  - [  -0.0260469783097506,  0.0054769683629274, -0.0042891278862953 ]
  - [  -0.0259881671518087,  0.0051607778295875, -0.0042515494860709 ]
  - [  -0.0263127088546753,  0.0049935160204768, -0.0042446418665349 ]
  - [  -0.0252426378428936,  0.0052444743923843, -0.0042419806122780 ]
- atom:    1
  displacement:
    [  -0.0015069323453722,  0.0098858057287442,  0.0000000000000000 ]
  forces:
  - [   0.0018503842875361, -0.0006186170503497,  0.0011932852212340 ]
  - [  -0.0006145052611828,  0.0119299422949553,  0.0030560833401978 ]
  - [  -0.0007382584735751,  0.0122734000906348,  0.0028518799226731 ]
  - [  -0.0006601437926292,  0.0119795706123114,  0.0028601731173694 ]
  - [  -0.0011723227798939,  0.0107421185821295,  0.0041114203631878 ]
  - [  -0.0007126824930310,  0.0119740255177021,  0.0028297628741711 ]
  - [  -0.0007185265421867,  0.0117967436090112,  0.0029477514326572 ]
  - [  -0.0008821561932564,  0.0119118634611368,  0.0029248083010316 ]
  - [  -0.0021915733814240,  0.0144505612552166, -0.0091958753764629 ]
  - [  -0.0002557188272476,  0.0124407159164548, -0.0081000886857510 ]
  - [   0.0012988597154617,  0.0150243621319532, -0.0072438791394234 ]
  - [  -0.0001997724175453,  0.0125206960365176, -0.0081767402589321 ]
  - [  -0.0004754215478897,  0.0126704890280962, -0.0081297159194946 ]
  - [  -0.0001530349254608,  0.0124179432168603, -0.0080557167530060 ]
  - [  -0.0000766292214394,  0.0127327814698219, -0.0078866258263588 ]
  - [  -0.0001521781086922,  0.0125187635421753, -0.0081434100866318 ]
  - [   0.0000562146306038, -0.0122398231178522,  0.0080903917551041 ]
  - [   0.0001394525170326, -0.0125094018876553,  0.0082297623157501 ]
  - [   0.0003801956772804, -0.0122875720262527,  0.0097057819366455 ]
  - [   0.0003851279616356, -0.0127511769533157,  0.0078313685953617 ]
  - [  -0.0012504979968071, -0.0125713367015123,  0.0088240616023540 ]
  - [   0.0001430585980415, -0.0126859936863184,  0.0081490278244019 ]
  - [   0.0002123489975929, -0.0122563485056162,  0.0081610716879368 ]
  - [   0.0002517402172089, -0.0130007509142160,  0.0081798955798149 ]
  - [   0.0003898080904037, -0.0115829491987824, -0.0028858210425824 ]
  - [   0.0006626234389842, -0.0121480831876397, -0.0028212156612426 ]
  - [   0.0007765586487949, -0.0115254344418645, -0.0026502357795835 ]
  - [   0.0007487616967410, -0.0118918735533953, -0.0028701259288937 ]
  - [  -0.0009606471285224, -0.0100555457174778, -0.0035214903764427 ]
  - [   0.0007160375826061, -0.0121340304613113, -0.0027927216142416 ]
  - [   0.0018972246907651, -0.0091885253787041, -0.0020009498111904 ]
  - [   0.0006458470597863, -0.0119091309607029, -0.0029243286699057 ]
  - [   0.0269587151706219, -0.0038017183542252,  0.0022041965276003 ]
  - [   0.0258792806416750, -0.0050238408148289,  0.0042981477454305 ]
  - [   0.0266266092658043, -0.0058079697191715,  0.0040052123367786 ]
  - [   0.0260553508996964, -0.0050067193806171,  0.0044041797518730 ]
  - [   0.0270404238253832, -0.0035933461040258,  0.0019357921555638 ]
  - [   0.0260441601276398, -0.0050718151032925,  0.0042668199166656 ]
  - [   0.0262043029069901, -0.0061153415590525,  0.0035163350403309 ]
  - [   0.0260017998516560, -0.0050784945487976,  0.0042439540848136 ]
  - [  -0.0280218981206417,  0.0053717987611890, -0.0034097437746823 ]
  - [  -0.0264203939586878,  0.0062258425168693, -0.0039890795014799 ]
  - [  -0.0260618999600410,  0.0055947750806808, -0.0042469333857298 ]
  - [  -0.0259320158511400,  0.0046107321977615, -0.0043000159785151 ]
  - [  -0.0261138733476400,  0.0056070648133755, -0.0042822174727917 ]
  - [  -0.0259651355445385,  0.0052170231938362, -0.0044293315149844 ]
  - [  -0.0256990045309067,  0.0057109501212835, -0.0023045884445310 ]
  - [  -0.0259366370737553,  0.0051336828619242, -0.0044603380374610 ]
- atom:    1
  displacement:
    [   0.0015069323453722, -0.0098858057287442,  0.0000000000000000 ]
  forces:
  - [  -0.0032038912177086,  0.0245279520750046,  0.0045478339307010 ]
  - [  -0.0007673455402255,  0.0119791384786367,  0.0026725491043180 ]
  - [  -0.0006473343819380,  0.0116380732506514,  0.0028824028559029 ]
  - [  -0.0007245913147926,  0.0119317453354597,  0.0028744372539222 ]
  - [  -0.0002115778625011,  0.0131697207689285,  0.0016208472661674 ]
  - [  -0.0006714016199112,  0.0119378054514527,  0.0029018402565271 ]
  - [  -0.0006628520786762,  0.0121163651347160,  0.0027839820832014 ]
  - [  -0.0005046408623457,  0.0120009165257215,  0.0028113154694438 ]
  - [   0.0019707977771759,  0.0105397105216980, -0.0072531141340733 ]
  - [  -0.0000094398856163,  0.0125914979726076, -0.0083728283643723 ]
  - [  -0.0015311986207962,  0.0100617045536637, -0.0092104636132717 ]
  - [  -0.0000638887286186,  0.0125115271657705, -0.0082953348755836 ]
  - [   0.0002051740884781,  0.0123609229922295, -0.0083382576704025 ]
  - [  -0.0001119524240494,  0.0126120885834098, -0.0084130279719830 ]
  - [  -0.0001908168196678,  0.0122967734932899, -0.0085895471274853 ]
  - [  -0.0001145675778389,  0.0125125832855701, -0.0083276182413101 ]
  - [   0.0002077370882034, -0.0127930603921413,  0.0083830989897251 ]
  - [   0.0001241937279701, -0.0125244278460741,  0.0082440674304962 ]
  - [  -0.0001109167933464, -0.0127540547400713,  0.0067614540457726 ]
  - [  -0.0001206472516060, -0.0122824497520924,  0.0086414366960526 ]
  - [   0.0015117153525352, -0.0124541893601418,  0.0076551437377930 ]
  - [   0.0001376792788506, -0.0123459324240685,  0.0083325207233429 ]
  - [   0.0000564008951187, -0.0127789136022329,  0.0083113573491573 ]
  - [   0.0000165998935699, -0.0120350178331137,  0.0082936920225620 ]
  - [   0.0010031256824732, -0.0123361777514219, -0.0028488945681602 ]
  - [   0.0007225815206766, -0.0117688272148371, -0.0029135581571609 ]
  - [   0.0006109338719398, -0.0123906526714563, -0.0030754245817661 ]
  - [   0.0006393557414412, -0.0120250973850489, -0.0028608920983970 ]
  - [   0.0023028943687677, -0.0138180833309889, -0.0022284921724349 ]
  - [   0.0006692344322801, -0.0117840198799968, -0.0029426189139485 ]
  - [  -0.0005415696650743, -0.0147860087454319, -0.0037550255656242 ]
  - [   0.0007411828264594, -0.0120076537132263, -0.0028078276664019 ]
  - [   0.0250567980110645, -0.0066584199666977,  0.0064724627882242 ]
  - [   0.0261624939739704, -0.0053849462419748,  0.0043192822486162 ]
  - [   0.0254335459321737, -0.0046344902366400,  0.0045967586338520 ]
  - [   0.0259906593710184, -0.0054019447416067,  0.0042172595858574 ]
  - [   0.0250276252627373, -0.0067684091627598,  0.0066139576956630 ]
  - [   0.0260022282600403, -0.0053394511342049,  0.0043510086834431 ]
  - [   0.0258249528706074, -0.0042555741965771,  0.0051283668726683 ]
  - [   0.0260468423366547, -0.0053253062069416,  0.0043776566162705 ]
  - [  -0.0240347236394882,  0.0050344849005342, -0.0052087530493736 ]
  - [  -0.0256545208394527,  0.0041843634098768, -0.0046459645964205 ]
  - [  -0.0259871874004602,  0.0048258248716593, -0.0043752025812864 ]
  - [  -0.0261127445846796,  0.0058078397996724, -0.0043194387108088 ]
  - [  -0.0259386114776134,  0.0048075378872454, -0.0043401317670941 ]
  - [  -0.0260865315794945,  0.0051967622712255, -0.0041923299431801 ]
  - [  -0.0263543128967285,  0.0047203795984387, -0.0063224718905985 ]
  - [  -0.0261074379086494,  0.0052873403765261, -0.0041575166396797 ]
- atom:    1
  displacement:
    [  -0.0026424743077883, -0.0067520566756177,  0.0068867307324975 ]
  forces:
  - [   0.0082101151347160,  0.0200561024248600, -0.0154286418110132 ]
  - [  -0.0006852764636278,  0.0120851248502731,  0.0031679656822234 ]
  - [  -0.0006687222048640,  0.0117439003661275,  0.0028887868393213 ]
  - [  -0.0007093688473105,  0.0119230840355158,  0.0028721219860017 ]
  - [  -0.0000085784122348,  0.0138852475211024,  0.0010334837716073 ]
  - [  -0.0006715608760715,  0.0119271613657475,  0.0028915761504322 ]
  - [  -0.0005605071783066,  0.0121502336114645,  0.0025993771851063 ]
  - [  -0.0009683109819889,  0.0120353121310472,  0.0030178138986230 ]
  - [   0.0012957528233528,  0.0113754058256745, -0.0079209469258785 ]
  - [   0.0000481531023979,  0.0127717284485698, -0.0082965828478336 ]
  - [  -0.0008606761693954,  0.0111111439764500, -0.0090805292129517 ]
  - [  -0.0002099052071571,  0.0124672101810575, -0.0081964358687401 ]
  - [   0.0002342909574509,  0.0123003888875246, -0.0083011873066425 ]
  - [  -0.0002186074852943,  0.0127293867990375, -0.0084299966692924 ]
  - [  -0.0002413317561150,  0.0122184567153454, -0.0086126960813999 ]
  - [  -0.0001007243990898,  0.0124979913234711, -0.0081448256969452 ]
  - [   0.0001922994852066, -0.0129003729671240,  0.0084511563181877 ]
  - [   0.0001264363527298, -0.0125607326626778,  0.0082501918077469 ]
  - [  -0.0001278668642044, -0.0120768193155527,  0.0103397071361542 ]
  - [   0.0005338788032532, -0.0127123072743416,  0.0075119622051716 ]
  - [  -0.0016666129231453, -0.0123510826379061,  0.0096734613180161 ]
  - [   0.0002688318490982, -0.0123992664739490,  0.0080801844596863 ]
  - [   0.0000343620777130, -0.0128818470984697,  0.0083703696727753 ]
  - [   0.0000999867916107, -0.0122072054073215,  0.0082162097096443 ]
  - [   0.0011269664391875, -0.0120846256613731, -0.0030707300174981 ]
  - [   0.0007176063954830, -0.0117829283699393, -0.0029382756911218 ]
  - [   0.0006674379110336, -0.0121294138953090, -0.0033150562085211 ]
  - [   0.0006490792147815, -0.0120295044034719, -0.0028240019455552 ]
  - [   0.0018937690183520, -0.0130687914788723, -0.0026741342153400 ]
  - [   0.0006908741779625, -0.0117959231138229, -0.0029536858201027 ]
  - [   0.0000106212683022, -0.0136948097497225, -0.0037396256811917 ]
  - [   0.0007008677348495, -0.0120180025696754, -0.0028032269328833 ]
  - [   0.0238637421280146, -0.0081382561475039,  0.0094063989818096 ]
  - [   0.0260815471410751, -0.0053448546677828,  0.0043394593521953 ]
  - [   0.0259303543716669, -0.0049329455941916,  0.0044404938817024 ]
  - [   0.0260024964809418, -0.0053570698946714,  0.0043032653629780 ]
  - [   0.0237327460199594, -0.0081994626671076,  0.0091785173863173 ]
  - [   0.0259850695729256, -0.0052586700767279,  0.0042652338743210 ]
  - [   0.0258513428270817, -0.0049049593508244,  0.0044647976756096 ]
  - [   0.0261066630482674, -0.0052369758486748,  0.0043372213840485 ]
  - [  -0.0312254317104816,  0.0056404788047075, -0.0008586319163442 ]
  - [  -0.0258993767201900,  0.0048004789277911, -0.0044086044654250 ]
  - [  -0.0260097999125719,  0.0050664055161178, -0.0043737119995058 ]
  - [  -0.0260544829070568,  0.0055896928533912, -0.0043779192492366 ]
  - [  -0.0259913913905621,  0.0051312311552465, -0.0043499264866114 ]
  - [  -0.0260934419929981,  0.0051079331897199, -0.0041508935391903 ]
  - [  -0.0262393336743116,  0.0062630353495479,  0.0017810701392591 ]
  - [  -0.0258439742028713,  0.0051896846853197, -0.0046305460855365 ]
- atom:    1
  displacement:
    [   0.0026424743077883,  0.0067520566756177, -0.0068867307324975 ]
  forces:
  - [  -0.0095000099390745,  0.0038670348003507,  0.0212151035666466 ]
  - [  -0.0006949016824365,  0.0118237137794495,  0.0025611594319344 ]
  - [  -0.0007164450362325,  0.0121674956753850,  0.0028456766158342 ]
  - [  -0.0006757536903024,  0.0119881611317396,  0.0028624997939914 ]
  - [  -0.0013761539012194,  0.0100276712328196,  0.0046978234313428 ]
  - [  -0.0007128948345780,  0.0119845736771822,  0.0028397808782756 ]
  - [  -0.0008227415382862,  0.0117629459127784,  0.0031319726258516 ]
  - [  -0.0004165731370449,  0.0118783861398697,  0.0027194442227483 ]
  - [  -0.0015423670411110,  0.0136543642729521, -0.0085621997714043 ]
  - [  -0.0003106594085693,  0.0122622791677713, -0.0081745013594627 ]
  - [   0.0005954951047897,  0.0139231001958251, -0.0073721073567867 ]
  - [  -0.0000573769211769,  0.0125683005899191, -0.0082778111100197 ]
  - [  -0.0005089715123177,  0.0127308275550604, -0.0081639364361763 ]
  - [  -0.0000430792570114,  0.0122989313676953, -0.0080377943813801 ]
  - [  -0.0000266283750534,  0.0128099918365479, -0.0078686550259590 ]
  - [  -0.0001694336533546,  0.0125287696719170, -0.0083266794681549 ]
  - [   0.0000722780823708, -0.0121370404958725,  0.0080246105790138 ]
  - [   0.0001381263136864, -0.0124727785587311,  0.0082239992916584 ]
  - [   0.0003953725099564, -0.0129486247897148,  0.0061284452676773 ]
  - [  -0.0002715736627579, -0.0123217590153217,  0.0089596919715405 ]
  - [   0.0019336417317390, -0.0126896537840366,  0.0068037994205952 ]
  - [   0.0000184699892998, -0.0126313986256719,  0.0084051638841629 ]
  - [   0.0002355054020882, -0.0121476743370295,  0.0081006847321987 ]
  - [   0.0001680999994278, -0.0128276720643044,  0.0082568749785423 ]
  - [   0.0002694367431104, -0.0118390480056405, -0.0026633827947080 ]
  - [   0.0006648614071310, -0.0121302353218198, -0.0027990466915071 ]
  - [   0.0007212955970317, -0.0117820985615253, -0.0024097231216729 ]
  - [   0.0007373522967100, -0.0118893384933472, -0.0029082549735904 ]
  - [  -0.0005233539268374, -0.0108391102403402, -0.0030544647015631 ]
  - [   0.0006914150435477, -0.0121271125972271, -0.0027822307310998 ]
  - [   0.0013732989318669, -0.0102342423051596, -0.0020112195052207 ]
  - [   0.0006839567795396, -0.0118976663798094, -0.0029300767928362 ]
  - [   0.0280926823616028, -0.0024537853896618, -0.0005682706832886 ]
  - [   0.0259648934006691, -0.0050631482154131,  0.0042794877663255 ]
  - [   0.0261115487664938, -0.0054791439324617,  0.0041826851665974 ]