# Thermal properties / unit cell (natom)

unit:
  temperature:   K
  free_energy:   kJ/mol
  entropy:       J/K/mol
  heat_capacity: J/K/mol

natom: 8    
cutoff_frequency: 0.00000
num_modes: 152064
num_integrated_modes: 138489

zero_point_energy:      18.9956477

thermal_properties:
- temperature:         0.0000000
  free_energy:        18.9956477
  entropy:             0.0000000
  heat_capacity:       0.0000000
  energy:             18.9956477

- temperature:        10.0000000
  free_energy:        18.9767452
  entropy:             6.0802358
  heat_capacity:      12.7196263
  energy:             19.0375476

- temperature:        20.0000000
  free_energy:        18.8415121
  entropy:            21.7489286
  heat_capacity:      35.1870479
  energy:             19.2764907

- temperature:        30.0000000
  free_energy:        18.5332111
  entropy:            40.0860948
  heat_capacity:      56.0146289
  energy:             19.7357939

- temperature:        40.0000000
  free_energy:        18.0395372
  entropy:            58.5513257
  heat_capacity:      72.4262983
  energy:             20.3815902

- temperature:        50.0000000
  free_energy:        17.3651756
  entropy:            76.1438723
  heat_capacity:      85.2538816
  energy:             21.1723692

- temperature:        60.0000000
  free_energy:        16.5203170
  entropy:            92.6468716
  heat_capacity:      95.8002558
  energy:             22.0791293

- temperature:        70.0000000
  free_energy:        15.5157055
  entropy:           108.1110879
  heat_capacity:     104.8654320
  energy:             23.0834817

- temperature:        80.0000000
  free_energy:        14.3611928
  entropy:           122.6456916
  heat_capacity:     112.8471109
  energy:             24.1728481

- temperature:        90.0000000
  free_energy:        13.0655419
  entropy:           136.3545913
  heat_capacity:     119.9355486
  energy:             25.3374551

- temperature:       100.0000000
  free_energy:        11.6365652
  entropy:           149.3236699
  heat_capacity:     126.2350934
  energy:             26.5689322

- temperature:       110.0000000
  free_energy:        10.0813012
  entropy:           161.6225334
  heat_capacity:     131.8213259
  energy:             27.8597799

- temperature:       120.0000000
  free_energy:         8.4061557
  entropy:           173.3087749
  heat_capacity:     136.7625064
  energy:             29.2032087

- temperature:       130.0000000
  free_energy:         6.6170034
  entropy:           184.4315248
  heat_capacity:     141.1250938
  energy:             30.5931016

- temperature:       140.0000000
  free_energy:         4.7192595
  entropy:           195.0338404
  heat_capacity:     144.9735314
  energy:             32.0239972

- temperature:       150.0000000
  free_energy:         2.7179327
  entropy:           205.1541946
  heat_capacity:     148.3687031
  energy:             33.4910619

- temperature:       160.0000000
  free_energy:         0.6176658
  entropy:           214.8273867
  heat_capacity:     151.3666270
  energy:             34.9900477

- temperature:       170.0000000
  free_energy:        -1.5772305
  entropy:           224.0851148
  heat_capacity:     154.0177506
  energy:             36.5172391

- temperature:       180.0000000
  free_energy:        -3.8627485
  entropy:           232.9563601
  heat_capacity:     156.3667839
  energy:             38.0693963

- temperature:       190.0000000
  free_energy:        -6.2351581
  entropy:           241.4676687
  heat_capacity:     158.4529035
  energy:             39.6436989

- temperature:       200.0000000
  free_energy:        -8.6909834
  entropy:           249.6433775
  heat_capacity:     160.3101707
  energy:             41.2376921

- temperature:       210.0000000
  free_energy:       -11.2269816
  entropy:           257.5058085
  heat_capacity:     161.9680509
  energy:             42.8492382

- temperature:       220.0000000
  free_energy:       -13.8401238
  entropy:           265.0754425
  heat_capacity:     163.4519568
  energy:             44.4764736

- temperature:       230.0000000
  free_energy:       -16.5275773
  entropy:           272.3710782
  heat_capacity:     164.7837736
  energy:             46.1177707

- temperature:       240.0000000
  free_energy:       -19.2866897
  entropy:           279.4099787
  heat_capacity:     165.9823425
  energy:             47.7717052

- temperature:       250.0000000
  free_energy:       -22.1149741
  entropy:           286.2080073
  heat_capacity:     167.0638917
  energy:             49.4370277

- temperature:       260.0000000
  free_energy:       -25.0100957
  entropy:           292.7797520
  heat_capacity:     168.0424152
  energy:             51.1126398

- temperature:       270.0000000
  free_energy:       -27.9698597
  entropy:           299.1386400
  heat_capacity:     168.9299988
  energy:             52.7975731

- temperature:       280.0000000
  free_energy:       -30.9922003
  entropy:           305.2970428
  heat_capacity:     169.7371006
  energy:             54.4909717

- temperature:       290.0000000
  free_energy:       -34.0751704
  entropy:           311.2663711
  heat_capacity:     170.4727893
  energy:             56.1920772

- temperature:       300.0000000
  free_energy:       -37.2169327
  entropy:           317.0571617
  heat_capacity:     171.1449473
  energy:             57.9002158

- temperature:       310.0000000
  free_energy:       -40.4157511
  entropy:           322.6791563
  heat_capacity:     171.7604419
  energy:             59.6147873

- temperature:       320.0000000
  free_energy:       -43.6699833
  entropy:           328.1413723
  heat_capacity:     172.3252710
  energy:             61.3352558

- temperature:       330.0000000
  free_energy:       -46.9780739
  entropy:           333.4521677
  heat_capacity:     172.8446864
  energy:             63.0611414

- temperature:       340.0000000
  free_energy:       -50.3385479
  entropy:           338.6192984
  heat_capacity:     173.3232978
  energy:             64.7920136

- temperature:       350.0000000
  free_energy:       -53.7500051
  entropy:           343.6499715
  heat_capacity:     173.7651616
  energy:             66.5274850

- temperature:       360.0000000
  free_energy:       -57.2111148
  entropy:           348.5508921
  heat_capacity:     174.1738562
  energy:             68.2672063

- temperature:       370.0000000
  free_energy:       -60.7206113
  entropy:           353.3283064
  heat_capacity:     174.5525457
  energy:             70.0108621

- temperature:       380.0000000
  free_energy:       -64.2772887
  entropy:           357.9880403
  heat_capacity:     174.9040348
  energy:             71.7581666

- temperature:       390.0000000
  free_energy:       -67.8799980
  entropy:           362.5355345
  heat_capacity:     175.2308152
  energy:             73.5088605

- temperature:       400.0000000
  free_energy:       -71.5276423
  entropy:           366.9758756
  heat_capacity:     175.5351057
  energy:             75.2627080

- temperature:       410.0000000
  free_energy:       -75.2191742
  entropy:           371.3138255
  heat_capacity:     175.8188867
  energy:             77.0194942

- temperature:       420.0000000
  free_energy:       -78.9535924
  entropy:           375.5538468
  heat_capacity:     176.0839292
  energy:             78.7790233

- temperature:       430.0000000
  free_energy:       -82.7299387
  entropy:           379.7001264
  heat_capacity:     176.3318204
  energy:             80.5411157

- temperature:       440.0000000
  free_energy:       -86.5472956
  entropy:           383.7565974
  heat_capacity:     176.5639860
  energy:             82.3056073

- temperature:       450.0000000
  free_energy:       -90.4047836
  entropy:           387.7269576
  heat_capacity:     176.7817088
  energy:             84.0723473

- temperature:       460.0000000
  free_energy:       -94.3015593
  entropy:           391.6146880
  heat_capacity:     176.9861455
  energy:             85.8411972

- temperature:       470.0000000
  free_energy:       -98.2368129
  entropy:           395.4230687
  heat_capacity:     177.1783409
  energy:             87.6120294

- temperature:       480.0000000
  free_energy:      -102.2097665
  entropy:           399.1551935
  heat_capacity:     177.3592406
  energy:             89.3847263

- temperature:       490.0000000
  free_energy:      -106.2196724
  entropy:           402.8139832
  heat_capacity:     177.5297017
  energy:             91.1591794

- temperature:       500.0000000
  free_energy:      -110.2658110
  entropy:           406.4021983
  heat_capacity:     177.6905025
  energy:             92.9352882

- temperature:       510.0000000
  free_energy:      -114.3474898
  entropy:           409.9224498
  heat_capacity:     177.8423513
  energy:             94.7129596

- temperature:       520.0000000
  free_energy:      -118.4640417
  entropy:           413.3772100
  heat_capacity:     177.9858930
  energy:             96.4921075

- temperature:       530.0000000
  free_energy:      -122.6148235
  entropy:           416.7688213
  heat_capacity:     178.1217164
  energy:             98.2726518

- temperature:       540.0000000
  free_energy:      -126.7992150
  entropy:           420.0995054
  heat_capacity:     178.2503595
  energy:            100.0545179

- temperature:       550.0000000
  free_energy:      -131.0166176
  entropy:           423.3713713
  heat_capacity:     178.3723146
  energy:            101.8376367

- temperature:       560.0000000
  free_energy:      -135.2664531
  entropy:           426.5864223
  heat_capacity:     178.4880331
  energy:            103.6219434

- temperature:       570.0000000
  free_energy:      -139.5481630
  entropy:           429.7465630
  heat_capacity:     178.5979293
  energy:            105.4073779

- temperature:       580.0000000
  free_energy:      -143.8612073
  entropy:           432.8536056
  heat_capacity:     178.7023839
  energy:            107.1938839

- temperature:       590.0000000
  free_energy:      -148.2050639
  entropy:           435.9092754
  heat_capacity:     178.8017472
  energy:            108.9814086

- temperature:       600.0000000
  free_energy:      -152.5792271
  entropy:           438.9152167
  heat_capacity:     178.8963421
  energy:            110.7699029

- temperature:       610.0000000
  free_energy:      -156.9832077
  entropy:           441.8729971
  heat_capacity:     178.9864666
  energy:            112.5593206

- temperature:       620.0000000
  free_energy:      -161.4165315
  entropy:           444.7841125
  heat_capacity:     179.0723957
  energy:            114.3496183

- temperature:       630.0000000
  free_energy:      -165.8787391
  entropy:           447.6499913
  heat_capacity:     179.1543841
  energy:            116.1407554

- temperature:       640.0000000
  free_energy:      -170.3693851
  entropy:           450.4719980
  heat_capacity:     179.2326672
  energy:            117.9326936

- temperature:       650.0000000
  free_energy:      -174.8880372
  entropy:           453.2514374
  heat_capacity:     179.3074636
  energy:            119.7253971

- temperature:       660.0000000
  free_energy:      -179.4342761
  entropy:           455.9895577
  heat_capacity:     179.3789757
  energy:            121.5188319

- temperature:       670.0000000
  free_energy:      -184.0076946
  entropy:           458.6875536
  heat_capacity:     179.4473920
  energy:            123.3129663

- temperature:       680.0000000
  free_energy:      -188.6078973
  entropy:           461.3465696
  heat_capacity:     179.5128873
  energy:            125.1077700

- temperature:       690.0000000
  free_energy:      -193.2344997
  entropy:           463.9677023
  heat_capacity:     179.5756247
  energy:            126.9032148

- temperature:       700.0000000
  free_energy:      -197.8871285
  entropy:           466.5520034
  heat_capacity:     179.6357559
  energy:            128.6992738

- temperature:       710.0000000
  free_energy:      -202.5654204
  entropy:           469.1004819
  heat_capacity:     179.6934224
  energy:            130.4959217

- temperature:       720.0000000
  free_energy:      -207.2690220
  entropy:           471.6141063
  heat_capacity:     179.7487564
  energy:            132.2931345

- temperature:       730.0000000
  free_energy:      -211.9975895
  entropy:           474.0938068
  heat_capacity:     179.8018813
  energy:            134.0908895

- temperature:       740.0000000
  free_energy:      -216.7507880
  entropy:           476.5404773
  heat_capacity:     179.8529124
  energy:            135.8891652

- temperature:       750.0000000
  free_energy:      -221.5282918
  entropy:           478.9549772
  heat_capacity:     179.9019580
  energy:            137.6879411

- temperature:       760.0000000
  free_energy:      -226.3297831
  entropy:           481.3381331
  heat_capacity:     179.9491190
  energy:            139.4871980

- temperature:       770.0000000
  free_energy:      -231.1549526
  entropy:           483.6907405
  heat_capacity:     179.9944904
  energy:            141.2869175

- temperature:       780.0000000
  free_energy:      -236.0034986
  entropy:           486.0135652
  heat_capacity:     180.0381611
  energy:            143.0870822

- temperature:       790.0000000
  free_energy:      -240.8751271
  entropy:           488.3073449
  heat_capacity:     180.0802148
  energy:            144.8876754

- temperature:       800.0000000
  free_energy:      -245.7695511
  entropy:           490.5727906
  heat_capacity:     180.1207298
  energy:            146.6886814

- temperature:       810.0000000
  free_energy:      -250.6864907
  entropy:           492.8105875
  heat_capacity:     180.1597800
  energy:            148.4900851

- temperature:       820.0000000
  free_energy:      -255.6256729
  entropy:           495.0213966
  heat_capacity:     180.1974349
  energy:            150.2918723

- temperature:       830.0000000
  free_energy:      -260.5868308
  entropy:           497.2058557
  heat_capacity:     180.2337599
  energy:            152.0940294

- temperature:       840.0000000
  free_energy:      -265.5697042
  entropy:           499.3645804
  heat_capacity:     180.2688167
  energy:            153.8965433

- temperature:       850.0000000
  free_energy:      -270.5740387
  entropy:           501.4981651
  heat_capacity:     180.3026632
  energy:            155.6994017

- temperature:       860.0000000
  free_energy:      -275.5995856
  entropy:           503.6071841
  heat_capacity:     180.3353545
  energy:            157.5025927

- temperature:       870.0000000
  free_energy:      -280.6461023
  entropy:           505.6921924
  heat_capacity:     180.3669422
  energy:            159.3061051

- temperature:       880.0000000
  free_energy:      -285.7133512
  entropy:           507.7537264
  heat_capacity:     180.3974754
  energy:            161.1099280

- temperature:       890.0000000
  free_energy:      -290.8011003
  entropy:           509.7923051
  heat_capacity:     180.4270002
  energy:            162.9140512

- temperature:       900.0000000
  free_energy:      -295.9091225
  entropy:           511.8084303
  heat_capacity:     180.4555605
  energy:            164.7184648

- temperature:       910.0000000
  free_energy:      -301.0371957
  entropy:           513.8025880
  heat_capacity:     180.4831975
  energy:            166.5231594

- temperature:       920.0000000
  free_energy:      -306.1851026
  entropy:           515.7752483
  heat_capacity:     180.5099507
  energy:            168.3281258

- temperature:       930.0000000
  free_energy:      -311.3526305
  entropy:           517.7268667
  heat_capacity:     180.5358570
  energy:            170.1333555

- temperature:       940.0000000
  free_energy:      -316.5395713
  entropy:           519.6578846
  heat_capacity:     180.5609519
  energy:            171.9388402

- temperature:       950.0000000
  free_energy:      -321.7457210
  entropy:           521.5687294
  heat_capacity:     180.5852686
  energy:            173.7445720

- temperature:       960.0000000
  free_energy:      -326.9708800
  entropy:           523.4598158
  heat_capacity:     180.6088390
  energy:            175.5505431

- temperature:       970.0000000
  free_energy:      -332.2148528
  entropy:           525.3315455
  heat_capacity:     180.6316932
  energy:            177.3567464

- temperature:       980.0000000
  free_energy:      -337.4774477
  entropy:           527.1843086
  heat_capacity:     180.6538598
  energy:            179.1631747

- temperature:       990.0000000
  free_energy:      -342.7584770
  entropy:           529.0184832
  heat_capacity:     180.6753661
  energy:            180.9698214

- temperature:      1000.0000000
  free_energy:      -348.0577566
  entropy:           530.8344365
  heat_capacity:     180.6962379
  energy:            182.7766799
