phonopy:
  version: "2.37.1"
  frequency_unit_conversion_factor: 15.633302
  symmetry_tolerance: 1.00000e-05

space_group:
  type: "P1"
  number: 1
  Hall_symbol: "P 1"

primitive_matrix:
- [ -1.000000000000000,  0.000000000000000,  0.000000000000000 ]
- [ -1.000000000000000, -1.000000000000000, -0.000000000000000 ]
- [  0.000000000000000,  0.000000000000000,  1.000000000000000 ]

supercell_matrix:
- [   3,   0,   0 ]
- [   0,   3,   0 ]
- [   0,   0,   2 ]

primitive_cell:
  lattice:
  - [    -2.251505332471591,    -3.902837686849787,     0.000000000000000 ] # a
  - [     2.258178896328550,    -3.902837686849787,     0.000000000000000 ] # b
  - [    -0.000713346617219,    -0.001966839742220,     7.223357897144970 ] # c
  points:
  - symbol: Li # 1
    coordinates: [  0.153392365887703,  0.977637453766106,  0.265719455451440 ]
    mass: 6.940000
  - symbol: Ga # 2
    coordinates: [  0.486353910307745,  0.311507601855483,  0.431052259794533 ]
    mass: 69.723000
  - symbol: Ga # 3
    coordinates: [  0.819634067371500,  0.645143119245604,  0.936480949219351 ]
    mass: 69.723000
  - symbol: Sn # 4
    coordinates: [  0.486387213156398,  0.311606811962126,  0.046489559822876 ]
    mass: 118.710000
  - symbol: Sn # 5
    coordinates: [  0.819470385181126,  0.645138916685973,  0.551552604559784 ]
    mass: 118.710000
  reciprocal_lattice: # without 2pi
  - [    -0.221745015673983,    -0.128301496228814,    -0.000056833614564 ] # a*
  - [     0.221745015673983,    -0.127922328648505,    -0.000012933273474 ] # b*
  - [     0.000000000000000,    -0.000000000000000,     0.138439769182038 ] # c*

unit_cell:
  lattice:
  - [     4.509684228800141,     0.000000000000000,     0.000000000000000 ] # a
  - [    -2.258178896328550,     3.902837686849787,     0.000000000000000 ] # b
  - [    -0.000713346617219,    -0.001966839742220,     7.223357897144972 ] # c
  points:
  - symbol: Li # 1
    coordinates: [  0.846607634112297,  0.868970180346191,  0.265719455451440 ]
    mass: 6.940000
    reduced_to: 1
  - symbol: Ga # 2
    coordinates: [  0.513646089692255,  0.202138487836772,  0.431052259794532 ]
    mass: 69.723000
    reduced_to: 2
  - symbol: Ga # 3
    coordinates: [  0.180365932628500,  0.535222813382896,  0.936480949219351 ]
    mass: 69.723000
    reduced_to: 3
  - symbol: Sn # 4
    coordinates: [  0.513612786843602,  0.202005974881476,  0.046489559822876 ]
    mass: 118.710000
    reduced_to: 4
  - symbol: Sn # 5
    coordinates: [  0.180529614818874,  0.535390698132900,  0.551552604559784 ]
    mass: 118.710000
    reduced_to: 5

supercell:
  lattice:
  - [    13.529052686400423,     0.000000000000000,     0.000000000000000 ] # a
  - [    -6.774536688985650,    11.708513060549361,     0.000000000000000 ] # b
  - [    -0.001426693234437,    -0.003933679484440,    14.446715794289943 ] # c
  points:
  - symbol: Li # 1
    coordinates: [  0.282202544704099,  0.289656726782064,  0.132859727725720 ]
    mass: 6.940000
    reduced_to: 1
  - symbol: Li # 2
    coordinates: [  0.615535878037432,  0.289656726782064,  0.132859727725720 ]
    mass: 6.940000
    reduced_to: 1
  - symbol: Li # 3
    coordinates: [  0.948869211370766,  0.289656726782064,  0.132859727725720 ]
    mass: 6.940000
    reduced_to: 1
  - symbol: Li # 4
    coordinates: [  0.282202544704099,  0.622990060115397,  0.132859727725720 ]
    mass: 6.940000
    reduced_to: 1
  - symbol: Li # 5
    coordinates: [  0.615535878037432,  0.622990060115397,  0.132859727725720 ]
    mass: 6.940000
    reduced_to: 1
  - symbol: Li # 6
    coordinates: [  0.948869211370766,  0.622990060115397,  0.132859727725720 ]
    mass: 6.940000
    reduced_to: 1
  - symbol: Li # 7
    coordinates: [  0.282202544704099,  0.956323393448730,  0.132859727725720 ]
    mass: 6.940000
    reduced_to: 1
  - symbol: Li # 8
    coordinates: [  0.615535878037432,  0.956323393448730,  0.132859727725720 ]
    mass: 6.940000
    reduced_to: 1
  - symbol: Li # 9
    coordinates: [  0.948869211370766,  0.956323393448730,  0.132859727725720 ]
    mass: 6.940000
    reduced_to: 1
  - symbol: Li # 10
    coordinates: [  0.282202544704099,  0.289656726782064,  0.632859727725720 ]
    mass: 6.940000
    reduced_to: 1
  - symbol: Li # 11
    coordinates: [  0.615535878037432,  0.289656726782064,  0.632859727725720 ]
    mass: 6.940000
    reduced_to: 1
  - symbol: Li # 12
    coordinates: [  0.948869211370766,  0.289656726782064,  0.632859727725720 ]
    mass: 6.940000
    reduced_to: 1
  - symbol: Li # 13
    coordinates: [  0.282202544704099,  0.622990060115397,  0.632859727725720 ]
    mass: 6.940000
    reduced_to: 1
  - symbol: Li # 14
    coordinates: [  0.615535878037432,  0.622990060115397,  0.632859727725720 ]
    mass: 6.940000
    reduced_to: 1
  - symbol: Li # 15
    coordinates: [  0.948869211370766,  0.622990060115397,  0.632859727725720 ]
    mass: 6.940000
    reduced_to: 1
  - symbol: Li # 16
    coordinates: [  0.282202544704099,  0.956323393448730,  0.632859727725720 ]
    mass: 6.940000
    reduced_to: 1
  - symbol: Li # 17
    coordinates: [  0.615535878037432,  0.956323393448730,  0.632859727725720 ]
    mass: 6.940000
    reduced_to: 1
  - symbol: Li # 18
    coordinates: [  0.948869211370766,  0.956323393448730,  0.632859727725720 ]
    mass: 6.940000
    reduced_to: 1
  - symbol: Ga # 19
    coordinates: [  0.171215363230752,  0.067379495945591,  0.215526129897266 ]
    mass: 69.723000
    reduced_to: 19
  - symbol: Ga # 20
    coordinates: [  0.504548696564085,  0.067379495945591,  0.215526129897266 ]
    mass: 69.723000
    reduced_to: 19
  - symbol: Ga # 21
    coordinates: [  0.837882029897418,  0.067379495945591,  0.215526129897266 ]
    mass: 69.723000
    reduced_to: 19
  - symbol: Ga # 22
    coordinates: [  0.171215363230752,  0.400712829278924,  0.215526129897266 ]
    mass: 69.723000
    reduced_to: 19
  - symbol: Ga # 23
    coordinates: [  0.504548696564085,  0.400712829278924,  0.215526129897266 ]
    mass: 69.723000
    reduced_to: 19
  - symbol: Ga # 24
    coordinates: [  0.837882029897418,  0.400712829278924,  0.215526129897266 ]
    mass: 69.723000
    reduced_to: 19
  - symbol: Ga # 25
    coordinates: [  0.171215363230752,  0.734046162612257,  0.215526129897266 ]
    mass: 69.723000
    reduced_to: 19
  - symbol: Ga # 26
    coordinates: [  0.504548696564085,  0.734046162612257,  0.215526129897266 ]
    mass: 69.723000
    reduced_to: 19
  - symbol: Ga # 27
    coordinates: [  0.837882029897418,  0.734046162612257,  0.215526129897266 ]
    mass: 69.723000
    reduced_to: 19
  - symbol: Ga # 28
    coordinates: [  0.171215363230752,  0.067379495945591,  0.715526129897266 ]
    mass: 69.723000
    reduced_to: 19
  - symbol: Ga # 29
    coordinates: [  0.504548696564085,  0.067379495945591,  0.715526129897266 ]
    mass: 69.723000
    reduced_to: 19
  - symbol: Ga # 30
    coordinates: [  0.837882029897418,  0.067379495945591,  0.715526129897266 ]
    mass: 69.723000
    reduced_to: 19
  - symbol: Ga # 31
    coordinates: [  0.171215363230752,  0.400712829278924,  0.715526129897266 ]
    mass: 69.723000
    reduced_to: 19
  - symbol: Ga # 32
    coordinates: [  0.504548696564085,  0.400712829278924,  0.715526129897266 ]
    mass: 69.723000
    reduced_to: 19
  - symbol: Ga # 33
    coordinates: [  0.837882029897418,  0.400712829278924,  0.715526129897266 ]
    mass: 69.723000
    reduced_to: 19
  - symbol: Ga # 34
    coordinates: [  0.171215363230752,  0.734046162612257,  0.715526129897266 ]
    mass: 69.723000
    reduced_to: 19
  - symbol: Ga # 35
    coordinates: [  0.504548696564085,  0.734046162612257,  0.715526129897266 ]
    mass: 69.723000
    reduced_to: 19
  - symbol: Ga # 36
    coordinates: [  0.837882029897418,  0.734046162612257,  0.715526129897266 ]
    mass: 69.723000
    reduced_to: 19
  - symbol: Ga # 37
    coordinates: [  0.060121977542833,  0.178407604460965,  0.468240474609676 ]
    mass: 69.723000
    reduced_to: 37
  - symbol: Ga # 38
    coordinates: [  0.393455310876167,  0.178407604460965,  0.468240474609676 ]
    mass: 69.723000
    reduced_to: 37
  - symbol: Ga # 39
    coordinates: [  0.726788644209500,  0.178407604460965,  0.468240474609676 ]
    mass: 69.723000
    reduced_to: 37
  - symbol: Ga # 40
    coordinates: [  0.060121977542833,  0.511740937794299,  0.468240474609676 ]
    mass: 69.723000
    reduced_to: 37
  - symbol: Ga # 41
    coordinates: [  0.393455310876167,  0.511740937794299,  0.468240474609676 ]
    mass: 69.723000
    reduced_to: 37
  - symbol: Ga # 42
    coordinates: [  0.726788644209500,  0.511740937794299,  0.468240474609676 ]
    mass: 69.723000
    reduced_to: 37
  - symbol: Ga # 43
    coordinates: [  0.060121977542833,  0.845074271127632,  0.468240474609676 ]
    mass: 69.723000
    reduced_to: 37
  - symbol: Ga # 44
    coordinates: [  0.393455310876167,  0.845074271127632,  0.468240474609676 ]
    mass: 69.723000
    reduced_to: 37
  - symbol: Ga # 45
    coordinates: [  0.726788644209500,  0.845074271127632,  0.468240474609676 ]
    mass: 69.723000
    reduced_to: 37
  - symbol: Ga # 46
    coordinates: [  0.060121977542833,  0.178407604460965,  0.968240474609676 ]
    mass: 69.723000
    reduced_to: 37
  - symbol: Ga # 47
    coordinates: [  0.393455310876167,  0.178407604460965,  0.968240474609676 ]
    mass: 69.723000
    reduced_to: 37
  - symbol: Ga # 48
    coordinates: [  0.726788644209500,  0.178407604460965,  0.968240474609676 ]
    mass: 69.723000
    reduced_to: 37
  - symbol: Ga # 49
    coordinates: [  0.060121977542833,  0.511740937794299,  0.968240474609676 ]
    mass: 69.723000
    reduced_to: 37
  - symbol: Ga # 50
    coordinates: [  0.393455310876167,  0.511740937794299,  0.968240474609676 ]
    mass: 69.723000
    reduced_to: 37
  - symbol: Ga # 51
    coordinates: [  0.726788644209500,  0.511740937794299,  0.968240474609676 ]
    mass: 69.723000
    reduced_to: 37
  - symbol: Ga # 52
    coordinates: [  0.060121977542833,  0.845074271127632,  0.968240474609676 ]
    mass: 69.723000
    reduced_to: 37
  - symbol: Ga # 53
    coordinates: [  0.393455310876167,  0.845074271127632,  0.968240474609676 ]
    mass: 69.723000
    reduced_to: 37
  - symbol: Ga # 54
    coordinates: [  0.726788644209500,  0.845074271127632,  0.968240474609676 ]
    mass: 69.723000
    reduced_to: 37
  - symbol: Sn # 55
    coordinates: [  0.171204262281201,  0.067335324960492,  0.023244779911438 ]
    mass: 118.710000
    reduced_to: 55
  - symbol: Sn # 56
    coordinates: [  0.504537595614534,  0.067335324960492,  0.023244779911438 ]
    mass: 118.710000
    reduced_to: 55
  - symbol: Sn # 57
    coordinates: [  0.837870928947867,  0.067335324960492,  0.023244779911438 ]
    mass: 118.710000
    reduced_to: 55
  - symbol: Sn # 58
    coordinates: [  0.171204262281201,  0.400668658293825,  0.023244779911438 ]
    mass: 118.710000
    reduced_to: 55
  - symbol: Sn # 59
    coordinates: [  0.504537595614534,  0.400668658293825,  0.023244779911438 ]
    mass: 118.710000
    reduced_to: 55
  - symbol: Sn # 60
    coordinates: [  0.837870928947867,  0.400668658293825,  0.023244779911438 ]
    mass: 118.710000
    reduced_to: 55
  - symbol: Sn # 61
    coordinates: [  0.171204262281201,  0.734001991627159,  0.023244779911438 ]
    mass: 118.710000
    reduced_to: 55
  - symbol: Sn # 62
    coordinates: [  0.504537595614534,  0.734001991627159,  0.023244779911438 ]
    mass: 118.710000
    reduced_to: 55
  - symbol: Sn # 63
    coordinates: [  0.837870928947867,  0.734001991627159,  0.023244779911438 ]
    mass: 118.710000
    reduced_to: 55
  - symbol: Sn # 64
    coordinates: [  0.171204262281201,  0.067335324960492,  0.523244779911438 ]
    mass: 118.710000
    reduced_to: 55
  - symbol: Sn # 65
    coordinates: [  0.504537595614534,  0.067335324960492,  0.523244779911438 ]
    mass: 118.710000
    reduced_to: 55
  - symbol: Sn # 66
    coordinates: [  0.837870928947867,  0.067335324960492,  0.523244779911438 ]
    mass: 118.710000
    reduced_to: 55
  - symbol: Sn # 67
    coordinates: [  0.171204262281201,  0.400668658293825,  0.523244779911438 ]
    mass: 118.710000
    reduced_to: 55
  - symbol: Sn # 68
    coordinates: [  0.504537595614534,  0.400668658293825,  0.523244779911438 ]
    mass: 118.710000
    reduced_to: 55
  - symbol: Sn # 69
    coordinates: [  0.837870928947867,  0.400668658293825,  0.523244779911438 ]
    mass: 118.710000
    reduced_to: 55
  - symbol: Sn # 70
    coordinates: [  0.171204262281201,  0.734001991627159,  0.523244779911438 ]
    mass: 118.710000
    reduced_to: 55
  - symbol: Sn # 71
    coordinates: [  0.504537595614534,  0.734001991627159,  0.523244779911438 ]
    mass: 118.710000
    reduced_to: 55
  - symbol: Sn # 72
    coordinates: [  0.837870928947867,  0.734001991627159,  0.523244779911438 ]
    mass: 118.710000
    reduced_to: 55
  - symbol: Sn # 73
    coordinates: [  0.060176538272958,  0.178463566044300,  0.275776302279892 ]
    mass: 118.710000
    reduced_to: 73
  - symbol: Sn # 74
    coordinates: [  0.393509871606291,  0.178463566044300,  0.275776302279892 ]
    mass: 118.710000
    reduced_to: 73
  - symbol: Sn # 75
    coordinates: [  0.726843204939625,  0.178463566044300,  0.275776302279892 ]
    mass: 118.710000
    reduced_to: 73
  - symbol: Sn # 76
    coordinates: [  0.060176538272958,  0.511796899377633,  0.275776302279892 ]
    mass: 118.710000
    reduced_to: 73
  - symbol: Sn # 77
    coordinates: [  0.393509871606291,  0.511796899377633,  0.275776302279892 ]
    mass: 118.710000
    reduced_to: 73
  - symbol: Sn # 78
    coordinates: [  0.726843204939625,  0.511796899377633,  0.275776302279892 ]
    mass: 118.710000
    reduced_to: 73
  - symbol: Sn # 79
    coordinates: [  0.060176538272958,  0.845130232710967,  0.275776302279892 ]
    mass: 118.710000
    reduced_to: 73
  - symbol: Sn # 80
    coordinates: [  0.393509871606291,  0.845130232710967,  0.275776302279892 ]
    mass: 118.710000
    reduced_to: 73
  - symbol: Sn # 81
    coordinates: [  0.726843204939625,  0.845130232710967,  0.275776302279892 ]
    mass: 118.710000
    reduced_to: 73
  - symbol: Sn # 82
    coordinates: [  0.060176538272958,  0.178463566044300,  0.775776302279892 ]
    mass: 118.710000
    reduced_to: 73
  - symbol: Sn # 83
    coordinates: [  0.393509871606291,  0.178463566044300,  0.775776302279892 ]
    mass: 118.710000
    reduced_to: 73
  - symbol: Sn # 84
    coordinates: [  0.726843204939625,  0.178463566044300,  0.775776302279892 ]
    mass: 118.710000
    reduced_to: 73
  - symbol: Sn # 85
    coordinates: [  0.060176538272958,  0.511796899377633,  0.775776302279892 ]
    mass: 118.710000
    reduced_to: 73
  - symbol: Sn # 86
    coordinates: [  0.393509871606291,  0.511796899377633,  0.775776302279892 ]
    mass: 118.710000
    reduced_to: 73
  - symbol: Sn # 87
    coordinates: [  0.726843204939625,  0.511796899377633,  0.775776302279892 ]
    mass: 118.710000
    reduced_to: 73
  - symbol: Sn # 88
    coordinates: [  0.060176538272958,  0.845130232710967,  0.775776302279892 ]
    mass: 118.710000
    reduced_to: 73
  - symbol: Sn # 89
    coordinates: [  0.393509871606291,  0.845130232710967,  0.775776302279892 ]
    mass: 118.710000
    reduced_to: 73
  - symbol: Sn # 90
    coordinates: [  0.726843204939625,  0.845130232710967,  0.775776302279892 ]
    mass: 118.710000
    reduced_to: 73

displacements:
- atom:    1
  displacement:
    [   0.0100000000000000,  0.0000000000000000,  0.0000000000000000 ]
  forces:
  - [  -0.0113046616315842, -0.0000499086454511,  0.1076525524258614 ]
  - [   0.0014185627223924, -0.0001818612217903,  0.1074879691004753 ]
  - [   0.0013850918039680,  0.0002562468871474,  0.1078221797943115 ]
  - [   0.0010214294306934, -0.0003995364531875,  0.1078225448727608 ]
  - [   0.0010271874489263,  0.0004845196381211,  0.1074892058968544 ]
  - [   0.0008867081487551,  0.0000371504575014,  0.1076528504490852 ]
  - [   0.0010231453925371,  0.0000358158722520,  0.1076531335711479 ]
  - [   0.0008872412145138,  0.0000379206612706,  0.1076536327600479 ]
  - [   0.0010242499411106,  0.0000406149774790,  0.1076544448733330 ]
  - [   0.0009100481402129,  0.0000373604707420,  0.1076527982950211 ]
  - [   0.0008660783641972,  0.0000313771888614,  0.1076539531350136 ]
  - [   0.0008655496058054,  0.0000427542254329,  0.1076530143618584 ]
  - [   0.0008777065668255,  0.0000394675880671,  0.1076567098498344 ]
  - [   0.0008778371266089,  0.0000363308936357,  0.1076498106122017 ]
  - [   0.0008843463729136,  0.0000380920246243,  0.1076537519693375 ]
  - [   0.0008787494152784,  0.0000497847795486,  0.1076574102044106 ]
  - [   0.0008852425962687,  0.0000365003943443,  0.1076535061001778 ]
  - [   0.0008774995803833,  0.0000245757400990,  0.1076489686965942 ]
  - [  -0.0003670962760225,  0.0007178019732237,  0.0364156030118465 ]
  - [  -0.0001668110489845,  0.0010023470968008,  0.0365683101117611 ]
  - [  -0.0001679478446022,  0.0004304422764108,  0.0362667590379715 ]
  - [   0.0043578259646893, -0.0020038885995746,  0.0335222966969013 ]
  - [   0.0044271964579821,  0.0034836037084460,  0.0393590442836285 ]
  - [   0.0002891495823860,  0.0007148496806622,  0.0364173240959644 ]
  - [   0.0003170035779476,  0.0007305191829801,  0.0364209711551666 ]
  - [   0.0003295503556728,  0.0007173288613558,  0.0364163480699062 ]
  - [   0.0003153346478939,  0.0006981883198023,  0.0364157110452652 ]
  - [   0.0003174968296662,  0.0007167458534241,  0.0364181511104107 ]
  - [   0.0003060608287342,  0.0007171779870987,  0.0364195592701435 ]
  - [   0.0003081577597186,  0.0007161758840084,  0.0364157147705555 ]
  - [   0.0003021080046892,  0.0007261782884598,  0.0364025980234146 ]
  - [   0.0003030784428120,  0.0007082894444466,  0.0364357493817806 ]
  - [   0.0003243032842875,  0.0007172673940659,  0.0364174507558346 ]
  - [   0.0003133937716484,  0.0007131807506084,  0.0363967642188072 ]
  - [   0.0003081560134888,  0.0007208772003651,  0.0364186577498913 ]
  - [   0.0003141686320305,  0.0007277019321918,  0.0364391431212425 ]
  - [   0.0019455201691017, -0.0024053445085883, -0.2211385965347290 ]
  - [   0.0019478972535580, -0.0021915128454566, -0.2219923585653305 ]
  - [   0.0020888717845082, -0.0022989036515355, -0.2215658426284790 ]
  - [   0.0020450272131711, -0.0022892253473401, -0.2214744389057159 ]
  - [   0.0021328271832317, -0.0022999956272542, -0.2215665876865387 ]
  - [   0.0020466356072575, -0.0023090993054211, -0.2216615974903107 ]
  - [   0.0020627607591450, -0.0022995311301202, -0.2215669751167297 ]
  - [   0.0020595842506737, -0.0023155473172665, -0.2215649038553238 ]
  - [   0.0020593251101673, -0.0022839833982289, -0.2215684354305267 ]
  - [   0.0019836621358991, -0.0016174905467778, -0.2216180562973022 ]
  - [   0.0019753300584853, -0.0029856120236218, -0.2215194702148438 ]
  - [   0.0020381375215948, -0.0022998854983598, -0.2215716838836670 ]
  - [   0.0014261697651818, -0.0019459396135062, -0.2216981053352356 ]
  - [   0.0007915603346191, -0.0023013255558908, -0.2215687185525894 ]
  - [   0.0014279541792348, -0.0026484690606594, -0.2214448750019073 ]
  - [   0.0020350296981633, -0.0023001392837614, -0.2215705513954163 ]
  - [   0.0020872380118817, -0.0022714587394148, -0.2215557396411896 ]
  - [   0.0020876077469438, -0.0023294161073864, -0.2215863466262817 ]
  - [  -0.0028281756676733,  0.0023246183991432,  0.0384929291903973 ]
  - [  -0.0024811443872750,  0.0024937056005001,  0.0383821874856949 ]
  - [  -0.0024828417226672,  0.0021490305662155,  0.0385988950729370 ]
  - [   0.0023371800780296, -0.0006497930735350,  0.0409176126122475 ]
  - [   0.0023808712139726,  0.0053329244256020,  0.0360200107097626 ]
  - [  -0.0023533208295703,  0.0023221299052238,  0.0384885147213936 ]
  - [  -0.0021780338138342,  0.0024179276078939,  0.0385537333786488 ]
  - [  -0.0021812207996845,  0.0023190602660179,  0.0384892299771309 ]
  - [  -0.0021791290491819,  0.0022180760279298,  0.0384222939610481 ]
  - [  -0.0021333931945264,  0.0023200688883662,  0.0384868457913399 ]
  - [  -0.0022074063308537,  0.0023339716717601,  0.0384730100631714 ]
  - [  -0.0022054435685277,  0.0023066748399287,  0.0385013297200203 ]
  - [  -0.0021758992224932,  0.0023433608002961,  0.0385222434997559 ]
  - [  -0.0021778857335448,  0.0022943583317101,  0.0384502522647381 ]
  - [  -0.0021912381052971,  0.0023199985735118,  0.0384862273931503 ]
  - [  -0.0021822573617101,  0.0023249555379152,  0.0384792089462280 ]
  - [  -0.0021805753931403,  0.0023203287273645,  0.0384867787361145 ]
  - [  -0.0021827248856425,  0.0023160269483924,  0.0384953506290913 ]
  - [   0.0002180673182011,  0.0001244824379683,  0.0379625558853149 ]
  - [   0.0002139667049050, -0.0016701016575098,  0.0400478318333626 ]
  - [  -0.0010739481076598, -0.0007755272090435,  0.0390062034130096 ]
  - [  -0.0025096805766225,  0.0000516784639331,  0.0394750386476517 ]
  - [  -0.0013398788869381, -0.0007860274636187,  0.0389989018440247 ]
  - [  -0.0025289785116911, -0.0016046472592279,  0.0385361015796661 ]
  - [  -0.0010828115046024, -0.0007733181118965,  0.0390081182122231 ]
  - [  -0.0010589361190796, -0.0007649268954992,  0.0389778576791286 ]
  - [  -0.0010591652244329, -0.0007811505347490,  0.0390371866524220 ]
  - [  -0.0011814143508673, -0.0008664615452290,  0.0388532280921936 ]
  - [  -0.0011806888505816, -0.0006843414157629,  0.0391676984727383 ]
  - [  -0.0010760920122266, -0.0007755253463984,  0.0390125364065170 ]
  - [  -0.0010827137157321, -0.0007696039974689,  0.0388832241296768 ]
  - [  -0.0010231602936983, -0.0007760953158140,  0.0390104949474335 ]
  - [  -0.0010837512090802, -0.0007833410054445,  0.0391413718461990 ]
  - [  -0.0010743737220764, -0.0007775183767080,  0.0390111207962036 ]
  - [  -0.0010684188455343, -0.0007726307958364,  0.0390086621046066 ]
  - [  -0.0010696994140744, -0.0007815193384886,  0.0390139669179916 ]
- atom:    1
  displacement:
    [  -0.0100000000000000,  0.0000000000000000,  0.0000000000000000 ]
  forces:
  - [   0.0130654135718942, -0.0000536898151040,  0.1075945943593979 ]
  - [   0.0003747636219487,  0.0002550249919295,  0.1078201904892921 ]
  - [   0.0003418229753152, -0.0001827962696552,  0.1074862927198410 ]
  - [   0.0007357827853411,  0.0004793629050255,  0.1074895709753036 ]
  - [   0.0007373918779194, -0.0004045097157359,  0.1078245490789413 ]
  - [   0.0008731319103390,  0.0000369520857930,  0.1076520681381226 ]
  - [   0.0007379828020930,  0.0000376412644982,  0.1076566427946091 ]
  - [   0.0008730711415410,  0.0000379132106900,  0.1076543182134628 ]
  - [   0.0007346346974373,  0.0000323625281453,  0.1076549887657166 ]
  - [   0.0008507572347298,  0.0000374577939510,  0.1076537147164345 ]
  - [   0.0008955585071817,  0.0000431747175753,  0.1076525971293449 ]
  - [   0.0008956526871771,  0.0000319825485349,  0.1076540127396584 ]
  - [   0.0008824581746012,  0.0000364258885384,  0.1076497361063957 ]
  - [   0.0008824935648590,  0.0000393046066165,  0.1076567471027374 ]
  - [   0.0008753217989579,  0.0000385064631701,  0.1076539456844330 ]
  - [   0.0008834749460220,  0.0000234842300415,  0.1076490730047226 ]
  - [   0.0008765365928411,  0.0000366158783436,  0.1076536476612091 ]
  - [   0.0008815489709377,  0.0000495426356792,  0.1076578870415688 ]
  - [   0.0009892991511151,  0.0007412731647491,  0.0364057198166847 ]
  - [   0.0007906294194981,  0.0004288703203201,  0.0362723805010319 ]
  - [   0.0007892018184066,  0.0010016486048698,  0.0365750007331371 ]
  - [  -0.0038118734955788,  0.0034850919619203,  0.0393697209656239 ]
  - [  -0.0037292558699846, -0.0020017102360725,  0.0335341766476631 ]
  - [   0.0003317203372717,  0.0007148785516620,  0.0364166870713234 ]
  - [   0.0003063194453716,  0.0007004030048847,  0.0364151410758495 ]
  - [   0.0002923347055912,  0.0007183030247688,  0.0364172793924809 ]
  - [   0.0003052130341530,  0.0007316218689084,  0.0364206582307816 ]
  - [   0.0003012100933120,  0.0007166340947151,  0.0364186204969883 ]
  - [   0.0003143008798361,  0.0007167272269726,  0.0364156551659107 ]
  - [   0.0003159941988997,  0.0007166489958763,  0.0364194549620152 ]
  - [   0.0003167539834976,  0.0007085651159286,  0.0364363156259060 ]
  - [   0.0003184620290995,  0.0007265917956829,  0.0364020839333534 ]
  - [   0.0002947542816401,  0.0007173195481300,  0.0364170111715794 ]
  - [   0.0003097467124462,  0.0007283650338650,  0.0364391058683395 ]
  - [   0.0003146827220917,  0.0007209666073322,  0.0364184863865376 ]
  - [   0.0003110654652119,  0.0007121227681637,  0.0363959856331348 ]
  - [   0.0021697268821299, -0.0021912269294262, -0.2220011353492737 ]
  - [   0.0021751155145466, -0.0024069196078926, -0.2211474329233170 ]
  - [   0.0020366301760077, -0.0022987676784396, -0.2215663194656372 ]
  - [   0.0020733759738505, -0.0023078252561390, -0.2216611802577972 ]
  - [   0.0019882638007402, -0.0022994910832494, -0.2215662598609924 ]
  - [   0.0020751908887178, -0.0022913897410035, -0.2214748561382294 ]
  - [   0.0020599458366632, -0.0022995152976364, -0.2215668708086014 ]
  - [   0.0020611230283976, -0.0022844602353871, -0.2215683311223984 ]
  - [   0.0020610147621483, -0.0023152267094702, -0.2215652167797089 ]
  - [   0.0021481295116246, -0.0029837032780051, -0.2215033471584320 ]
  - [   0.0021244138479233, -0.0016152559546754, -0.2215997576713562 ]
  - [   0.0020839422941208, -0.0022999702487141, -0.2215722799301147 ]
  - [   0.0026843352243304, -0.0026446133852005, -0.2214491218328476 ]
  - [   0.0033235994633287, -0.0023032180033624, -0.2215635478496552 ]
  - [   0.0026959502138197, -0.0019444866338745, -0.2217023670673370 ]
  - [   0.0020819825585932, -0.0023002051748335, -0.2215702980756760 ]
  - [   0.0020322424825281, -0.0023295579012483, -0.2215872108936310 ]
  - [   0.0020323714707047, -0.0022715860977769, -0.2215548604726791 ]
  - [  -0.0015319554368034,  0.0023541878908873,  0.0384948700666428 ]
  - [  -0.0018816083902493,  0.0021473169326782,  0.0385956205427647 ]
  - [  -0.0018809206085280,  0.0024952590465546,  0.0383780896663666 ]
  - [  -0.0067499512806535,  0.0053365025669336,  0.0360065698623657 ]
  - [  -0.0066873002797365, -0.0006459467113018,  0.0409032441675663 ]
  - [  -0.0020096329972148,  0.0023216521367431,  0.0384888947010040 ]
  - [  -0.0021816538646817,  0.0022169668227434,  0.0384228751063347 ]
  - [  -0.0021820915862918,  0.0023207152262330,  0.0384876579046249 ]
  - [  -0.0021848157048225,  0.0024188989773393,  0.0385536327958107 ]
  - [  -0.0022285548038781,  0.0023199482820928,  0.0384864807128906 ]
  - [  -0.0021602059714496,  0.0023055698256940,  0.0385024696588516 ]
  - [  -0.0021575549617410,  0.0023352578282356,  0.0384725481271744 ]
  - [  -0.0021849572658539,  0.0022931797429919,  0.0384513959288597 ]
  - [  -0.0021862676367164,  0.0023443065583706,  0.0385225340723991 ]
  - [  -0.0021733734756708,  0.0023198267444968,  0.0384868830442429 ]
  - [  -0.0021817041561007,  0.0023156013339758,  0.0384956896305084 ]
  - [  -0.0021823672577739,  0.0023205354809761,  0.0384874492883682 ]
  - [  -0.0021816296502948,  0.0023258468136191,  0.0384797900915146 ]
  - [  -0.0023841438814998, -0.0016857702285051,  0.0400774143636227 ]
  - [  -0.0023286836221814,  0.0001108348369598,  0.0379923284053802 ]
  - [  -0.0010643387213349, -0.0007769893854856,  0.0390071012079716 ]
  - [   0.0003950390964746, -0.0016078331973404,  0.0385361798107624 ]
  - [  -0.0007987916469574, -0.0007955517503433,  0.0389877520501614 ]
  - [   0.0003656120970845,  0.0000487987563247,  0.0394746586680412 ]
  - [  -0.0010557435452938, -0.0007801149040461,  0.0390103310346603 ]
  - [  -0.0010797567665577, -0.0007804036140442,  0.0390375852584839 ]
  - [  -0.0010797474533319, -0.0007634069770575,  0.0389780700206757 ]
  - [  -0.0009563639760017, -0.0006836131215096,  0.0391661860048771 ]
  - [  -0.0009541846811771, -0.0008660219609737,  0.0388524532318115 ]
  - [  -0.0010651564225554, -0.0007758587598801,  0.0390124060213566 ]
  - [  -0.0010519241914153, -0.0007827877998352,  0.0391410365700722 ]
  - [  -0.0011147549375892, -0.0007763635367155,  0.0390104725956917 ]
  - [  -0.0010534655302763, -0.0007704403251410,  0.0388831049203873 ]
  - [  -0.0010660579428077, -0.0007776841521263,  0.0390104167163372 ]
  - [  -0.0010727401822805, -0.0007818788290024,  0.0390138775110245 ]
  - [  -0.0010739723220468, -0.0007721949368715,  0.0390082746744156 ]
- atom:    1
  displacement:
    [  -0.0050081056851970,  0.0086555691578254,  0.0000000000000000 ]
  forces:
  - [   0.0070610819384456, -0.0104897003620863,  0.1075873672962189 ]
  - [   0.0008106514578685,  0.0001602331176400,  0.1076563447713852 ]
  - [   0.0004264304880053, -0.0000599217455601,  0.1074891909956932 ]
  - [   0.0008003831026144,  0.0006155828014016,  0.1074860244989395 ]
  - [   0.0008125961176120,  0.0001654196530581,  0.1076546311378479 ]
  - [   0.0008762074285187,  0.0000426098704338,  0.1076517850160599 ]
  - [   0.0004377523437142,  0.0003689154982567,  0.1078203320503235 ]
  - [   0.0008770944550633,  0.0000446438789368,  0.1076541990041733 ]
  - [   0.0011901985853910,  0.0003834944218397,  0.1078240275382996 ]
  - [   0.0008652000688016,  0.0000625229440629,  0.1076537519693375 ]
  - [   0.0008927556336857,  0.0000419421121478,  0.1076493635773659 ]
  - [   0.0008833365282044,  0.0000363513827324,  0.1076502948999405 ]
  - [   0.0008923019049689,  0.0000285869464278,  0.1076544299721718 ]
  - [   0.0008704306674190,  0.0000300183892250,  0.1076577007770538 ]
  - [   0.0008775137830526,  0.0000418443232775,  0.1076534986495972 ]
  - [   0.0008835457265377,  0.0000210069119930,  0.1076527759432793 ]
  - [   0.0008783619850874,  0.0000402405858040,  0.1076536402106285 ]
  - [   0.0008796006441116,  0.0000349581241608,  0.1076568290591240 ]
  - [   0.0006415008101612,  0.0055802119895816,  0.0335313193500042 ]
  - [   0.0007991672027856,  0.0004443526268005,  0.0362724550068378 ]
  - [   0.0003004793543369,  0.0007313237874769,  0.0364176146686077 ]