phonopy:
  version: "2.37.1"
  frequency_unit_conversion_factor: 15.633302
  symmetry_tolerance: 1.00000e-05

space_group:
  type: "P1"
  number: 1
  Hall_symbol: "P 1"

primitive_matrix:
- [  1.000000000000000,  0.000000000000000, -0.000000000000000 ]
- [  0.000000000000000,  1.000000000000000,  0.000000000000000 ]
- [  0.000000000000000,  0.000000000000000,  1.000000000000000 ]

supercell_matrix:
- [   2,   0,   0 ]
- [   0,   2,   0 ]
- [   0,   0,   2 ]

primitive_cell:
  lattice:
  - [     5.254375601677441,     0.000000000000000,     0.000000000000000 ] # a
  - [    -1.603798369228902,     6.793997146628548,     0.000000000000000 ] # b
  - [    -0.837201399869872,    -2.185854378356011,     6.579111831660168 ] # c
  points:
  - symbol: Li # 1
    coordinates: [  0.775768742018082,  0.042040735554869,  0.466667109199188 ]
    mass: 6.940000
  - symbol: Li # 2
    coordinates: [  0.870243938684600,  0.428565146803229,  0.294831884619245 ]
    mass: 6.940000
  - symbol: Li # 3
    coordinates: [  0.575066780235902,  0.303485017908940,  0.823020124450948 ]
    mass: 6.940000
  - symbol: Li # 4
    coordinates: [  0.974379040892639,  0.785984837247376,  0.115556463494250 ]
    mass: 6.940000
  - symbol: Li # 5
    coordinates: [  0.496839102065585,  0.966752066104966,  0.001897802614047 ]
    mass: 6.940000
  - symbol: Li # 6
    coordinates: [  0.142640381630347,  0.489632662854377,  0.734702822764089 ]
    mass: 6.940000
  - symbol: Sn # 7
    coordinates: [  0.693090649503449,  0.669413612216256,  0.668142836288996 ]
    mass: 118.710000
  - symbol: Sn # 8
    coordinates: [  0.036861572933238,  0.152285120496923,  0.929461380334911 ]
    mass: 118.710000
  - symbol: Sn # 9
    coordinates: [  0.427981243597106,  0.603863051829772,  0.172661907927020 ]
    mass: 118.710000
  - symbol: Sn # 10
    coordinates: [  0.319983598192031,  0.227295288396308,  0.374661405755150 ]
    mass: 118.710000
  - symbol: Sn # 11
    coordinates: [  0.236659565382220,  0.857025407151932,  0.560292031107466 ]
    mass: 118.710000
  reciprocal_lattice: # without 2pi
  - [     0.190317570689228,     0.044926573108506,     0.039144658082158 ] # a*
  - [     0.000000000000000,     0.147188757725081,     0.048902222480837 ] # b*
  - [     0.000000000000000,     0.000000000000000,     0.151996200336309 ] # c*

unit_cell:
  lattice:
  - [     5.254375601677441,     0.000000000000000,     0.000000000000000 ] # a
  - [    -1.603798369228902,     6.793997146628550,     0.000000000000000 ] # b
  - [    -0.837201399869872,    -2.185854378356011,     6.579111831660168 ] # c
  points:
  - symbol: Li # 1
    coordinates: [  0.775768742018082,  0.042040735554869,  0.466667109199188 ]
    mass: 6.940000
    reduced_to: 1
  - symbol: Li # 2
    coordinates: [  0.870243938684600,  0.428565146803229,  0.294831884619245 ]
    mass: 6.940000
    reduced_to: 2
  - symbol: Li # 3
    coordinates: [  0.575066780235902,  0.303485017908940,  0.823020124450948 ]
    mass: 6.940000
    reduced_to: 3
  - symbol: Li # 4
    coordinates: [  0.974379040892639,  0.785984837247375,  0.115556463494250 ]
    mass: 6.940000
    reduced_to: 4
  - symbol: Li # 5
    coordinates: [  0.496839102065585,  0.966752066104966,  0.001897802614047 ]
    mass: 6.940000
    reduced_to: 5
  - symbol: Li # 6
    coordinates: [  0.142640381630347,  0.489632662854376,  0.734702822764089 ]
    mass: 6.940000
    reduced_to: 6
  - symbol: Sn # 7
    coordinates: [  0.693090649503449,  0.669413612216256,  0.668142836288996 ]
    mass: 118.710000
    reduced_to: 7
  - symbol: Sn # 8
    coordinates: [  0.036861572933238,  0.152285120496923,  0.929461380334911 ]
    mass: 118.710000
    reduced_to: 8
  - symbol: Sn # 9
    coordinates: [  0.427981243597106,  0.603863051829771,  0.172661907927020 ]
    mass: 118.710000
    reduced_to: 9
  - symbol: Sn # 10
    coordinates: [  0.319983598192031,  0.227295288396308,  0.374661405755150 ]
    mass: 118.710000
    reduced_to: 10
  - symbol: Sn # 11
    coordinates: [  0.236659565382220,  0.857025407151931,  0.560292031107466 ]
    mass: 118.710000
    reduced_to: 11

supercell:
  lattice:
  - [    10.508751203354882,     0.000000000000000,     0.000000000000000 ] # a
  - [    -3.207596738457804,    13.587994293257101,     0.000000000000000 ] # b
  - [    -1.674402799739743,    -4.371708756712023,    13.158223663320337 ] # c
  points:
  - symbol: Li # 1
    coordinates: [  0.387884371009041,  0.021020367777435,  0.233333554599594 ]
    mass: 6.940000
    reduced_to: 1
  - symbol: Li # 2
    coordinates: [  0.887884371009041,  0.021020367777435,  0.233333554599594 ]
    mass: 6.940000
    reduced_to: 1
  - symbol: Li # 3
    coordinates: [  0.387884371009041,  0.521020367777435,  0.233333554599594 ]
    mass: 6.940000
    reduced_to: 1
  - symbol: Li # 4
    coordinates: [  0.887884371009041,  0.521020367777435,  0.233333554599594 ]
    mass: 6.940000
    reduced_to: 1
  - symbol: Li # 5
    coordinates: [  0.387884371009041,  0.021020367777435,  0.733333554599594 ]
    mass: 6.940000
    reduced_to: 1
  - symbol: Li # 6
    coordinates: [  0.887884371009041,  0.021020367777435,  0.733333554599594 ]
    mass: 6.940000
    reduced_to: 1
  - symbol: Li # 7
    coordinates: [  0.387884371009041,  0.521020367777435,  0.733333554599594 ]
    mass: 6.940000
    reduced_to: 1
  - symbol: Li # 8
    coordinates: [  0.887884371009041,  0.521020367777435,  0.733333554599594 ]
    mass: 6.940000
    reduced_to: 1
  - symbol: Li # 9
    coordinates: [  0.435121969342300,  0.214282573401614,  0.147415942309622 ]
    mass: 6.940000
    reduced_to: 9
  - symbol: Li # 10
    coordinates: [  0.935121969342300,  0.214282573401614,  0.147415942309622 ]
    mass: 6.940000
    reduced_to: 9
  - symbol: Li # 11
    coordinates: [  0.435121969342300,  0.714282573401614,  0.147415942309622 ]
    mass: 6.940000
    reduced_to: 9
  - symbol: Li # 12
    coordinates: [  0.935121969342300,  0.714282573401614,  0.147415942309622 ]
    mass: 6.940000
    reduced_to: 9
  - symbol: Li # 13
    coordinates: [  0.435121969342300,  0.214282573401614,  0.647415942309622 ]
    mass: 6.940000
    reduced_to: 9
  - symbol: Li # 14
    coordinates: [  0.935121969342300,  0.214282573401614,  0.647415942309622 ]
    mass: 6.940000
    reduced_to: 9
  - symbol: Li # 15
    coordinates: [  0.435121969342300,  0.714282573401614,  0.647415942309622 ]
    mass: 6.940000
    reduced_to: 9
  - symbol: Li # 16
    coordinates: [  0.935121969342300,  0.714282573401614,  0.647415942309622 ]
    mass: 6.940000
    reduced_to: 9
  - symbol: Li # 17
    coordinates: [  0.287533390117951,  0.151742508954470,  0.411510062225474 ]
    mass: 6.940000
    reduced_to: 17
  - symbol: Li # 18
    coordinates: [  0.787533390117951,  0.151742508954470,  0.411510062225474 ]
    mass: 6.940000
    reduced_to: 17
  - symbol: Li # 19
    coordinates: [  0.287533390117951,  0.651742508954470,  0.411510062225474 ]
    mass: 6.940000
    reduced_to: 17
  - symbol: Li # 20
    coordinates: [  0.787533390117951,  0.651742508954470,  0.411510062225474 ]
    mass: 6.940000
    reduced_to: 17
  - symbol: Li # 21
    coordinates: [  0.287533390117951,  0.151742508954470,  0.911510062225474 ]
    mass: 6.940000
    reduced_to: 17
  - symbol: Li # 22
    coordinates: [  0.787533390117951,  0.151742508954470,  0.911510062225474 ]
    mass: 6.940000
    reduced_to: 17
  - symbol: Li # 23
    coordinates: [  0.287533390117951,  0.651742508954470,  0.911510062225474 ]
    mass: 6.940000
    reduced_to: 17
  - symbol: Li # 24
    coordinates: [  0.787533390117951,  0.651742508954470,  0.911510062225474 ]
    mass: 6.940000
    reduced_to: 17
  - symbol: Li # 25
    coordinates: [  0.487189520446320,  0.392992418623688,  0.057778231747125 ]
    mass: 6.940000
    reduced_to: 25
  - symbol: Li # 26
    coordinates: [  0.987189520446319,  0.392992418623688,  0.057778231747125 ]
    mass: 6.940000
    reduced_to: 25
  - symbol: Li # 27
    coordinates: [  0.487189520446320,  0.892992418623688,  0.057778231747125 ]
    mass: 6.940000
    reduced_to: 25
  - symbol: Li # 28
    coordinates: [  0.987189520446319,  0.892992418623688,  0.057778231747125 ]
    mass: 6.940000
    reduced_to: 25
  - symbol: Li # 29
    coordinates: [  0.487189520446320,  0.392992418623688,  0.557778231747125 ]
    mass: 6.940000
    reduced_to: 25
  - symbol: Li # 30
    coordinates: [  0.987189520446319,  0.392992418623688,  0.557778231747125 ]
    mass: 6.940000
    reduced_to: 25
  - symbol: Li # 31
    coordinates: [  0.487189520446320,  0.892992418623688,  0.557778231747125 ]
    mass: 6.940000
    reduced_to: 25
  - symbol: Li # 32
    coordinates: [  0.987189520446319,  0.892992418623688,  0.557778231747125 ]
    mass: 6.940000
    reduced_to: 25
  - symbol: Li # 33
    coordinates: [  0.248419551032792,  0.483376033052483,  0.000948901307023 ]
    mass: 6.940000
    reduced_to: 33
  - symbol: Li # 34
    coordinates: [  0.748419551032792,  0.483376033052483,  0.000948901307023 ]
    mass: 6.940000
    reduced_to: 33
  - symbol: Li # 35
    coordinates: [  0.248419551032792,  0.983376033052483,  0.000948901307023 ]
    mass: 6.940000
    reduced_to: 33
  - symbol: Li # 36
    coordinates: [  0.748419551032792,  0.983376033052483,  0.000948901307023 ]
    mass: 6.940000
    reduced_to: 33
  - symbol: Li # 37
    coordinates: [  0.248419551032792,  0.483376033052483,  0.500948901307023 ]
    mass: 6.940000
    reduced_to: 33
  - symbol: Li # 38
    coordinates: [  0.748419551032792,  0.483376033052483,  0.500948901307023 ]
    mass: 6.940000
    reduced_to: 33
  - symbol: Li # 39
    coordinates: [  0.248419551032792,  0.983376033052483,  0.500948901307023 ]
    mass: 6.940000
    reduced_to: 33
  - symbol: Li # 40
    coordinates: [  0.748419551032792,  0.983376033052483,  0.500948901307023 ]
    mass: 6.940000
    reduced_to: 33
  - symbol: Li # 41
    coordinates: [  0.071320190815174,  0.244816331427188,  0.367351411382045 ]
    mass: 6.940000
    reduced_to: 41
  - symbol: Li # 42
    coordinates: [  0.571320190815174,  0.244816331427188,  0.367351411382045 ]
    mass: 6.940000
    reduced_to: 41
  - symbol: Li # 43
    coordinates: [  0.071320190815174,  0.744816331427188,  0.367351411382045 ]
    mass: 6.940000
    reduced_to: 41
  - symbol: Li # 44
    coordinates: [  0.571320190815174,  0.744816331427188,  0.367351411382045 ]
    mass: 6.940000
    reduced_to: 41
  - symbol: Li # 45
    coordinates: [  0.071320190815174,  0.244816331427188,  0.867351411382045 ]
    mass: 6.940000
    reduced_to: 41
  - symbol: Li # 46
    coordinates: [  0.571320190815174,  0.244816331427188,  0.867351411382045 ]
    mass: 6.940000
    reduced_to: 41
  - symbol: Li # 47
    coordinates: [  0.071320190815174,  0.744816331427188,  0.867351411382045 ]
    mass: 6.940000
    reduced_to: 41
  - symbol: Li # 48
    coordinates: [  0.571320190815174,  0.744816331427188,  0.867351411382045 ]
    mass: 6.940000
    reduced_to: 41
  - symbol: Sn # 49
    coordinates: [  0.346545324751724,  0.334706806108128,  0.334071418144498 ]
    mass: 118.710000
    reduced_to: 49
  - symbol: Sn # 50
    coordinates: [  0.846545324751724,  0.334706806108128,  0.334071418144498 ]
    mass: 118.710000
    reduced_to: 49
  - symbol: Sn # 51
    coordinates: [  0.346545324751724,  0.834706806108128,  0.334071418144498 ]
    mass: 118.710000
    reduced_to: 49
  - symbol: Sn # 52
    coordinates: [  0.846545324751724,  0.834706806108128,  0.334071418144498 ]
    mass: 118.710000
    reduced_to: 49
  - symbol: Sn # 53
    coordinates: [  0.346545324751724,  0.334706806108128,  0.834071418144498 ]
    mass: 118.710000
    reduced_to: 49
  - symbol: Sn # 54
    coordinates: [  0.846545324751724,  0.334706806108128,  0.834071418144498 ]
    mass: 118.710000
    reduced_to: 49
  - symbol: Sn # 55
    coordinates: [  0.346545324751724,  0.834706806108128,  0.834071418144498 ]
    mass: 118.710000
    reduced_to: 49
  - symbol: Sn # 56
    coordinates: [  0.846545324751724,  0.834706806108128,  0.834071418144498 ]
    mass: 118.710000
    reduced_to: 49
  - symbol: Sn # 57
    coordinates: [  0.018430786466619,  0.076142560248461,  0.464730690167456 ]
    mass: 118.710000
    reduced_to: 57
  - symbol: Sn # 58
    coordinates: [  0.518430786466619,  0.076142560248461,  0.464730690167456 ]
    mass: 118.710000
    reduced_to: 57
  - symbol: Sn # 59
    coordinates: [  0.018430786466619,  0.576142560248462,  0.464730690167456 ]
    mass: 118.710000
    reduced_to: 57
  - symbol: Sn # 60
    coordinates: [  0.518430786466619,  0.576142560248462,  0.464730690167456 ]
    mass: 118.710000
    reduced_to: 57
  - symbol: Sn # 61
    coordinates: [  0.018430786466619,  0.076142560248461,  0.964730690167456 ]
    mass: 118.710000
    reduced_to: 57
  - symbol: Sn # 62
    coordinates: [  0.518430786466619,  0.076142560248461,  0.964730690167456 ]
    mass: 118.710000
    reduced_to: 57
  - symbol: Sn # 63
    coordinates: [  0.018430786466619,  0.576142560248462,  0.964730690167456 ]
    mass: 118.710000
    reduced_to: 57
  - symbol: Sn # 64
    coordinates: [  0.518430786466619,  0.576142560248462,  0.964730690167456 ]
    mass: 118.710000
    reduced_to: 57
  - symbol: Sn # 65
    coordinates: [  0.213990621798553,  0.301931525914886,  0.086330953963510 ]
    mass: 118.710000
    reduced_to: 65
  - symbol: Sn # 66
    coordinates: [  0.713990621798553,  0.301931525914886,  0.086330953963510 ]
    mass: 118.710000
    reduced_to: 65
  - symbol: Sn # 67
    coordinates: [  0.213990621798553,  0.801931525914886,  0.086330953963510 ]
    mass: 118.710000
    reduced_to: 65
  - symbol: Sn # 68
    coordinates: [  0.713990621798553,  0.801931525914886,  0.086330953963510 ]
    mass: 118.710000
    reduced_to: 65
  - symbol: Sn # 69
    coordinates: [  0.213990621798553,  0.301931525914886,  0.586330953963510 ]
    mass: 118.710000
    reduced_to: 65
  - symbol: Sn # 70
    coordinates: [  0.713990621798553,  0.301931525914886,  0.586330953963510 ]
    mass: 118.710000
    reduced_to: 65
  - symbol: Sn # 71
    coordinates: [  0.213990621798553,  0.801931525914886,  0.586330953963510 ]
    mass: 118.710000
    reduced_to: 65
  - symbol: Sn # 72
    coordinates: [  0.713990621798553,  0.801931525914886,  0.586330953963510 ]
    mass: 118.710000
    reduced_to: 65
  - symbol: Sn # 73
    coordinates: [  0.159991799096015,  0.113647644198154,  0.187330702877575 ]
    mass: 118.710000
    reduced_to: 73
  - symbol: Sn # 74
    coordinates: [  0.659991799096015,  0.113647644198154,  0.187330702877575 ]
    mass: 118.710000
    reduced_to: 73
  - symbol: Sn # 75
    coordinates: [  0.159991799096015,  0.613647644198154,  0.187330702877575 ]
    mass: 118.710000
    reduced_to: 73
  - symbol: Sn # 76
    coordinates: [  0.659991799096015,  0.613647644198154,  0.187330702877575 ]
    mass: 118.710000
    reduced_to: 73
  - symbol: Sn # 77
    coordinates: [  0.159991799096015,  0.113647644198154,  0.687330702877575 ]
    mass: 118.710000
    reduced_to: 73
  - symbol: Sn # 78
    coordinates: [  0.659991799096015,  0.113647644198154,  0.687330702877575 ]
    mass: 118.710000
    reduced_to: 73
  - symbol: Sn # 79
    coordinates: [  0.159991799096015,  0.613647644198154,  0.687330702877575 ]
    mass: 118.710000
    reduced_to: 73
  - symbol: Sn # 80
    coordinates: [  0.659991799096015,  0.613647644198154,  0.687330702877575 ]
    mass: 118.710000
    reduced_to: 73
  - symbol: Sn # 81
    coordinates: [  0.118329782691110,  0.428512703575966,  0.280146015553733 ]
    mass: 118.710000
    reduced_to: 81
  - symbol: Sn # 82
    coordinates: [  0.618329782691110,  0.428512703575966,  0.280146015553733 ]
    mass: 118.710000
    reduced_to: 81
  - symbol: Sn # 83
    coordinates: [  0.118329782691110,  0.928512703575966,  0.280146015553733 ]
    mass: 118.710000
    reduced_to: 81
  - symbol: Sn # 84
    coordinates: [  0.618329782691110,  0.928512703575966,  0.280146015553733 ]
    mass: 118.710000
    reduced_to: 81
  - symbol: Sn # 85
    coordinates: [  0.118329782691110,  0.428512703575966,  0.780146015553733 ]
    mass: 118.710000
    reduced_to: 81
  - symbol: Sn # 86
    coordinates: [  0.618329782691110,  0.428512703575966,  0.780146015553733 ]
    mass: 118.710000
    reduced_to: 81
  - symbol: Sn # 87
    coordinates: [  0.118329782691110,  0.928512703575966,  0.780146015553733 ]
    mass: 118.710000
    reduced_to: 81
  - symbol: Sn # 88
    coordinates: [  0.618329782691110,  0.928512703575966,  0.780146015553733 ]
    mass: 118.710000
    reduced_to: 81

displacements:
- atom:    1
  displacement:
    [   0.0100000000000000,  0.0000000000000000,  0.0000000000000000 ]
  forces:
  - [  -0.0179467536509037,  0.0073233246803284,  0.0031201392412186 ]
  - [   0.0039422428235412,  0.0074017345905304,  0.0030155032873154 ]
  - [   0.0038528218865395,  0.0073828548192978,  0.0030258484184742 ]
  - [   0.0038190884515643,  0.0073336362838745,  0.0030114911496639 ]
  - [   0.0037891948595643,  0.0073398649692535,  0.0029551200568676 ]
  - [   0.0038854489102960,  0.0073463916778564,  0.0030962266027927 ]
  - [   0.0038349628448486,  0.0073578804731369,  0.0030129551887512 ]
  - [   0.0038482658565044,  0.0073687285184860,  0.0030489191412926 ]
  - [  -0.0007278136909008,  0.0125308055430651,  0.0124748796224594 ]
  - [  -0.0019061379134655,  0.0125976167619228,  0.0126293227076530 ]
  - [  -0.0001607760787010,  0.0125410147011280,  0.0124604776501656 ]
  - [  -0.0002069994807243,  0.0125496797263622,  0.0124946124851704 ]
  - [  -0.0001995153725147,  0.0125333350151777,  0.0125231929123402 ]
  - [  -0.0001793988049030,  0.0125891882926226,  0.0126318559050560 ]
  - [  -0.0001817531883717,  0.0125681422650814,  0.0125831365585327 ]
  - [  -0.0001742690801620,  0.0125588625669479,  0.0125912204384804 ]
  - [   0.0072137564420700, -0.0182451903820038, -0.0067175365984440 ]
  - [   0.0055584609508514, -0.0176565684378147, -0.0056512914597988 ]
  - [   0.0058237388730049, -0.0175467580556870, -0.0055432561784983 ]
  - [   0.0057899244129658, -0.0175205357372761, -0.0055900979787111 ]
  - [   0.0057986117899418, -0.0175505615770817, -0.0055259149521589 ]
  - [   0.0058131664991379, -0.0175120532512665, -0.0055954959243536 ]
  - [   0.0057614780962467, -0.0175507701933384, -0.0056369006633759 ]
  - [   0.0058448091149330, -0.0175264365971088, -0.0055454000830650 ]
  - [   0.0240309312939644,  0.0235883928835392,  0.0096428655087948 ]
  - [   0.0240913741290569,  0.0235797129571438,  0.0096230022609234 ]
  - [   0.0256264135241508,  0.0230541117489338,  0.0080918762832880 ]
  - [   0.0238191690295935,  0.0235385522246361,  0.0093987025320530 ]
  - [   0.0240799561142921,  0.0235789641737938,  0.0095992907881737 ]
  - [   0.0240726880729198,  0.0235511511564255,  0.0096562653779984 ]
  - [   0.0240157004445791,  0.0236470215022564,  0.0095561277121305 ]
  - [   0.0240770075470209,  0.0235537961125374,  0.0096286926418543 ]
  - [  -0.0023227212950587,  0.0109317600727081, -0.0037010451778769 ]
  - [  -0.0022783819586039,  0.0111192688345909, -0.0037550139240921 ]
  - [  -0.0022260919213295,  0.0111201852560043, -0.0029384708032012 ]
  - [  -0.0023395484313369,  0.0112008564174175, -0.0034023774787784 ]
  - [  -0.0022956915199757,  0.0110130272805691, -0.0037084678187966 ]
  - [  -0.0023754630237818,  0.0109281055629253, -0.0037692151963711 ]
  - [  -0.0022479938343167,  0.0110005624592304, -0.0038258596323431 ]
  - [  -0.0022896826267242,  0.0109690427780151, -0.0037743318825960 ]
  - [  -0.0237512327730656, -0.0123062841594219,  0.0180444642901421 ]
  - [  -0.0235567297786474, -0.0116699784994125,  0.0185020342469215 ]
  - [  -0.0237120911478996, -0.0121187120676041,  0.0177305601537228 ]
  - [  -0.0237240940332413, -0.0126370750367641,  0.0179172437638044 ]
  - [  -0.0237365718930960, -0.0123322159051895,  0.0177210792899132 ]
  - [  -0.0237112194299698, -0.0123321823775768,  0.0178104508668184 ]
  - [  -0.0237406957894564, -0.0123351067304611,  0.0177735555917025 ]
  - [  -0.0238179676234722, -0.0122568421065807,  0.0179787594825029 ]
  - [   0.0331810377538204, -0.0189313292503357,  0.0106940269470215 ]
  - [   0.0330658257007599, -0.0193627923727036,  0.0106030628085136 ]
  - [   0.0329278893768787, -0.0188325867056847,  0.0110018476843834 ]
  - [   0.0323093235492706, -0.0189470276236534,  0.0107011571526527 ]
  - [   0.0332016646862030, -0.0189621150493622,  0.0107220187783241 ]
  - [   0.0332027859985828, -0.0189326927065849,  0.0107592567801476 ]
  - [   0.0332123935222626, -0.0190148279070854,  0.0107269622385502 ]
  - [   0.0332281850278378, -0.0189216360449791,  0.0107096284627914 ]
  - [   0.0183934792876244,  0.0117619000375271,  0.0188681855797768 ]
  - [   0.0182393752038479,  0.0117462724447250,  0.0207157190889120 ]
  - [   0.0183417052030563,  0.0121133141219616,  0.0190377067774534 ]
  - [   0.0182807222008705,  0.0118710249662399,  0.0189271420240402 ]
  - [   0.0182628110051155,  0.0121178999543190,  0.0187463909387589 ]
  - [   0.0181870013475418,  0.0118974931538105,  0.0187642425298691 ]
  - [   0.0183131732046604,  0.0118405520915985,  0.0188294444233179 ]
  - [   0.0183052346110344,  0.0119920819997787,  0.0189770944416523 ]
  - [  -0.0162715427577496, -0.0154605582356453, -0.0023416355252266 ]
  - [  -0.0162288919091225, -0.0157498791813850, -0.0022986158728600 ]
  - [  -0.0160822421312332, -0.0141718387603760, -0.0009919106960297 ]
  - [  -0.0160604007542133, -0.0155450627207756, -0.0026680603623390 ]
  - [  -0.0162871181964874, -0.0154459699988365, -0.0021962150931358 ]
  - [  -0.0161500796675682, -0.0155085325241089, -0.0023640468716621 ]
  - [  -0.0161625705659389, -0.0155475214123726, -0.0023280233144760 ]
  - [  -0.0161750689148903, -0.0155502781271935, -0.0022521764039993 ]
  - [  -0.0063469903543591,  0.0082671493291855, -0.0282275136560202 ]
  - [  -0.0066222157329321,  0.0137749835848808, -0.0302053689956665 ]
  - [  -0.0127191357314587,  0.0113319568336010, -0.0284679532051086 ]
  - [  -0.0126012172549963,  0.0113892741501331, -0.0284345000982285 ]
  - [  -0.0126439463347197,  0.0114301145076752, -0.0284614711999893 ]
  - [  -0.0126882409676909,  0.0114317797124386, -0.0286503657698631 ]
  - [  -0.0126225408166647,  0.0114556066691875, -0.0283920764923096 ]
  - [  -0.0126354340463877,  0.0114330947399139, -0.0284031406044960 ]
  - [  -0.0301662832498550, -0.0135081969201565, -0.0327298715710640 ]
  - [  -0.0302674546837807, -0.0134942270815372, -0.0326213911175728 ]
  - [  -0.0245557017624378, -0.0100751966238022, -0.0335926413536072 ]
  - [  -0.0250332783907652, -0.0162772219628096, -0.0310982931405306 ]
  - [  -0.0302270408719778, -0.0135214887559414, -0.0326308161020279 ]
  - [  -0.0302049908787012, -0.0135571695864201, -0.0326780416071415 ]
  - [  -0.0302502214908600, -0.0135384090244770, -0.0327200554311275 ]
  - [  -0.0302296504378319, -0.0135983154177666, -0.0326988771557808 ]
- atom:    1
  displacement:
    [  -0.0100000000000000,  0.0000000000000000,  0.0000000000000000 ]
  forces:
  - [   0.0256418772041798,  0.0073197111487389,  0.0029454082250595 ]
  - [   0.0037243831902742,  0.0073029994964600,  0.0030184350907803 ]
  - [   0.0038149105384946,  0.0073308721184731,  0.0030037239193916 ]
  - [   0.0038502076640725,  0.0073768198490143,  0.0030175000429153 ]
  - [   0.0038784202188253,  0.0073732808232307,  0.0030743181705475 ]
  - [   0.0037818849086761,  0.0073672756552696,  0.0029316842556000 ]
  - [   0.0038329008966684,  0.0073560923337936,  0.0030162855982780 ]
  - [   0.0038194255903363,  0.0073442384600639,  0.0029798001050949 ]
  - [   0.0003656558692455,  0.0125990603119135,  0.0127055309712887 ]
  - [   0.0015421286225319,  0.0125394593924284,  0.0125515721738338 ]
  - [  -0.0002050325274467,  0.0125976484268904,  0.0127160586416721 ]
  - [  -0.0001609623432159,  0.0125803127884865,  0.0126790851354599 ]
  - [  -0.0001647733151913,  0.0126057919114828,  0.0126548148691654 ]
  - [  -0.0001871734857559,  0.0125494580715895,  0.0125475041568279 ]
  - [  -0.0001807324588299,  0.0125705059617758,  0.0125963389873505 ]
  - [  -0.0001882389187813,  0.0125792752951384,  0.0125892423093319 ]
  - [   0.0043742135167122, -0.0167949236929417, -0.0044347979128361 ]
  - [   0.0060283690690994, -0.0173911787569523, -0.0055177696049213 ]
  - [   0.0057743564248085, -0.0175085105001926, -0.0056150872260332 ]
  - [   0.0058064013719559, -0.0175276808440685, -0.0055709686130285 ]
  - [   0.0058022513985634, -0.0175017602741718, -0.0056317094713449 ]
  - [   0.0057854652404785, -0.0175389125943184, -0.0055643860250711 ]
  - [   0.0058377496898174, -0.0174985043704510, -0.0055213961750269 ]
  - [   0.0057544112205505, -0.0175218097865582, -0.0056145079433918 ]
  - [   0.0241074319928885,  0.0235393717885017,  0.0096275620162487 ]
  - [   0.0240486171096563,  0.0235464982688427,  0.0096490941941738 ]
  - [   0.0225202664732933,  0.0240687094628811,  0.0111634302884340 ]
  - [   0.0243272781372070,  0.0235963314771652,  0.0098771974444389 ]
  - [   0.0240582637488842,  0.0235450975596905,  0.0096728056669235 ]
  - [   0.0240632835775614,  0.0235731676220894,  0.0096153393387794 ]
  - [   0.0241221282631159,  0.0234802030026913,  0.0097153335809708 ]
  - [   0.0240579620003700,  0.0235730074346066,  0.0096388459205627 ]
  - [  -0.0023056194186211,  0.0111145861446857, -0.0037315823137760 ]
  - [  -0.0023490674793720,  0.0109280906617641, -0.0036783944815397 ]
  - [  -0.0023962762206793,  0.0109261088073254, -0.0044910535216331 ]
  - [  -0.0022895680740476,  0.0108473487198353, -0.0040253084152937 ]
  - [  -0.0023318910971284,  0.0110342055559158, -0.0037258681841195 ]
  - [  -0.0022542737424374,  0.0111196748912334, -0.0036638341844082 ]
  - [  -0.0023770360276103,  0.0110509172081947, -0.0036034174263477 ]
  - [  -0.0023362813517451,  0.0110784135758877, -0.0036497563123703 ]
  - [  -0.0236702151596546, -0.0123728550970554,  0.0174781717360020 ]
  - [  -0.0238748062402010, -0.0130149796605110,  0.0170190818607807 ]
  - [  -0.0237117297947407, -0.0125714167952538,  0.0177959464490414 ]
  - [  -0.0237008631229401, -0.0120515786111355,  0.0176083724945784 ]
  - [  -0.0236882381141186, -0.0123464167118073,  0.0178023651242256 ]
  - [  -0.0237138699740171, -0.0123467072844505,  0.0177139844745398 ]
  - [  -0.0236842483282089, -0.0123454593122005,  0.0177521072328091 ]
  - [  -0.0236063916236162, -0.0124252811074257,  0.0175474956631660 ]
  - [   0.0331943854689598, -0.0190386772155762,  0.0107187479734421 ]
  - [   0.0333098247647285, -0.0186060145497322,  0.0108115710318089 ]
  - [   0.0334532298147678, -0.0191091075539589,  0.0104025155305862 ]
  - [   0.0340769216418266, -0.0189987793564796,  0.0107156857848167 ]
  - [   0.0331777557730675, -0.0190001279115677,  0.0106902569532394 ]
  - [   0.0331745818257332, -0.0190300419926643,  0.0106536522507668 ]
  - [   0.0331663414835930, -0.0189470872282982,  0.0106886476278305 ]
  - [   0.0331548191606998, -0.0190440565347672,  0.0107042528688908 ]
  - [   0.0182328633964062,  0.0122186504304409,  0.0191023536026478 ]
  - [   0.0183706730604172,  0.0122211836278439,  0.0172300897538662 ]
  - [   0.0182878933846951,  0.0118591822683811,  0.0189284514635801 ]
  - [   0.0183450244367123,  0.0120998285710812,  0.0190369654446840 ]
  - [   0.0183624140918255,  0.0118496790528297,  0.0192201696336269 ]
  - [   0.0184345133602619,  0.0120677761733532,  0.0192084312438965 ]
  - [   0.0183149613440037,  0.0121356919407845,  0.0191372334957123 ]
  - [   0.0183208957314491,  0.0119822323322296,  0.0189895462244749 ]
  - [  -0.0160441510379314, -0.0156212300062180, -0.0022870525717735 ]
  - [  -0.0160914659500122, -0.0153353661298752, -0.0023288875818253 ]
  - [  -0.0162196010351181, -0.0169071927666664, -0.0036232173442841 ]
  - [  -0.0162541717290878, -0.0155367553234100, -0.0019702538847923 ]
  - [  -0.0160297229886055, -0.0156430155038834, -0.0024331957101822 ]
  - [  -0.0161635875701904, -0.0155788064002991, -0.0022633448243141 ]
  - [  -0.0161529667675495, -0.0155395269393921, -0.0023002997040749 ]
  - [  -0.0161429829895496, -0.0155388265848160, -0.0023725256323814 ]
  - [  -0.0191405862569809,  0.0147564485669136, -0.0286447871476412 ]
  - [  -0.0184387620538473,  0.0092321485280991, -0.0266788527369499 ]
  - [  -0.0125494375824928,  0.0115420185029507, -0.0283507704734802 ]
  - [  -0.0126709993928671,  0.0114766471087933, -0.0283907931298018 ]
  - [  -0.0126211401075125,  0.0114380382001400, -0.0283587183803320 ]
  - [  -0.0125765632838011,  0.0114338025450706, -0.0281683020293713 ]
  - [  -0.0126433391124010,  0.0114141926169395, -0.0284260176122189 ]
  - [  -0.0126321194693446,  0.0114383138716221, -0.0284142941236496 ]
  - [  -0.0302403960376978, -0.0135819911956787, -0.0326115973293781 ]
  - [  -0.0301426928490400, -0.0135961957275867, -0.0327194109559059 ]
  - [  -0.0360033549368382, -0.0171223580837250, -0.0317026674747467 ]
  - [  -0.0352308079600334, -0.0109182037413120, -0.0342066809535027 ]
  - [  -0.0301807187497616, -0.0135643929243088, -0.0327114127576351 ]
  - [  -0.0302051994949579, -0.0135314874351025, -0.0326648429036140 ]
  - [  -0.0301608946174383, -0.0135482177138329, -0.0326261296868324 ]
  - [  -0.0301843732595444, -0.0134848952293396, -0.0326491743326187 ]
- atom:    1
  displacement:
    [  -0.0022974657075998,  0.0097325048842733,  0.0000000000000000 ]
  forces:
  - [   0.0088762585073709, -0.0042410269379616,  0.0029839873313904 ]
  - [   0.0038586957380176,  0.0076663047075272,  0.0028488151729107 ]
  - [   0.0038539348170161,  0.0073146522045135,  0.0030207000672817 ]
  - [   0.0038172584027052,  0.0073477029800415,  0.0030188150703907 ]
  - [   0.0038277693092823,  0.0073383972048759,  0.0029657483100891 ]
  - [   0.0038115922361612,  0.0073701664805412,  0.0029377676546574 ]
  - [   0.0038344478234649,  0.0073597356677055,  0.0030209049582481 ]
  - [   0.0038422914221883,  0.0073479041457176,  0.0030611418187618 ]