# Tetrahedron method
       -1.0834377156        0.0000000000
       -1.0184314557        0.0000000000
       -0.9534251958        0.0000000000
       -0.8884189359        0.0000000000
       -0.8234126761        0.0000000000
       -0.7584064162        0.0000000000
       -0.6934001563        0.0000000000
       -0.6283938964        0.0000000000
       -0.5633876365        0.0000000000
       -0.4983813766        0.0000000000
       -0.4333751168        0.0000000000
       -0.3683688569        0.0000000000
       -0.3033625970        0.0000000000
       -0.2383563371        0.0000000000
       -0.1733500772        0.0000000000
       -0.1083438174        0.0000000000
       -0.0433375575        0.0000000000
        0.0216687024        0.0005413837
        0.0866749623        0.0086621595
        0.1516812222        0.0323175593
        0.2166874821        0.0788814542
        0.2816937419        0.1354648917
        0.3467000018        0.2042083559
        0.4117062617        0.2930794022
        0.4767125216        0.3938704424
        0.5417187815        0.5109469259
        0.6067250414        0.6556855776
        0.6717313012        0.8191977437
        0.7367375611        1.0175643810
        0.8017438210        1.2586674461
        0.8667500809        1.5712897735
        0.9317563408        2.0493104214
        0.9967626006        2.3906870549
        1.0617688605        3.1333785563
        1.1267751204        3.6503651436
        1.1917813803        4.7870536662
        1.2567876402        5.5224289084
        1.3217939001        5.4811313133
        1.3868001599        6.0152340018
        1.4518064198        7.1302494455
        1.5168126797        4.8551594230
        1.5818189396        8.7879777961
        1.6468251995        4.4045861447
        1.7118314593        9.4219535440
        1.7768377192        7.6549502096
        1.8418439791        8.5540436131
        1.9068502390        8.6452133141
        1.9718564989        9.3246040019
        2.0368627588        8.6295938457
        2.1018690186       11.5866289882
        2.1668752785        6.6295822268
        2.2318815384        9.9286786156
        2.2968877983       10.4688727532
        2.3618940582        6.2108576526
        2.4269003180        3.0809096173
        2.4919065779        5.5017993840
        2.5569128378        7.5400473584
        2.6219190977        5.1581277574
        2.6869253576        1.2445548154
        2.7519316175        8.1874349712
        2.8169378773        8.0378721778
        2.8819441372        0.6251641581
        2.9469503971        7.7826928287
        3.0119566570        8.7511241922
        3.0769629169        9.0951353089
        3.1419691767        4.3673334108
        3.2069754366        0.0000000000
        3.2719816965        0.0000000000
        3.3369879564        0.0000000000
        3.4019942163        0.0000000000
        3.4670004762        0.0000000000
        3.5320067360        0.0000000000
        3.5970129959        0.0000000000
        3.6620192558        0.0000000000
        3.7270255157        0.0000000000
        3.7920317756        0.0000000000
        3.8570380355        0.0000000000
        3.9220442953        0.0000000000
        3.9870505552        0.0000000000
        4.0520568151        0.0000000000
        4.1170630750        0.0000000000
        4.1820693349        0.0000000000
        4.2470755947        0.0000000000
        4.3120818546        0.0000000000
        4.3770881145        0.0000000000
        4.4420943744        0.0000000000
        4.5071006343        0.0000000000
        4.5721068942        0.0000000000
        4.6371131540        0.0000000000
        4.7021194139        0.0000000000
        4.7671256738        0.0000000000
        4.8321319337        0.0000000000
        4.8971381936        0.0000000000
        4.9621444534        0.0000000000
        5.0271507133        0.0000000000
        5.0921569732        0.0000000000
        5.1571632331        0.0000000000
        5.2221694930        0.0000000000
        5.2871757529        3.3407903332
        5.3521820127        6.0201801231
        5.4171882726        2.9248287045
        5.4821945325        2.4698612340
        5.5472007924        1.2630072727
        5.6122070523        4.2192786033
        5.6772133121        5.0460392598
        5.7422195720        3.9606375187
        5.8072258319        2.7167405678
        5.8722320918        0.0280261233
        5.9372383517        0.1783837665
        6.0022446116        1.0488856749
        6.0672508714        2.3006279633
        6.1322571313        4.0074235803
        6.1972633912        4.6189176593
        6.2622696511        2.8036491345
        6.3272759110        0.6865523372
        6.3922821709        1.1770513605
        6.4572884307        5.2140794805
        6.5222946906        5.4053391217
        6.5873009505        2.5258908856
        6.6523072104        1.0040358111
        6.7173134703        2.4189345588
        6.7823197301        4.1023724540
        6.8473259900        6.5894142039
        6.9123322499        2.5469178028
        6.9773385098        2.3597947484
        7.0423447697        4.7220249129
        7.1073510296        4.7035556896
        7.1723572894        2.0469808287
        7.2373635493        2.0261211185
        7.3023698092        2.7689845016
        7.3673760691        4.8120864824
        7.4323823290        3.9930793381
        7.4973885888        3.8890087759
        7.5623948487        3.0315978753
        7.6274011086        2.4312486577
        7.6924073685        2.8244707531
        7.7574136284        6.0773168221
        7.8224198883        5.1106383395
        7.8874261481        5.1287064884
        7.9524324080        4.6655488570
        8.0174386679        3.1679438319
        8.0824449278        4.4336932296
        8.1474511877        6.0926145457
        8.2124574475        4.2210850016
        8.2774637074        4.2644938000
        8.3424699673        4.2650930774
        8.4074762272        4.3374207151
        8.4724824871        4.2680838359
        8.5374887470        3.5198673225
        8.6024950068        3.8486712053
        8.6675012667        2.8911131770
        8.7325075266        1.9842163420
        8.7975137865        4.3297546468
        8.8625200464        6.8710347540
        8.9275263062        1.9099999496
        8.9925325661        1.1192815781
        9.0575388260        3.2815025794
        9.1225450859        6.9854766042
        9.1875513458        4.3559185722
        9.2525576057        3.9926131097
        9.3175638655        4.8231930591
        9.3825701254        6.6145349717
        9.4475763853        2.9972011210
        9.5125826452        4.8383000065
        9.5775889051        5.6362378756
        9.6425951650        1.5238154140
        9.7076014248        1.8892390345
        9.7726076847        1.5695580611
        9.8376139446        3.0312801414
        9.9026202045        4.0405855296
        9.9676264644        1.9847497115
       10.0326327242        2.0692757257
       10.0976389841        1.5782525420
       10.1626452440        0.9726579789
       10.2276515039        0.0000000000
       10.2926577638        0.0000000000
       10.3576640237        0.0000000000
       10.4226702835        0.0000000000
       10.4876765434        0.0000000000
       10.5526828033        3.9519261758
       10.6176890632        8.0230002180
       10.6826953231        1.6350525068
       10.7477015829        0.7682596007
       10.8127078428        0.2806129903
       10.8777141027        0.0000000000
       10.9427203626        0.0000000000
       11.0077266225        0.0000000000
       11.0727328824        0.0000000000
       11.1377391422        0.0000000000
       11.2027454021        0.0000000000
       11.2677516620        0.0000000000
       11.3327579219        0.0000000000
       11.3977641818        0.0000000000
       11.4627704416        0.0000000000
       11.5277767015        0.0000000000
       11.5927829614        0.0000000000
       11.6577892213        0.0000000000
       11.7227954812        0.0000000000
       11.7878017411        0.0000000000
       11.8528080009        0.0000000000
       11.9178142608        0.0000000000
