# Thermal properties / unit cell (natom)

unit:
  temperature:   K
  free_energy:   kJ/mol
  entropy:       J/K/mol
  heat_capacity: J/K/mol

natom: 6    
cutoff_frequency: 0.00000
num_modes: 170352
num_integrated_modes: 170293

zero_point_energy:      15.8012095

thermal_properties:
- temperature:         0.0000000
  free_energy:        15.8012095
  entropy:             0.0000000
  heat_capacity:       0.0000000
  energy:             15.8012095

- temperature:        10.0000000
  free_energy:        15.7988762
  entropy:             0.8145046
  heat_capacity:       2.2796675
  energy:             15.8070213

- temperature:        20.0000000
  free_energy:        15.7718225
  entropy:             5.2965409
  heat_capacity:      12.8335766
  energy:             15.8777534

- temperature:        30.0000000
  free_energy:        15.6822756
  entropy:            12.9999816
  heat_capacity:      26.2799546
  energy:             16.0722750

- temperature:        40.0000000
  free_energy:        15.5059119
  entropy:            22.4980200
  heat_capacity:      40.4654085
  energy:             16.4058327

- temperature:        50.0000000
  free_energy:        15.2288872
  entropy:            33.0310548
  heat_capacity:      54.3193481
  energy:             16.8804399

- temperature:        60.0000000
  free_energy:        14.8435885
  entropy:            44.0797468
  heat_capacity:      67.0351569
  energy:             17.4883733

- temperature:        70.0000000
  free_energy:        14.3468158
  entropy:            55.2754367
  heat_capacity:      78.2471263
  energy:             18.2160964

- temperature:        80.0000000
  free_energy:        13.7384240
  entropy:            66.3708790
  heat_capacity:      87.8978875
  energy:             19.0480944

- temperature:        90.0000000
  free_energy:        13.0202583
  entropy:            77.2104276
  heat_capacity:      96.0935570
  energy:             19.9691968

- temperature:       100.0000000
  free_energy:        12.1953762
  entropy:            87.7031872
  heat_capacity:     103.0084475
  energy:             20.9656950

- temperature:       110.0000000
  free_energy:        11.2675109
  entropy:            97.8019748
  heat_capacity:     108.8316146
  energy:             22.0257281

- temperature:       120.0000000
  free_energy:        10.2407143
  entropy:           107.4880703
  heat_capacity:     113.7406736
  energy:             23.1392828

- temperature:       130.0000000
  free_energy:         9.1191290
  entropy:           116.7606722
  heat_capacity:     117.8913428
  energy:             24.2980164

- temperature:       140.0000000
  free_energy:         7.9068464
  entropy:           125.6298307
  heat_capacity:     121.4151679
  energy:             25.4950227

- temperature:       150.0000000
  free_energy:         6.6078233
  entropy:           134.1118138
  heat_capacity:     124.4210264
  energy:             26.7245954

- temperature:       160.0000000
  free_energy:         5.2258358
  entropy:           142.2261239
  heat_capacity:     126.9980656
  energy:             27.9820156

- temperature:       170.0000000
  free_energy:         3.7644569
  entropy:           149.9936116
  heat_capacity:     129.2189175
  energy:             29.2633709

- temperature:       180.0000000
  free_energy:         2.2270495
  entropy:           157.4353079
  heat_capacity:     131.1426840
  energy:             30.5654049

- temperature:       190.0000000
  free_energy:         0.6167682
  entropy:           164.5717237
  heat_capacity:     132.8175114
  energy:             31.8853957

- temperature:       200.0000000
  free_energy:        -1.0634328
  entropy:           171.4224501
  heat_capacity:     134.2827231
  energy:             33.2210572

- temperature:       210.0000000
  free_energy:        -2.8107901
  entropy:           178.0059510
  heat_capacity:     135.5705525
  energy:             34.5704596

- temperature:       220.0000000
  free_energy:        -4.6227187
  entropy:           184.3394757
  heat_capacity:     136.7075313
  energy:             35.9319659

- temperature:       230.0000000
  free_energy:        -6.4967999
  entropy:           190.4390471
  heat_capacity:     137.7155971
  energy:             37.3041809

- temperature:       240.0000000
  free_energy:        -8.4307694
  entropy:           196.3194942
  heat_capacity:     138.6129741
  energy:             38.6859092

- temperature:       250.0000000
  free_energy:       -10.4225052
  entropy:           201.9945102
  heat_capacity:     139.4148739
  energy:             40.0761224

- temperature:       260.0000000
  free_energy:       -12.4700170
  entropy:           207.4767239
  heat_capacity:     140.1340535
  energy:             41.4739312

- temperature:       270.0000000
  free_energy:       -14.5714359
  entropy:           212.7777763
  heat_capacity:     140.7812616
  energy:             42.8785637

- temperature:       280.0000000
  free_energy:       -16.7250045
  entropy:           217.9083983
  heat_capacity:     141.3655959
  energy:             44.2893470

- temperature:       290.0000000
  free_energy:       -18.9290688
  entropy:           222.8784855
  heat_capacity:     141.8947910
  energy:             45.7056920

- temperature:       300.0000000
  free_energy:       -21.1820696
  entropy:           227.6971693
  heat_capacity:     142.3754506
  energy:             47.1270811

- temperature:       310.0000000
  free_energy:       -23.4825357
  entropy:           232.3728835
  heat_capacity:     142.8132364
  energy:             48.5530582

- temperature:       320.0000000
  free_energy:       -25.8290768
  entropy:           236.9134252
  heat_capacity:     143.2130219
  energy:             49.9832193

- temperature:       330.0000000
  free_energy:       -28.2203778
  entropy:           241.3260115
  heat_capacity:     143.5790178
  energy:             51.4172060

- temperature:       340.0000000
  free_energy:       -30.6551929
  entropy:           245.6173297
  heat_capacity:     143.9148762
  energy:             52.8546992

- temperature:       350.0000000
  free_energy:       -33.1323409
  entropy:           249.7935845
  heat_capacity:     144.2237752
  energy:             54.2954137

- temperature:       360.0000000
  free_energy:       -35.6507003
  entropy:           253.8605401
  heat_capacity:     144.5084903
  energy:             55.7390942

- temperature:       370.0000000
  free_energy:       -38.2092052
  entropy:           257.8235576
  heat_capacity:     144.7714530
  energy:             57.1855111

- temperature:       380.0000000
  free_energy:       -40.8068416
  entropy:           261.6876303
  heat_capacity:     145.0148003
  energy:             58.6344579

- temperature:       390.0000000
  free_energy:       -43.4426436
  entropy:           265.4574143
  heat_capacity:     145.2404158
  energy:             60.0857480

- temperature:       400.0000000
  free_energy:       -46.1156902
  entropy:           269.1372570
  heat_capacity:     145.4499647
  energy:             61.5392126

- temperature:       410.0000000
  free_energy:       -48.8251025
  entropy:           272.7312223
  heat_capacity:     145.6449230
  energy:             62.9946987

- temperature:       420.0000000
  free_energy:       -51.5700410
  entropy:           276.2431140
  heat_capacity:     145.8266028
  energy:             64.4520669

- temperature:       430.0000000
  free_energy:       -54.3497031
  entropy:           279.6764964
  heat_capacity:     145.9961729
  energy:             65.9111904

- temperature:       440.0000000
  free_energy:       -57.1633204
  entropy:           283.0347134
  heat_capacity:     146.1546776
  energy:             67.3719534

- temperature:       450.0000000
  free_energy:       -60.0101573
  entropy:           286.3209055
  heat_capacity:     146.3030518
  energy:             68.8342502

- temperature:       460.0000000
  free_energy:       -62.8895083
  entropy:           289.5380258
  heat_capacity:     146.4421344
  energy:             70.2979835

- temperature:       470.0000000
  free_energy:       -65.8006969
  entropy:           292.6888538
  heat_capacity:     146.5726801
  energy:             71.7630644

- temperature:       480.0000000
  free_energy:       -68.7430732
  entropy:           295.7760086
  heat_capacity:     146.6953688
  energy:             73.2294109

- temperature:       490.0000000
  free_energy:       -71.7160130
  entropy:           298.8019606
  heat_capacity:     146.8108145
  energy:             74.6969476

- temperature:       500.0000000
  free_energy:       -74.7189162
  entropy:           301.7690422
  heat_capacity:     146.9195728
  energy:             76.1656049

- temperature:       510.0000000
  free_energy:       -77.7512050
  entropy:           304.6794578
  heat_capacity:     147.0221474
  energy:             77.6353185

- temperature:       520.0000000
  free_energy:       -80.8123234
  entropy:           307.5352927
  heat_capacity:     147.1189957
  energy:             79.1060288

- temperature:       530.0000000
  free_energy:       -83.9017355
  entropy:           310.3385212
  heat_capacity:     147.2105338
  energy:             80.5776807

- temperature:       540.0000000
  free_energy:       -87.0189247
  entropy:           313.0910144
  heat_capacity:     147.2971408
  energy:             82.0502230

- temperature:       550.0000000
  free_energy:       -90.1633926
  entropy:           315.7945470
  heat_capacity:     147.3791629
  energy:             83.5236082

- temperature:       560.0000000
  free_energy:       -93.3346581
  entropy:           318.4508039
  heat_capacity:     147.4569166
  energy:             84.9977921

- temperature:       570.0000000
  free_energy:       -96.5322565
  entropy:           321.0613856
  heat_capacity:     147.5306915
  energy:             86.4727333

- temperature:       580.0000000
  free_energy:       -99.7557386
  entropy:           323.6278141
  heat_capacity:     147.6007533
  energy:             87.9483935

- temperature:       590.0000000
  free_energy:      -103.0046704
  entropy:           326.1515376
  heat_capacity:     147.6673459
  energy:             89.4247368

- temperature:       600.0000000
  free_energy:      -106.2786316
  entropy:           328.6339355
  heat_capacity:     147.7306938
  energy:             90.9017296

- temperature:       610.0000000
  free_energy:      -109.5772157
  entropy:           331.0763218
  heat_capacity:     147.7910034
  energy:             92.3793406

- temperature:       620.0000000
  free_energy:      -112.9000289
  entropy:           333.4799502
  heat_capacity:     147.8484652
  energy:             93.8575402

- temperature:       630.0000000
  free_energy:      -116.2466895
  entropy:           335.8460167
  heat_capacity:     147.9032551
  energy:             95.3363010

- temperature:       640.0000000
  free_energy:      -119.6168278
  entropy:           338.1756637
  heat_capacity:     147.9555355
  energy:             96.8155970

- temperature:       650.0000000
  free_energy:      -123.0100851
  entropy:           340.4699829
  heat_capacity:     148.0054569
  energy:             98.2954038

- temperature:       660.0000000
  free_energy:      -126.4261132
  entropy:           342.7300180
  heat_capacity:     148.0531585
  energy:             99.7756987

- temperature:       670.0000000
  free_energy:      -129.8645745
  entropy:           344.9567679
  heat_capacity:     148.0987696
  energy:            101.2564600

- temperature:       680.0000000
  free_energy:      -133.3251408
  entropy:           347.1511887
  heat_capacity:     148.1424102
  energy:            102.7376675

- temperature:       690.0000000
  free_energy:      -136.8074935
  entropy:           349.3141965
  heat_capacity:     148.1841917
  energy:            104.2193020

- temperature:       700.0000000
  free_energy:      -140.3113230
  entropy:           351.4466692
  heat_capacity:     148.2242181
  energy:            105.7013455

- temperature:       710.0000000
  free_energy:      -143.8363280
  entropy:           353.5494490
  heat_capacity:     148.2625859
  energy:            107.1837809

- temperature:       720.0000000
  free_energy:      -147.3822157
  entropy:           355.6233440
  heat_capacity:     148.2993852
  energy:            108.6665920

- temperature:       730.0000000
  free_energy:      -150.9487011
  entropy:           357.6691298
  heat_capacity:     148.3347002
  energy:            110.1497636

- temperature:       740.0000000
  free_energy:      -154.5355070
  entropy:           359.6875518
  heat_capacity:     148.3686093
  energy:            111.6332813

- temperature:       750.0000000
  free_energy:      -158.1423634
  entropy:           361.6793263
  heat_capacity:     148.4011861
  energy:            113.1171314

- temperature:       760.0000000
  free_energy:      -161.7690070
  entropy:           363.6451419
  heat_capacity:     148.4324992
  energy:            114.6013008

- temperature:       770.0000000
  free_energy:      -165.4151819
  entropy:           365.5856613
  heat_capacity:     148.4626131
  energy:            116.0857774

- temperature:       780.0000000
  free_energy:      -169.0806381
  entropy:           367.5015223
  heat_capacity:     148.4915879
  energy:            117.5705493

- temperature:       790.0000000
  free_energy:      -172.7651322
  entropy:           369.3933388
  heat_capacity:     148.5194803
  energy:            119.0556055

- temperature:       800.0000000
  free_energy:      -176.4684267
  entropy:           371.2617027
  heat_capacity:     148.5463434
  energy:            120.5409355

- temperature:       810.0000000
  free_energy:      -180.1902900
  entropy:           373.1071840
  heat_capacity:     148.5722272
  energy:            122.0265291

- temperature:       820.0000000
  free_energy:      -183.9304959
  entropy:           374.9303327
  heat_capacity:     148.5971785
  energy:            123.5123769

- temperature:       830.0000000
  free_energy:      -187.6888239
  entropy:           376.7316791
  heat_capacity:     148.6212415
  energy:            124.9984697

- temperature:       840.0000000
  free_energy:      -191.4650585
  entropy:           378.5117350
  heat_capacity:     148.6444578
  energy:            126.4847989

- temperature:       850.0000000
  free_energy:      -195.2589893
  entropy:           380.2709947
  heat_capacity:     148.6668665
  energy:            127.9713562

- temperature:       860.0000000
  free_energy:      -199.0704107
  entropy:           382.0099353
  heat_capacity:     148.6885047
  energy:            129.4581337

- temperature:       870.0000000
  free_energy:      -202.8991218
  entropy:           383.7290180
  heat_capacity:     148.7094071
  energy:            130.9451238

- temperature:       880.0000000
  free_energy:      -206.7449264
  entropy:           385.4286884
  heat_capacity:     148.7296067
  energy:            132.4323195

- temperature:       890.0000000
  free_energy:      -210.6076323
  entropy:           387.1093776
  heat_capacity:     148.7491346
  energy:            133.9197137

- temperature:       900.0000000
  free_energy:      -214.4870520
  entropy:           388.7715023
  heat_capacity:     148.7680202
  energy:            135.4073000

- temperature:       910.0000000
  free_energy:      -218.3830018
  entropy:           390.4154658
  heat_capacity:     148.7862912
  energy:            136.8950721

- temperature:       920.0000000
  free_energy:      -222.2953021
  entropy:           392.0416587
  heat_capacity:     148.8039741
  energy:            138.3830239

- temperature:       930.0000000
  free_energy:      -226.2237770
  entropy:           393.6504588
  heat_capacity:     148.8210938
  energy:            139.8711497

- temperature:       940.0000000
  free_energy:      -230.1682545
  entropy:           395.2422324
  heat_capacity:     148.8376738
  energy:            141.3594440

- temperature:       950.0000000
  free_energy:      -234.1285661
  entropy:           396.8173343
  heat_capacity:     148.8537366
  energy:            142.8479014

- temperature:       960.0000000
  free_energy:      -238.1045468
  entropy:           398.3761082
  heat_capacity:     148.8693034
  energy:            144.3365170

- temperature:       970.0000000
  free_energy:      -242.0960350
  entropy:           399.9188875
  heat_capacity:     148.8843944
  energy:            145.8252859

- temperature:       980.0000000
  free_energy:      -246.1028723
  entropy:           401.4459956
  heat_capacity:     148.8990289
  energy:            147.3142034

- temperature:       990.0000000
  free_energy:      -250.1249037
  entropy:           402.9577462
  heat_capacity:     148.9132249
  energy:            148.8032650

- temperature:      1000.0000000
  free_energy:      -254.1619771
  entropy:           404.4544436
  heat_capacity:     148.9269998
  energy:            150.2924665
