# Thermal properties / unit cell (natom)

unit:
  temperature:   K
  free_energy:   kJ/mol
  entropy:       J/K/mol
  heat_capacity: J/K/mol

natom: 4    
cutoff_frequency: 0.00000
num_modes: 471648
num_integrated_modes: 466895

zero_point_energy:      15.2598845

thermal_properties:
- temperature:         0.0000000
  free_energy:        15.2598845
  entropy:             0.0000000
  heat_capacity:       0.0000000
  energy:             15.2598845

- temperature:        10.0000000
  free_energy:        15.2575162
  entropy:             0.7610032
  heat_capacity:       1.7412316
  energy:             15.2651263

- temperature:        20.0000000
  free_energy:        15.2376857
  entropy:             3.5233162
  heat_capacity:       7.2710354
  energy:             15.3081520

- temperature:        30.0000000
  free_energy:        15.1823297
  entropy:             7.7075825
  heat_capacity:      13.8077479
  energy:             15.4135571

- temperature:        40.0000000
  free_energy:        15.0813992
  entropy:            12.5464414
  heat_capacity:      20.0605456
  energy:             15.5832569

- temperature:        50.0000000
  free_energy:        14.9305170
  entropy:            17.6571294
  heat_capacity:      25.9003148
  energy:             15.8133735

- temperature:        60.0000000
  free_energy:        14.7279213
  entropy:            22.8712699
  heat_capacity:      31.4192355
  energy:             16.1001975

- temperature:        70.0000000
  free_energy:        14.4730015
  entropy:            28.1135458
  heat_capacity:      36.6932517
  energy:             16.4409497

- temperature:        80.0000000
  free_energy:        14.1656874
  entropy:            33.3450824
  heat_capacity:      41.7352804
  energy:             16.8332940

- temperature:        90.0000000
  free_energy:        13.8062237
  entropy:            38.5395777
  heat_capacity:      46.5161453
  energy:             17.2747857

- temperature:       100.0000000
  free_energy:        13.3950924
  entropy:            43.6752032
  heat_capacity:      50.9961106
  energy:             17.7626127

- temperature:       110.0000000
  free_energy:        12.9329797
  entropy:            48.7329261
  heat_capacity:      55.1447297
  energy:             18.2936015

- temperature:       120.0000000
  free_energy:        12.4207474
  entropy:            53.6967211
  heat_capacity:      58.9478504
  energy:             18.8643539

- temperature:       130.0000000
  free_energy:        11.8594009
  entropy:            58.5539189
  heat_capacity:      62.4069241
  energy:             19.4714104

- temperature:       140.0000000
  free_energy:        11.2500556
  entropy:            63.2952383
  heat_capacity:      65.5352240
  energy:             20.1113890

- temperature:       150.0000000
  free_energy:        10.5939033
  entropy:            67.9145210
  heat_capacity:      68.3536157
  energy:             20.7810814

- temperature:       160.0000000
  free_energy:         9.8921838
  entropy:            72.4082958
  heat_capacity:      70.8870005
  energy:             21.4775111

- temperature:       170.0000000
  free_energy:         9.1461602
  entropy:            76.7752888
  heat_capacity:      73.1617173
  energy:             22.1979592

- temperature:       180.0000000
  free_energy:         8.3570992
  entropy:            81.0159499
  heat_capacity:      75.2038213
  energy:             22.9399702

- temperature:       190.0000000
  free_energy:         7.5262565
  entropy:            85.1320338
  heat_capacity:      77.0380450
  energy:             23.7013429

- temperature:       200.0000000
  free_energy:         6.6548649
  entropy:            89.1262486
  heat_capacity:      78.6872412
  energy:             24.4801146

- temperature:       210.0000000
  free_energy:         5.7441266
  entropy:            93.0019705
  heat_capacity:      80.1721475
  energy:             25.2745404

- temperature:       220.0000000
  free_energy:         4.7952077
  entropy:            96.7630199
  heat_capacity:      81.5113526
  energy:             26.0830721

- temperature:       230.0000000
  free_energy:         3.8092348
  entropy:           100.4134881
  heat_capacity:      82.7213800
  energy:             26.9043371

- temperature:       240.0000000
  free_energy:         2.7872925
  entropy:           103.9576063
  heat_capacity:      83.8168365
  energy:             27.7371180

- temperature:       250.0000000
  free_energy:         1.7304229
  entropy:           107.3996481
  heat_capacity:      84.8105883
  energy:             28.5803349

- temperature:       260.0000000
  free_energy:         0.6396256
  entropy:           110.7438576
  heat_capacity:      85.7139448
  energy:             29.4330286

- temperature:       270.0000000
  free_energy:        -0.4841420
  entropy:           113.9943992
  heat_capacity:      86.5368368
  energy:             30.2943458

- temperature:       280.0000000
  free_energy:        -1.6399637
  entropy:           117.1553213
  heat_capacity:      87.2879825
  energy:             31.1635263

- temperature:       290.0000000
  free_energy:        -2.8269628
  entropy:           120.2305332
  heat_capacity:      87.9750383
  energy:             32.0398919

- temperature:       300.0000000
  free_energy:        -4.0443012
  entropy:           123.2237904
  heat_capacity:      88.6047340
  energy:             32.9228360

- temperature:       310.0000000
  free_energy:        -5.2911774
  entropy:           126.1386857
  heat_capacity:      89.1829915
  energy:             33.8118152

- temperature:       320.0000000
  free_energy:        -6.5668251
  entropy:           128.9786465
  heat_capacity:      89.7150290
  energy:             34.7063418

- temperature:       330.0000000
  free_energy:        -7.8705114
  entropy:           131.7469349
  heat_capacity:      90.2054522
  energy:             35.6059771

- temperature:       340.0000000
  free_energy:        -9.2015352
  entropy:           134.4466500
  heat_capacity:      90.6583331
  energy:             36.5103257

- temperature:       350.0000000
  free_energy:       -10.5592257
  entropy:           137.0807324
  heat_capacity:      91.0772780
  energy:             37.4190307

- temperature:       360.0000000
  free_energy:       -11.9429404
  entropy:           139.6519703
  heat_capacity:      91.4654873
  energy:             38.3317689

- temperature:       370.0000000
  free_energy:       -13.3520644
  entropy:           142.1630052
  heat_capacity:      91.8258061
  energy:             39.2482475

- temperature:       380.0000000
  free_energy:       -14.7860082
  entropy:           144.6163388
  heat_capacity:      92.1607686
  energy:             40.1682005

- temperature:       390.0000000
  free_energy:       -16.2442068
  entropy:           147.0143402
  heat_capacity:      92.4726366
  energy:             41.0913859

- temperature:       400.0000000
  free_energy:       -17.7261181
  entropy:           149.3592527
  heat_capacity:      92.7634325
  energy:             42.0175830

- temperature:       410.0000000
  free_energy:       -19.2312219
  entropy:           151.6532008
  heat_capacity:      93.0349681
  energy:             42.9465904

- temperature:       420.0000000
  free_energy:       -20.7590189
  entropy:           153.8981965
  heat_capacity:      93.2888693
  energy:             43.8782236

- temperature:       430.0000000
  free_energy:       -22.3090291
  entropy:           156.0961464
  heat_capacity:      93.5265985
  energy:             44.8123139

- temperature:       440.0000000
  free_energy:       -23.8807911
  entropy:           158.2488572
  heat_capacity:      93.7494728
  energy:             45.7487061

- temperature:       450.0000000
  free_energy:       -25.4738611
  entropy:           160.3580421
  heat_capacity:      93.9586807
  energy:             46.6872578

- temperature:       460.0000000
  free_energy:       -27.0878122
  entropy:           162.4253261
  heat_capacity:      94.1552969
  energy:             47.6278378

- temperature:       470.0000000
  free_energy:       -28.7222331
  entropy:           164.4522514
  heat_capacity:      94.3402942
  energy:             48.5703250

- temperature:       480.0000000
  free_energy:       -30.3767276
  entropy:           166.4402823
  heat_capacity:      94.5145552
  energy:             49.5146079

- temperature:       490.0000000
  free_energy:       -32.0509138
  entropy:           168.3908098
  heat_capacity:      94.6788816
  energy:             50.4605830

- temperature:       500.0000000
  free_energy:       -33.7444232
  entropy:           170.3051561
  heat_capacity:      94.8340029
  energy:             51.4081548

- temperature:       510.0000000
  free_energy:       -35.4569005
  entropy:           172.1845786
  heat_capacity:      94.9805841
  energy:             52.3572346

- temperature:       520.0000000
  free_energy:       -37.1880024
  entropy:           174.0302739
  heat_capacity:      95.1192318
  energy:             53.3077401

- temperature:       530.0000000
  free_energy:       -38.9373973
  entropy:           175.8433811
  heat_capacity:      95.2505008
  energy:             54.2595947

- temperature:       540.0000000
  free_energy:       -40.7047650
  entropy:           177.6249855
  heat_capacity:      95.3748987
  energy:             55.2127272

- temperature:       550.0000000
  free_energy:       -42.4897955
  entropy:           179.3761214
  heat_capacity:      95.4928908
  energy:             56.1670713

- temperature:       560.0000000
  free_energy:       -44.2921892
  entropy:           181.0977754
  heat_capacity:      95.6049043
  energy:             57.1225651

- temperature:       570.0000000
  free_energy:       -46.1116559
  entropy:           182.7908888
  heat_capacity:      95.7113316
  energy:             58.0791507

- temperature:       580.0000000
  free_energy:       -47.9479148
  entropy:           184.4563605
  heat_capacity:      95.8125341
  energy:             59.0367743

- temperature:       590.0000000
  free_energy:       -49.8006938
  entropy:           186.0950490
  heat_capacity:      95.9088444
  energy:             59.9953851

- temperature:       600.0000000
  free_energy:       -51.6697292
  entropy:           187.7077752
  heat_capacity:      96.0005698
  energy:             60.9549359

- temperature:       610.0000000
  free_energy:       -53.5547654
  entropy:           189.2953239
  heat_capacity:      96.0879937
  energy:             61.9153822

- temperature:       620.0000000
  free_energy:       -55.4555543
  entropy:           190.8584461
  heat_capacity:      96.1713783
  energy:             62.8766823

- temperature:       630.0000000
  free_energy:       -57.3718553
  entropy:           192.3978609
  heat_capacity:      96.2509664
  energy:             63.8387971

- temperature:       640.0000000
  free_energy:       -59.3034348
  entropy:           193.9142571
  heat_capacity:      96.3269829
  energy:             64.8016897

- temperature:       650.0000000
  free_energy:       -61.2500659
  entropy:           195.4082946
  heat_capacity:      96.3996365
  energy:             65.7653255

- temperature:       660.0000000
  free_energy:       -63.2115283
  entropy:           196.8806063
  heat_capacity:      96.4691209
  energy:             66.7296719

- temperature:       670.0000000
  free_energy:       -65.1876077
  entropy:           198.3317995
  heat_capacity:      96.5356164
  energy:             67.6946980

- temperature:       680.0000000
  free_energy:       -67.1780958
  entropy:           199.7624568
  heat_capacity:      96.5992906
  energy:             68.6603748

- temperature:       690.0000000
  free_energy:       -69.1827902
  entropy:           201.1731379
  heat_capacity:      96.6602995
  energy:             69.6266749

- temperature:       700.0000000
  free_energy:       -71.2014938
  entropy:           202.5643803
  heat_capacity:      96.7187889
  energy:             70.5935724

- temperature:       710.0000000
  free_energy:       -73.2340147
  entropy:           203.9367007
  heat_capacity:      96.7748944
  energy:             71.5610428

- temperature:       720.0000000
  free_energy:       -75.2801664
  entropy:           205.2905960
  heat_capacity:      96.8287431
  energy:             72.5290628

- temperature:       730.0000000
  free_energy:       -77.3397668
  entropy:           206.6265443
  heat_capacity:      96.8804534
  energy:             73.4976105

- temperature:       740.0000000
  free_energy:       -79.4126390
  entropy:           207.9450055
  heat_capacity:      96.9301365
  energy:             74.4666651

- temperature:       750.0000000
  free_energy:       -81.4986101
  entropy:           209.2464226
  heat_capacity:      96.9778961
  energy:             75.4362068

- temperature:       760.0000000
  free_energy:       -83.5975120
  entropy:           210.5312223
  heat_capacity:      97.0238298
  energy:             76.4062169

- temperature:       770.0000000
  free_energy:       -85.7091806
  entropy:           211.7998158
  heat_capacity:      97.0680287
  energy:             77.3766776

- temperature:       780.0000000
  free_energy:       -87.8334557
  entropy:           213.0525996
  heat_capacity:      97.1105787
  energy:             78.3475720

- temperature:       790.0000000
  free_energy:       -89.9701811
  entropy:           214.2899558
  heat_capacity:      97.1515603
  energy:             79.3188840

- temperature:       800.0000000
  free_energy:       -92.1192046
  entropy:           215.5122535
  heat_capacity:      97.1910492
  energy:             80.2905982

- temperature:       810.0000000
  free_energy:       -94.2803772
  entropy:           216.7198487
  heat_capacity:      97.2291166
  energy:             81.2627002

- temperature:       820.0000000
  free_energy:       -96.4535537
  entropy:           217.9130851
  heat_capacity:      97.2658295
  energy:             82.2351761

- temperature:       830.0000000
  free_energy:       -98.6385921
  entropy:           219.0922948
  heat_capacity:      97.3012512
  energy:             83.2080125

- temperature:       840.0000000
  free_energy:      -100.8353539
  entropy:           220.2577987
  heat_capacity:      97.3354411
  energy:             84.1811970

- temperature:       850.0000000
  free_energy:      -103.0437035
  entropy:           221.4099069
  heat_capacity:      97.3684555
  energy:             85.1547174

- temperature:       860.0000000
  free_energy:      -105.2635084
  entropy:           222.5489194
  heat_capacity:      97.4003473
  energy:             86.1285623

- temperature:       870.0000000
  free_energy:      -107.4946392
  entropy:           223.6751264
  heat_capacity:      97.4311666
  energy:             87.1027208

- temperature:       880.0000000
  free_energy:      -109.7369692
  entropy:           224.7888084
  heat_capacity:      97.4609607
  energy:             88.0771823

- temperature:       890.0000000
  free_energy:      -111.9903745
  entropy:           225.8902373
  heat_capacity:      97.4897745
  energy:             89.0519367

- temperature:       900.0000000
  free_energy:      -114.2547339
  entropy:           226.9796762
  heat_capacity:      97.5176502
  energy:             90.0269746

- temperature:       910.0000000
  free_energy:      -116.5299289
  entropy:           228.0573798
  heat_capacity:      97.5446279
  energy:             91.0022867

- temperature:       920.0000000
  free_energy:      -118.8158432
  entropy:           229.1235952
  heat_capacity:      97.5707457
  energy:             91.9778643

- temperature:       930.0000000
  free_energy:      -121.1123633
  entropy:           230.1785615
  heat_capacity:      97.5960396
  energy:             92.9536989

- temperature:       940.0000000
  free_energy:      -123.4193778
  entropy:           231.2225109
  heat_capacity:      97.6205437
  energy:             93.9297825

- temperature:       950.0000000
  free_energy:      -125.7367776
  entropy:           232.2556682
  heat_capacity:      97.6442904
  energy:             94.9061073

- temperature:       960.0000000
  free_energy:      -128.0644559
  entropy:           233.2782518
  heat_capacity:      97.6673105
  energy:             95.8826659

- temperature:       970.0000000
  free_energy:      -130.4023080
  entropy:           234.2904734
  heat_capacity:      97.6896332
  energy:             96.8594511

- temperature:       980.0000000
  free_energy:      -132.7502315
  entropy:           235.2925385
  heat_capacity:      97.7112863
  energy:             97.8364563

- temperature:       990.0000000
  free_energy:      -135.1081256
  entropy:           236.2846468
  heat_capacity:      97.7322963
  energy:             98.8136747

- temperature:      1000.0000000
  free_energy:      -137.4758919
  entropy:           237.2669920
  heat_capacity:      97.7526881
  energy:             99.7911002
