# Thermal properties / unit cell (natom)

unit:
  temperature:   K
  free_energy:   kJ/mol
  entropy:       J/K/mol
  heat_capacity: J/K/mol

natom: 8    
cutoff_frequency: 0.00000
num_modes: 211200
num_integrated_modes: 204926

zero_point_energy:      31.1418062

thermal_properties:
- temperature:         0.0000000
  free_energy:        31.1418062
  entropy:             0.0000000
  heat_capacity:       0.0000000
  energy:             31.1418062

- temperature:        10.0000000
  free_energy:        31.1348574
  entropy:             2.3518062
  heat_capacity:       5.3635389
  energy:             31.1583755

- temperature:        20.0000000
  free_energy:        31.0769601
  entropy:             9.7921713
  heat_capacity:      17.5512854
  energy:             31.2728035

- temperature:        30.0000000
  free_energy:        30.9339045
  entropy:            18.8671133
  heat_capacity:      27.3274273
  energy:             31.4999179

- temperature:        40.0000000
  free_energy:        30.7002173
  entropy:            27.8151936
  heat_capacity:      35.1599798
  energy:             31.8128251

- temperature:        50.0000000
  free_energy:        30.3784413
  entropy:            36.5186976
  heat_capacity:      43.3074019
  energy:             32.2043762

- temperature:        60.0000000
  free_energy:        29.9698659
  entropy:            45.2115048
  heat_capacity:      52.4989119
  energy:             32.6825562

- temperature:        70.0000000
  free_energy:        29.4737190
  entropy:            54.0478911
  heat_capacity:      62.4983684
  energy:             33.2570714

- temperature:        80.0000000
  free_energy:        28.8882961
  entropy:            63.0655096
  heat_capacity:      72.8041739
  energy:             33.9335369

- temperature:        90.0000000
  free_energy:        28.2119151
  entropy:            72.2302706
  heat_capacity:      82.9601518
  energy:             34.7126395

- temperature:       100.0000000
  free_energy:        27.4434158
  entropy:            81.4773533
  heat_capacity:      92.6439842
  energy:             35.5911512

- temperature:       110.0000000
  free_energy:        26.5823301
  entropy:            90.7360848
  heat_capacity:     101.6652838
  energy:             36.5632994

- temperature:       120.0000000
  free_energy:        25.6288705
  entropy:            99.9422977
  heat_capacity:     109.9356900
  energy:             37.6219462

- temperature:       130.0000000
  free_energy:        24.5838368
  entropy:           109.0431238
  heat_capacity:     117.4364004
  energy:             38.7594429

- temperature:       140.0000000
  free_energy:        23.4484965
  entropy:           117.9977884
  heat_capacity:     124.1916668
  energy:             39.9681868

- temperature:       150.0000000
  free_energy:        22.2244684
  entropy:           126.7765507
  heat_capacity:     130.2497253
  energy:             41.2409510

- temperature:       160.0000000
  free_energy:        20.9136208
  entropy:           135.3589666
  heat_capacity:     135.6701033
  energy:             42.5710554

- temperature:       170.0000000
  free_energy:        19.5179874
  entropy:           143.7320575
  heat_capacity:     140.5156754
  energy:             43.9524372

- temperature:       180.0000000
  free_energy:        18.0397018
  entropy:           151.8886486
  heat_capacity:     144.8479926
  energy:             45.3796585

- temperature:       190.0000000
  free_energy:        16.4809457
  entropy:           159.8259651
  heat_capacity:     148.7247519
  energy:             46.8478791

- temperature:       200.0000000
  free_energy:        14.8439120
  entropy:           167.5444957
  heat_capacity:     152.1986088
  energy:             48.3528111

- temperature:       210.0000000
  free_energy:        13.1307758
  entropy:           175.0470979
  heat_capacity:     155.3168010
  energy:             49.8906663

- temperature:       220.0000000
  free_energy:        11.3436748
  entropy:           182.3383047
  heat_capacity:     158.1212341
  energy:             51.4581019

- temperature:       230.0000000
  free_energy:         9.4846955
  entropy:           189.4237965
  heat_capacity:     160.6488163
  energy:             53.0521687

- temperature:       240.0000000
  free_energy:         7.5558632
  entropy:           196.3100018
  heat_capacity:     162.9319067
  energy:             54.6702637

- temperature:       250.0000000
  free_energy:         5.5591368
  entropy:           203.0037989
  heat_capacity:     164.9988018
  energy:             56.3100866

- temperature:       260.0000000
  free_energy:         3.4964049
  entropy:           209.5122955
  heat_capacity:     166.8742126
  energy:             57.9696018

- temperature:       270.0000000
  free_energy:         1.3694847
  entropy:           215.8426670
  heat_capacity:     168.5797127
  energy:             59.6470047

- temperature:       280.0000000
  free_energy:        -0.8198784
  entropy:           222.0020398
  heat_capacity:     170.1341434
  energy:             61.3406927

- temperature:       290.0000000
  free_energy:        -3.0700095
  entropy:           227.9974092
  heat_capacity:     171.5539750
  energy:             63.0492392

- temperature:       300.0000000
  free_energy:        -5.3793027
  entropy:           233.8355815
  heat_capacity:     172.8536239
  energy:             64.7713718

- temperature:       310.0000000
  free_energy:        -7.7462191
  entropy:           239.5231369
  heat_capacity:     174.0457281
  energy:             66.5059533

- temperature:       320.0000000
  free_energy:       -10.1692845
  entropy:           245.0664047
  heat_capacity:     175.1413863
  energy:             68.2519650

- temperature:       330.0000000
  free_energy:       -12.6470865
  entropy:           250.4714507
  heat_capacity:     176.1503638
  energy:             70.0084923

- temperature:       340.0000000
  free_energy:       -15.1782721
  entropy:           255.7440714
  heat_capacity:     177.0812700
  energy:             71.7747122

- temperature:       350.0000000
  free_energy:       -17.7615449
  entropy:           260.8897937
  heat_capacity:     177.9417108
  energy:             73.5498829

- temperature:       360.0000000
  free_energy:       -20.3956625
  entropy:           265.9138794
  heat_capacity:     178.7384193
  energy:             75.3333340

- temperature:       370.0000000
  free_energy:       -23.0794338
  entropy:           270.8213313
  heat_capacity:     179.4773688
  energy:             77.1244588

- temperature:       380.0000000
  free_energy:       -25.8117162
  entropy:           275.6169024
  heat_capacity:     180.1638693
  energy:             78.9227067

- temperature:       390.0000000
  free_energy:       -28.5914139
  entropy:           280.3051055
  heat_capacity:     180.8026513
  energy:             80.7275772

- temperature:       400.0000000
  free_energy:       -31.4174748
  entropy:           284.8902238
  heat_capacity:     181.3979374
  energy:             82.5386147

- temperature:       410.0000000
  free_energy:       -34.2888884
  entropy:           289.3763218
  heat_capacity:     181.9535047
  energy:             84.3554036

- temperature:       420.0000000
  free_energy:       -37.2046840
  entropy:           293.7672566
  heat_capacity:     182.4727381
  energy:             86.1775638

- temperature:       430.0000000
  free_energy:       -40.1639285
  entropy:           298.0666882
  heat_capacity:     182.9586776
  energy:             88.0047474

- temperature:       440.0000000
  free_energy:       -43.1657244
  entropy:           302.2780906
  heat_capacity:     183.4140579
  energy:             89.8366355

- temperature:       450.0000000
  free_energy:       -46.2092079
  entropy:           306.4047619
  heat_capacity:     183.8413443
  energy:             91.6729349

- temperature:       460.0000000
  free_energy:       -49.2935476
  entropy:           310.4498343
  heat_capacity:     184.2427628
  energy:             93.5133762

- temperature:       470.0000000
  free_energy:       -52.4179425
  entropy:           314.4162835
  heat_capacity:     184.6203270
  energy:             95.3577107

- temperature:       480.0000000
  free_energy:       -55.5816207
  entropy:           318.3069374
  heat_capacity:     184.9758616
  energy:             97.2057093

- temperature:       490.0000000
  free_energy:       -58.7838376
  entropy:           322.1244850
  heat_capacity:     185.3110229
  energy:             99.0571600

- temperature:       500.0000000
  free_energy:       -62.0238752
  entropy:           325.8714842
  heat_capacity:     185.6273168
  energy:            100.9118669

- temperature:       510.0000000
  free_energy:       -65.3010403
  entropy:           329.5503693
  heat_capacity:     185.9261145
  energy:            102.7696481

- temperature:       520.0000000
  free_energy:       -68.6146633
  entropy:           333.1634583
  heat_capacity:     186.2086665
  energy:            104.6303350

- temperature:       530.0000000
  free_energy:       -71.9640975
  entropy:           336.7129595
  heat_capacity:     186.4761152
  energy:            106.4937711

- temperature:       540.0000000
  free_energy:       -75.3487175
  entropy:           340.2009778
  heat_capacity:     186.7295054
  energy:            108.3598105

- temperature:       550.0000000
  free_energy:       -78.7679188
  entropy:           343.6295205
  heat_capacity:     186.9697943
  energy:            110.2283175

- temperature:       560.0000000
  free_energy:       -82.2211161
  entropy:           347.0005031
  heat_capacity:     187.1978600
  energy:            112.0991656

- temperature:       570.0000000
  free_energy:       -85.7077431
  entropy:           350.3157539
  heat_capacity:     187.4145089
  energy:            113.9722367

- temperature:       580.0000000
  free_energy:       -89.2272512
  entropy:           353.5770198
  heat_capacity:     187.6204828
  energy:            115.8474202

- temperature:       590.0000000
  free_energy:       -92.7791091
  entropy:           356.7859697
  heat_capacity:     187.8164648
  energy:            117.7246130

- temperature:       600.0000000
  free_energy:       -96.3628016
  entropy:           359.9441998
  heat_capacity:     188.0030849
  energy:            119.6037183

- temperature:       610.0000000
  free_energy:       -99.9778291
  entropy:           363.0532370
  heat_capacity:     188.1809244
  energy:            121.4846454

- temperature:       620.0000000
  free_energy:      -103.6237072
  entropy:           366.1145428
  heat_capacity:     188.3505209
  energy:            123.3673093

- temperature:       630.0000000
  free_energy:      -107.2999656
  entropy:           369.1295168
  heat_capacity:     188.5123717
  energy:            125.2516301

- temperature:       640.0000000
  free_energy:      -111.0061476
  entropy:           372.0995001
  heat_capacity:     188.6669374
  energy:            127.1375325

- temperature:       650.0000000
  free_energy:      -114.7418099
  entropy:           375.0257782
  heat_capacity:     188.8146454
  energy:            129.0249459

- temperature:       660.0000000
  free_energy:      -118.5065216
  entropy:           377.9095840
  heat_capacity:     188.9558923
  energy:            130.9138039

- temperature:       670.0000000
  free_energy:      -122.2998639
  entropy:           380.7521006
  heat_capacity:     189.0910466
  energy:            132.8040435

- temperature:       680.0000000
  free_energy:      -126.1214298
  entropy:           383.5544638
  heat_capacity:     189.2204511
  energy:            134.6956056

- temperature:       690.0000000
  free_energy:      -129.9708230
  entropy:           386.3177644
  heat_capacity:     189.3444253
  energy:            136.5884344

- temperature:       700.0000000
  free_energy:      -133.8476583
  entropy:           389.0430505
  heat_capacity:     189.4632666
  energy:            138.4824770

- temperature:       710.0000000
  free_energy:      -137.7515607
  entropy:           391.7313299
  heat_capacity:     189.5772526
  energy:            140.3776836

- temperature:       720.0000000
  free_energy:      -141.6821648
  entropy:           394.3835716
  heat_capacity:     189.6866426
  energy:            142.2740068

- temperature:       730.0000000
  free_energy:      -145.6391151
  entropy:           397.0007082
  heat_capacity:     189.7916788
  energy:            144.1714019

- temperature:       740.0000000
  free_energy:      -149.6220650
  entropy:           399.5836372
  heat_capacity:     189.8925878
  energy:            146.0698266

- temperature:       750.0000000
  free_energy:      -153.6306767
  entropy:           402.1332231
  heat_capacity:     189.9895817
  energy:            147.9692406

- temperature:       760.0000000
  free_energy:      -157.6646210
  entropy:           404.6502985
  heat_capacity:     190.0828594
  energy:            149.8696058

- temperature:       770.0000000
  free_energy:      -161.7235770
  entropy:           407.1356662
  heat_capacity:     190.1726071
  energy:            151.7708860

- temperature:       780.0000000
  free_energy:      -165.8072313
  entropy:           409.5901001
  heat_capacity:     190.2589999
  energy:            153.6730468

- temperature:       790.0000000
  free_energy:      -169.9152783
  entropy:           412.0143465
  heat_capacity:     190.3422019
  energy:            155.5760554

- temperature:       800.0000000
  free_energy:      -174.0474200
  entropy:           414.4091259
  heat_capacity:     190.4223675
  energy:            157.4798807

- temperature:       810.0000000
  free_energy:      -178.2033650
  entropy:           416.7751334
  heat_capacity:     190.4996421
  energy:            159.3844931

- temperature:       820.0000000
  free_energy:      -182.3828290
  entropy:           419.1130407
  heat_capacity:     190.5741622
  energy:            161.2898644

- temperature:       830.0000000
  free_energy:      -186.5855343
  entropy:           421.4234962
  heat_capacity:     190.6460566
  energy:            163.1959676

- temperature:       840.0000000
  free_energy:      -190.8112095
  entropy:           423.7071270
  heat_capacity:     190.7154466
  energy:            165.1027772

- temperature:       850.0000000
  free_energy:      -195.0595894
  entropy:           425.9645388
  heat_capacity:     190.7824466
  energy:            167.0102686

- temperature:       860.0000000
  free_energy:      -199.3304148
  entropy:           428.1963178
  heat_capacity:     190.8471648
  energy:            168.9184185

- temperature:       870.0000000
  free_energy:      -203.6234322
  entropy:           430.4030308
  heat_capacity:     190.9097030
  energy:            170.8272046

- temperature:       880.0000000
  free_energy:      -207.9383937
  entropy:           432.5852265
  heat_capacity:     190.9701577
  energy:            172.7366056

- temperature:       890.0000000
  free_energy:      -212.2750568
  entropy:           434.7434359
  heat_capacity:     191.0286201
  energy:            174.6466011

- temperature:       900.0000000
  free_energy:      -216.6331842
  entropy:           436.8781732
  heat_capacity:     191.0851763
  energy:            176.5571716

- temperature:       910.0000000
  free_energy:      -221.0125437
  entropy:           438.9899365
  heat_capacity:     191.1399079
  energy:            178.4682986

- temperature:       920.0000000
  free_energy:      -225.4129080
  entropy:           441.0792086
  heat_capacity:     191.1928925
  energy:            180.3799640

- temperature:       930.0000000
  free_energy:      -229.8340544
  entropy:           443.1464573
  heat_capacity:     191.2442031
  energy:            182.2921508

- temperature:       940.0000000
  free_energy:      -234.2757652
  entropy:           445.1921361
  heat_capacity:     191.2939094
  energy:            184.2048427

- temperature:       950.0000000
  free_energy:      -238.7378267
  entropy:           447.2166849
  heat_capacity:     191.3420773
  energy:            186.1180239

- temperature:       960.0000000
  free_energy:      -243.2200299
  entropy:           449.2205304
  heat_capacity:     191.3887693
  energy:            188.0316793

- temperature:       970.0000000
  free_energy:      -247.7221697
  entropy:           451.2040869
  heat_capacity:     191.4340450
  energy:            189.9457945

- temperature:       980.0000000
  free_energy:      -252.2440453
  entropy:           453.1677562
  heat_capacity:     191.4779609
  energy:            191.8603557

- temperature:       990.0000000
  free_energy:      -256.7854599
  entropy:           455.1119286
  heat_capacity:     191.5205707
  energy:            193.7753494

- temperature:      1000.0000000
  free_energy:      -261.3462202
  entropy:           457.0369831
  heat_capacity:     191.5619255
  energy:            195.6907629
