phonopy:
  version: "2.37.1"
  frequency_unit_conversion_factor: 15.633302
  symmetry_tolerance: 1.00000e-05

space_group:
  type: "P6_3/mmc"
  number: 194
  Hall_symbol: "-P 6c 2c"

primitive_matrix:
- [  1.000000000000000,  0.000000000000000,  0.000000000000000 ]
- [  0.000000000000000,  1.000000000000000,  0.000000000000000 ]
- [  0.000000000000000,  0.000000000000000,  1.000000000000000 ]

supercell_matrix:
- [   4,   0,   0 ]
- [   0,   4,   0 ]
- [   0,   0,   3 ]

primitive_cell:
  lattice:
  - [     3.064754381393217,     0.000000000000000,     0.000000000000000 ] # a
  - [    -1.532377783782452,     2.654154807232271,     0.000000000000000 ] # b
  - [    -0.000000003203965,     0.000000032678413,     4.937694474473481 ] # c
  points:
  - symbol: Li # 1
    coordinates: [  0.333333336398812,  0.666666664550565,  0.749999999322427 ]
    mass: 6.940000
  - symbol: Li # 2
    coordinates: [  0.666666663567481,  0.333333335419975,  0.250000000670945 ]
    mass: 6.940000
  reciprocal_lattice: # without 2pi
  - [     0.326290421859323,     0.188383960180388,    -0.000000001035031 ] # a*
  - [     0.000000000000000,     0.376767774537911,    -0.000000002493506 ] # b*
  - [     0.000000000000000,     0.000000000000000,     0.202523668722260 ] # c*

unit_cell:
  lattice:
  - [     3.064754381393216,     0.000000000000000,     0.000000000000000 ] # a
  - [    -1.532377783782452,     2.654154807232270,     0.000000000000000 ] # b
  - [    -0.000000003203965,     0.000000032678413,     4.937694474473480 ] # c
  points:
  - symbol: Li # 1
    coordinates: [  0.333333336398812,  0.666666664550565,  0.749999999322427 ]
    mass: 6.940000
    reduced_to: 1
  - symbol: Li # 2
    coordinates: [  0.666666663567482,  0.333333335419975,  0.250000000670945 ]
    mass: 6.940000
    reduced_to: 2

supercell:
  lattice:
  - [    12.259017525572864,     0.000000000000000,     0.000000000000000 ] # a
  - [    -6.129511135129808,    10.616619228929082,     0.000000000000000 ] # b
  - [    -0.000000009611894,     0.000000098035238,    14.813083423420439 ] # c
  points:
  - symbol: Li # 1
    coordinates: [  0.083333334099703,  0.166666666137641,  0.249999999774142 ]
    mass: 6.940000
    reduced_to: 1
  - symbol: Li # 2
    coordinates: [  0.333333334099703,  0.166666666137641,  0.249999999774142 ]
    mass: 6.940000
    reduced_to: 1
  - symbol: Li # 3
    coordinates: [  0.583333334099703,  0.166666666137641,  0.249999999774142 ]
    mass: 6.940000
    reduced_to: 1
  - symbol: Li # 4
    coordinates: [  0.833333334099703,  0.166666666137641,  0.249999999774142 ]
    mass: 6.940000
    reduced_to: 1
  - symbol: Li # 5
    coordinates: [  0.083333334099703,  0.416666666137641,  0.249999999774142 ]
    mass: 6.940000
    reduced_to: 1
  - symbol: Li # 6
    coordinates: [  0.333333334099703,  0.416666666137641,  0.249999999774142 ]
    mass: 6.940000
    reduced_to: 1
  - symbol: Li # 7
    coordinates: [  0.583333334099703,  0.416666666137641,  0.249999999774142 ]
    mass: 6.940000
    reduced_to: 1
  - symbol: Li # 8
    coordinates: [  0.833333334099703,  0.416666666137641,  0.249999999774142 ]
    mass: 6.940000
    reduced_to: 1
  - symbol: Li # 9
    coordinates: [  0.083333334099703,  0.666666666137641,  0.249999999774142 ]
    mass: 6.940000
    reduced_to: 1
  - symbol: Li # 10
    coordinates: [  0.333333334099703,  0.666666666137641,  0.249999999774142 ]
    mass: 6.940000
    reduced_to: 1
  - symbol: Li # 11
    coordinates: [  0.583333334099703,  0.666666666137641,  0.249999999774142 ]
    mass: 6.940000
    reduced_to: 1
  - symbol: Li # 12
    coordinates: [  0.833333334099703,  0.666666666137641,  0.249999999774142 ]
    mass: 6.940000
    reduced_to: 1
  - symbol: Li # 13
    coordinates: [  0.083333334099703,  0.916666666137641,  0.249999999774142 ]
    mass: 6.940000
    reduced_to: 1
  - symbol: Li # 14
    coordinates: [  0.333333334099703,  0.916666666137641,  0.249999999774142 ]
    mass: 6.940000
    reduced_to: 1
  - symbol: Li # 15
    coordinates: [  0.583333334099703,  0.916666666137641,  0.249999999774142 ]
    mass: 6.940000
    reduced_to: 1
  - symbol: Li # 16
    coordinates: [  0.833333334099703,  0.916666666137641,  0.249999999774142 ]
    mass: 6.940000
    reduced_to: 1
  - symbol: Li # 17
    coordinates: [  0.083333334099703,  0.166666666137641,  0.583333333107476 ]
    mass: 6.940000
    reduced_to: 1
  - symbol: Li # 18
    coordinates: [  0.333333334099703,  0.166666666137641,  0.583333333107476 ]
    mass: 6.940000
    reduced_to: 1
  - symbol: Li # 19
    coordinates: [  0.583333334099703,  0.166666666137641,  0.583333333107476 ]
    mass: 6.940000
    reduced_to: 1
  - symbol: Li # 20
    coordinates: [  0.833333334099703,  0.166666666137641,  0.583333333107476 ]
    mass: 6.940000
    reduced_to: 1
  - symbol: Li # 21
    coordinates: [  0.083333334099703,  0.416666666137641,  0.583333333107476 ]
    mass: 6.940000
    reduced_to: 1
  - symbol: Li # 22
    coordinates: [  0.333333334099703,  0.416666666137641,  0.583333333107476 ]
    mass: 6.940000
    reduced_to: 1
  - symbol: Li # 23
    coordinates: [  0.583333334099703,  0.416666666137641,  0.583333333107476 ]
    mass: 6.940000
    reduced_to: 1
  - symbol: Li # 24
    coordinates: [  0.833333334099703,  0.416666666137641,  0.583333333107476 ]
    mass: 6.940000
    reduced_to: 1
  - symbol: Li # 25
    coordinates: [  0.083333334099703,  0.666666666137641,  0.583333333107476 ]
    mass: 6.940000
    reduced_to: 1
  - symbol: Li # 26
    coordinates: [  0.333333334099703,  0.666666666137641,  0.583333333107476 ]
    mass: 6.940000
    reduced_to: 1
  - symbol: Li # 27
    coordinates: [  0.583333334099703,  0.666666666137641,  0.583333333107476 ]
    mass: 6.940000
    reduced_to: 1
  - symbol: Li # 28
    coordinates: [  0.833333334099703,  0.666666666137641,  0.583333333107476 ]
    mass: 6.940000
    reduced_to: 1
  - symbol: Li # 29
    coordinates: [  0.083333334099703,  0.916666666137641,  0.583333333107476 ]
    mass: 6.940000
    reduced_to: 1
  - symbol: Li # 30
    coordinates: [  0.333333334099703,  0.916666666137641,  0.583333333107476 ]
    mass: 6.940000
    reduced_to: 1
  - symbol: Li # 31
    coordinates: [  0.583333334099703,  0.916666666137641,  0.583333333107476 ]
    mass: 6.940000
    reduced_to: 1
  - symbol: Li # 32
    coordinates: [  0.833333334099703,  0.916666666137641,  0.583333333107476 ]
    mass: 6.940000
    reduced_to: 1
  - symbol: Li # 33
    coordinates: [  0.083333334099703,  0.166666666137641,  0.916666666440809 ]
    mass: 6.940000
    reduced_to: 1
  - symbol: Li # 34
    coordinates: [  0.333333334099703,  0.166666666137641,  0.916666666440809 ]
    mass: 6.940000
    reduced_to: 1
  - symbol: Li # 35
    coordinates: [  0.583333334099703,  0.166666666137641,  0.916666666440809 ]
    mass: 6.940000
    reduced_to: 1
  - symbol: Li # 36
    coordinates: [  0.833333334099703,  0.166666666137641,  0.916666666440809 ]
    mass: 6.940000
    reduced_to: 1
  - symbol: Li # 37
    coordinates: [  0.083333334099703,  0.416666666137641,  0.916666666440809 ]
    mass: 6.940000
    reduced_to: 1
  - symbol: Li # 38
    coordinates: [  0.333333334099703,  0.416666666137641,  0.916666666440809 ]
    mass: 6.940000
    reduced_to: 1
  - symbol: Li # 39
    coordinates: [  0.583333334099703,  0.416666666137641,  0.916666666440809 ]
    mass: 6.940000
    reduced_to: 1
  - symbol: Li # 40
    coordinates: [  0.833333334099703,  0.416666666137641,  0.916666666440809 ]
    mass: 6.940000
    reduced_to: 1
  - symbol: Li # 41
    coordinates: [  0.083333334099703,  0.666666666137641,  0.916666666440809 ]
    mass: 6.940000
    reduced_to: 1
  - symbol: Li # 42
    coordinates: [  0.333333334099703,  0.666666666137641,  0.916666666440809 ]
    mass: 6.940000
    reduced_to: 1
  - symbol: Li # 43
    coordinates: [  0.583333334099703,  0.666666666137641,  0.916666666440809 ]
    mass: 6.940000
    reduced_to: 1
  - symbol: Li # 44
    coordinates: [  0.833333334099703,  0.666666666137641,  0.916666666440809 ]
    mass: 6.940000
    reduced_to: 1
  - symbol: Li # 45
    coordinates: [  0.083333334099703,  0.916666666137641,  0.916666666440809 ]
    mass: 6.940000
    reduced_to: 1
  - symbol: Li # 46
    coordinates: [  0.333333334099703,  0.916666666137641,  0.916666666440809 ]
    mass: 6.940000
    reduced_to: 1
  - symbol: Li # 47
    coordinates: [  0.583333334099703,  0.916666666137641,  0.916666666440809 ]
    mass: 6.940000
    reduced_to: 1
  - symbol: Li # 48
    coordinates: [  0.833333334099703,  0.916666666137641,  0.916666666440809 ]
    mass: 6.940000
    reduced_to: 1
  - symbol: Li # 49
    coordinates: [  0.166666665891870,  0.083333333854994,  0.083333333556982 ]
    mass: 6.940000
    reduced_to: 49
  - symbol: Li # 50
    coordinates: [  0.416666665891870,  0.083333333854994,  0.083333333556982 ]
    mass: 6.940000
    reduced_to: 49
  - symbol: Li # 51
    coordinates: [  0.666666665891870,  0.083333333854994,  0.083333333556982 ]
    mass: 6.940000
    reduced_to: 49
  - symbol: Li # 52
    coordinates: [  0.916666665891870,  0.083333333854994,  0.083333333556982 ]
    mass: 6.940000
    reduced_to: 49
  - symbol: Li # 53
    coordinates: [  0.166666665891870,  0.333333333854994,  0.083333333556982 ]
    mass: 6.940000
    reduced_to: 49
  - symbol: Li # 54
    coordinates: [  0.416666665891870,  0.333333333854994,  0.083333333556982 ]
    mass: 6.940000
    reduced_to: 49
  - symbol: Li # 55
    coordinates: [  0.666666665891870,  0.333333333854994,  0.083333333556982 ]
    mass: 6.940000
    reduced_to: 49
  - symbol: Li # 56
    coordinates: [  0.916666665891870,  0.333333333854994,  0.083333333556982 ]
    mass: 6.940000
    reduced_to: 49
  - symbol: Li # 57
    coordinates: [  0.166666665891870,  0.583333333854994,  0.083333333556982 ]
    mass: 6.940000
    reduced_to: 49
  - symbol: Li # 58
    coordinates: [  0.416666665891870,  0.583333333854994,  0.083333333556982 ]
    mass: 6.940000
    reduced_to: 49
  - symbol: Li # 59
    coordinates: [  0.666666665891870,  0.583333333854994,  0.083333333556982 ]
    mass: 6.940000
    reduced_to: 49
  - symbol: Li # 60
    coordinates: [  0.916666665891870,  0.583333333854994,  0.083333333556982 ]
    mass: 6.940000
    reduced_to: 49
  - symbol: Li # 61
    coordinates: [  0.166666665891870,  0.833333333854994,  0.083333333556982 ]
    mass: 6.940000
    reduced_to: 49
  - symbol: Li # 62
    coordinates: [  0.416666665891870,  0.833333333854994,  0.083333333556982 ]
    mass: 6.940000
    reduced_to: 49
  - symbol: Li # 63
    coordinates: [  0.666666665891870,  0.833333333854994,  0.083333333556982 ]
    mass: 6.940000
    reduced_to: 49
  - symbol: Li # 64
    coordinates: [  0.916666665891870,  0.833333333854994,  0.083333333556982 ]
    mass: 6.940000
    reduced_to: 49
  - symbol: Li # 65
    coordinates: [  0.166666665891870,  0.083333333854994,  0.416666666890315 ]
    mass: 6.940000
    reduced_to: 49
  - symbol: Li # 66
    coordinates: [  0.416666665891870,  0.083333333854994,  0.416666666890315 ]
    mass: 6.940000
    reduced_to: 49
  - symbol: Li # 67
    coordinates: [  0.666666665891870,  0.083333333854994,  0.416666666890315 ]
    mass: 6.940000
    reduced_to: 49
  - symbol: Li # 68
    coordinates: [  0.916666665891870,  0.083333333854994,  0.416666666890315 ]
    mass: 6.940000
    reduced_to: 49
  - symbol: Li # 69
    coordinates: [  0.166666665891870,  0.333333333854994,  0.416666666890315 ]
    mass: 6.940000
    reduced_to: 49
  - symbol: Li # 70
    coordinates: [  0.416666665891870,  0.333333333854994,  0.416666666890315 ]
    mass: 6.940000
    reduced_to: 49
  - symbol: Li # 71
    coordinates: [  0.666666665891870,  0.333333333854994,  0.416666666890315 ]
    mass: 6.940000
    reduced_to: 49
  - symbol: Li # 72
    coordinates: [  0.916666665891870,  0.333333333854994,  0.416666666890315 ]
    mass: 6.940000
    reduced_to: 49
  - symbol: Li # 73
    coordinates: [  0.166666665891870,  0.583333333854994,  0.416666666890315 ]
    mass: 6.940000
    reduced_to: 49
  - symbol: Li # 74
    coordinates: [  0.416666665891870,  0.583333333854994,  0.416666666890315 ]
    mass: 6.940000
    reduced_to: 49
  - symbol: Li # 75
    coordinates: [  0.666666665891870,  0.583333333854994,  0.416666666890315 ]
    mass: 6.940000
    reduced_to: 49
  - symbol: Li # 76
    coordinates: [  0.916666665891870,  0.583333333854994,  0.416666666890315 ]
    mass: 6.940000
    reduced_to: 49
  - symbol: Li # 77
    coordinates: [  0.166666665891870,  0.833333333854994,  0.416666666890315 ]
    mass: 6.940000
    reduced_to: 49
  - symbol: Li # 78
    coordinates: [  0.416666665891870,  0.833333333854994,  0.416666666890315 ]
    mass: 6.940000
    reduced_to: 49
  - symbol: Li # 79
    coordinates: [  0.666666665891870,  0.833333333854994,  0.416666666890315 ]
    mass: 6.940000
    reduced_to: 49
  - symbol: Li # 80
    coordinates: [  0.916666665891870,  0.833333333854994,  0.416666666890315 ]
    mass: 6.940000
    reduced_to: 49
  - symbol: Li # 81
    coordinates: [  0.166666665891870,  0.083333333854994,  0.750000000223648 ]
    mass: 6.940000
    reduced_to: 49
  - symbol: Li # 82
    coordinates: [  0.416666665891870,  0.083333333854994,  0.750000000223648 ]
    mass: 6.940000
    reduced_to: 49
  - symbol: Li # 83
    coordinates: [  0.666666665891870,  0.083333333854994,  0.750000000223648 ]
    mass: 6.940000
    reduced_to: 49
  - symbol: Li # 84
    coordinates: [  0.916666665891870,  0.083333333854994,  0.750000000223648 ]
    mass: 6.940000
    reduced_to: 49
  - symbol: Li # 85
    coordinates: [  0.166666665891870,  0.333333333854994,  0.750000000223648 ]
    mass: 6.940000
    reduced_to: 49
  - symbol: Li # 86
    coordinates: [  0.416666665891870,  0.333333333854994,  0.750000000223648 ]
    mass: 6.940000
    reduced_to: 49
  - symbol: Li # 87
    coordinates: [  0.666666665891870,  0.333333333854994,  0.750000000223648 ]
    mass: 6.940000
    reduced_to: 49
  - symbol: Li # 88
    coordinates: [  0.916666665891870,  0.333333333854994,  0.750000000223648 ]
    mass: 6.940000
    reduced_to: 49
  - symbol: Li # 89
    coordinates: [  0.166666665891870,  0.583333333854994,  0.750000000223648 ]
    mass: 6.940000
    reduced_to: 49
  - symbol: Li # 90
    coordinates: [  0.416666665891870,  0.583333333854994,  0.750000000223648 ]
    mass: 6.940000
    reduced_to: 49
  - symbol: Li # 91
    coordinates: [  0.666666665891870,  0.583333333854994,  0.750000000223648 ]
    mass: 6.940000
    reduced_to: 49
  - symbol: Li # 92
    coordinates: [  0.916666665891870,  0.583333333854994,  0.750000000223648 ]
    mass: 6.940000
    reduced_to: 49
  - symbol: Li # 93
    coordinates: [  0.166666665891870,  0.833333333854994,  0.750000000223648 ]
    mass: 6.940000
    reduced_to: 49
  - symbol: Li # 94
    coordinates: [  0.416666665891870,  0.833333333854994,  0.750000000223648 ]
    mass: 6.940000
    reduced_to: 49
  - symbol: Li # 95
    coordinates: [  0.666666665891870,  0.833333333854994,  0.750000000223648 ]
    mass: 6.940000
    reduced_to: 49
  - symbol: Li # 96
    coordinates: [  0.916666665891870,  0.833333333854994,  0.750000000223648 ]
    mass: 6.940000
    reduced_to: 49

displacements:
- atom:    1
  displacement:
    [   0.0063756505925293,  0.0000000000509860,  0.0077039651817736 ]
  forces:
  - [  -0.0072329994291067,  0.0000066459178925, -0.0088156517595053 ]
  - [   0.0022644186392426, -0.0000060228630900, -0.0001059071946656 ]
  - [   0.0000333837015205, -0.0000001331791282, -0.0000398156116717 ]
  - [   0.0022355301771313,  0.0000055516138673, -0.0000943019986153 ]
  - [   0.0004939269274473, -0.0010202806442976, -0.0000973129644990 ]
  - [   0.0004895515739918,  0.0010209912434220, -0.0001028087135637 ]
  - [  -0.0000192020088434, -0.0000218590721488, -0.0000007338348951 ]
  - [  -0.0000189372294699,  0.0000226106494665, -0.0000009275972843 ]
  - [  -0.0000094538554549, -0.0000253198668361, -0.0000398466363549 ]
  - [   0.0000195251777768, -0.0000002568122000, -0.0000008498172974 ]
  - [  -0.0000091195106506,  0.0000242424430326, -0.0000398072370444 ]
  - [   0.0000197244626179, -0.0000006249174476, -0.0000008121132851 ]
  - [   0.0004888437688351, -0.0010088016279042, -0.0001030876810546 ]
  - [  -0.0000190157443285,  0.0000219899229705, -0.0000007627531886 ]
  - [  -0.0000191060826182, -0.0000224863179028, -0.0000009063805919 ]
  - [   0.0004948293790221,  0.0010094931349158, -0.0000969900866039 ]
  - [  -0.0000005010410860, -0.0000001343432814, -0.0003162855864502 ]
  - [  -0.0000137649267344, -0.0000089412787929, -0.0000213509192690 ]
  - [   0.0000208704332181, -0.0000077962758951,  0.0000167266698554 ]
  - [  -0.0000011420736428, -0.0000017187558115, -0.0000108648091555 ]
  - [   0.0000086463987827, -0.0000016326084733, -0.0000174827873707 ]
  - [  -0.0000065788626671, -0.0000046314671636, -0.0000150001724251 ]
  - [   0.0000030146911740,  0.0000017648562789, -0.0000001085281838 ]
  - [  -0.0000024402179406,  0.0000010989606380,  0.0000007087364793 ]
  - [   0.0000074952840805, -0.0000079525634646,  0.0000111181288958 ]
  - [  -0.0000004833564162, -0.0000005695619620,  0.0000003893546818 ]
  - [  -0.0000058449804783,  0.0000155239831656,  0.0000224180403166 ]
  - [  -0.0000001889960117, -0.0000034533441067,  0.0000003855675459 ]
  - [   0.0000024344772100,  0.0000162874348462, -0.0000227626369451 ]
  - [  -0.0000002700835466, -0.0000003348104656,  0.0000023311004043 ]
  - [   0.0000007357448339,  0.0000004749745131, -0.0000025611952879 ]
  - [  -0.0000002579763532, -0.0000006910413504, -0.0000100828547147 ]
  - [  -0.0000013252615645, -0.0000001939479262, -0.0002870346943382 ]
  - [  -0.0000012852042346,  0.0000022010644898, -0.0000111606423161 ]
  - [   0.0000206441218324,  0.0000080074660218,  0.0000166519312188 ]
  - [  -0.0000134859028549,  0.0000094682909548, -0.0000211894512177 ]
  - [  -0.0000071339309216,  0.0000034561380744, -0.0000145193189383 ]
  - [   0.0000093206763268,  0.0000009182840586, -0.0000177617475856 ]
  - [  -0.0000030128285289, -0.0000016121193767,  0.0000007093403838 ]
  - [   0.0000036819692468, -0.0000023869797587,  0.0000003064051270 ]
  - [  -0.0000061979517341, -0.0000156615860760,  0.0000222092494369 ]
  - [  -0.0000004088506103,  0.0000004258472472,  0.0000004518515198 ]
  - [   0.0000077821314335,  0.0000074775307439,  0.0000109807442641 ]
  - [  -0.0000002750015256,  0.0000034715048969,  0.0000005383044481 ]
  - [  -0.0000010933727026,  0.0000001057051122, -0.0000092737100204 ]
  - [   0.0000007767230272, -0.0000008726492524, -0.0000016000121832 ]
  - [  -0.0000000465661287,  0.0000000796280801,  0.0000033484975575 ]
  - [   0.0000031441450119, -0.0000170976854861, -0.0000224898503802 ]
  - [  -0.0007228762842715,  0.0003568995743990,  0.0008465199498460 ]
  - [   0.0000029974617064,  0.0000146008032971,  0.0000289333984256 ]
  - [  -0.0000558658502996, -0.0000129961472339, -0.0000196060209419 ]
  - [   0.0017832522280514,  0.0010865931399167,  0.0028987312689424 ]
  - [  -0.0001016273163259, -0.0014475574716926,  0.0018779546953738 ]
  - [   0.0000754371285439, -0.0000089313834906,  0.0001112752361223 ]
  - [   0.0000015776395230, -0.0000034626573324,  0.0000007436028682 ]
  - [  -0.0006764219142497,  0.0004424713551998, -0.0005098669789732 ]
  - [  -0.0000116284936666,  0.0000286715803668, -0.0000080238460214 ]
  - [   0.0000188248232007,  0.0000213808380067,  0.0000171861611307 ]
  - [  -0.0000050151720643,  0.0000033820979297, -0.0000014756224118 ]
  - [   0.0000010142102838, -0.0000003302702680,  0.0000034545591916 ]
  - [  -0.0000062501267166, -0.0000078297616710,  0.0000161055359058 ]
  - [   0.0000094696879387,  0.0000003909646011,  0.0000006606569514 ]
  - [  -0.0000343713909388, -0.0000426608748967, -0.0000070954556577 ]
  - [   0.0000907067151275, -0.0004324200563133, -0.0001991247409023 ]
  - [   0.0018223267979920, -0.0011184220202267,  0.0029694046825171 ]
  - [  -0.0000558309257030,  0.0000133737985379, -0.0000193731975742 ]
  - [   0.0000021546147764, -0.0000144559826367,  0.0000289922754746 ]
  - [  -0.0007253228686750, -0.0003559277392924,  0.0008390832226723 ]
  - [  -0.0001118155196309,  0.0014703422784805,  0.0018987394869328 ]
  - [  -0.0006712842732668, -0.0004408201202750, -0.0005044906865805 ]
  - [   0.0000013750559447,  0.0000034347176552,  0.0000012253876776 ]
  - [   0.0000734794884920,  0.0000103833153844,  0.0001128085132223 ]
  - [   0.0000189170241356, -0.0000212452141568,  0.0000174948945642 ]
  - [  -0.0000115120783448, -0.0000284956768155, -0.0000078334705904 ]
  - [   0.0000008298084140, -0.0000000684522092,  0.0000034241238609 ]
  - [  -0.0000050514936447, -0.0000036273268051, -0.0000015004770830 ]
  - [  -0.0000344831933035,  0.0000437937414972, -0.0000065813073888 ]
  - [   0.0000096242874861,  0.0000004037120789,  0.0000008329661796 ]
  - [  -0.0000065965577960,  0.0000083364266175,  0.0000164530356415 ]
  - [   0.0000919377780519,  0.0004317080602050, -0.0001960679655895 ]
  - [  -0.0000003804452717, -0.0000004209578037,  0.0000106404186226 ]
  - [  -0.0000002463348210,  0.0000009974464774, -0.0000005340189091 ]
  - [  -0.0000006542541087,  0.0000002095475793, -0.0000005857145879 ]
  - [   0.0000007222406566,  0.0000013923335018,  0.0000104796563392 ]
  - [  -0.0000014067627490,  0.0000000139698386,  0.0000105434446596 ]
  - [   0.0000009080395103, -0.0000000344589353,  0.0000012513482943 ]
  - [  -0.0000005867750588,  0.0000000651925802, -0.0000022177373467 ]
  - [   0.0000004675239325,  0.0000008596107364,  0.0000012130731193 ]
  - [  -0.0000002207234502,  0.0000002562301233, -0.0000006032460078 ]
  - [  -0.0000000391155481,  0.0000005410984159, -0.0000005262882041 ]
  - [  -0.0000005895271897,  0.0000000540167093, -0.0000020977749955 ]
  - [  -0.0000004125759006,  0.0000006612390280, -0.0000022492858989 ]
  - [  -0.0000007232138159, -0.0000003098393790, -0.0000005770161806 ]
  - [  -0.0000007934868336, -0.0000005961046554, -0.0000015974364942 ]
  - [  -0.0000007227063179, -0.0000009666546248, -0.0000005359543138 ]
  - [   0.0000019459776013, -0.0000004596076906,  0.0000012075070117 ]

force_constants:
  format: "full"
  shape: [ 96, 96 ]
  elements:
  - # (1, 1)
    - [     1.134472280816010,     0.000000003582818,     0.000000000004676 ]
    - [     0.000000003582818,     1.134472287094486,    -0.000000000083195 ]
    - [     0.000000000004676,    -0.000000000083195,     1.144300595031865 ]
  - # (1, 2)
    - [    -0.352883263956693,     0.000903180218625,    -0.000000000115001 ]
    - [    -0.000903296316397,     0.014768629774947,    -0.000000000099335 ]
    - [     0.000000000698230,    -0.000000000031006,     0.012989192778090 ]
  - # (1, 3)
    - [    -0.005249378245422,     0.000000000010611,    -0.000000000011504 ]
    - [    -0.000000001695217,     0.003700574148034,    -0.000000000045577 ]
    - [    -0.000000000266370,    -0.000000000442205,     0.005169200889415 ]
  - # (1, 4)
    - [    -0.352883334027607,    -0.000903255124136,    -0.000000000099099 ]
    - [     0.000903098220559,     0.014768628507810,    -0.000000000079039 ]
    - [    -0.000000001213292,    -0.000000000140360,     0.012989192774921 ]
  - # (1, 5)
    - [    -0.077144365608666,     0.160101146768999,    -0.000000000566308 ]
    - [     0.158294793856074,    -0.260970340462123,     0.000000000902389 ]
    - [    -0.000000001638545,     0.000000002750794,     0.012989192746706 ]
  - # (1, 6)
    - [    -0.077144331410098,    -0.160101162352291,     0.000000000511483 ]
    - [    -0.158294766826117,    -0.260970447181151,     0.000000000798862 ]
    - [     0.000000001535277,     0.000000002550308,     0.012989192721957 ]
  - # (1, 7)
    - [     0.002985655500909,     0.003495662093151,     0.000000000010955 ]
    - [     0.003495664506677,    -0.001050784033847,    -0.000000000013318 ]
    - [     0.000000000445240,    -0.000000000039872,     0.000108030688729 ]
  - # (1, 8)
    - [     0.002985654710221,    -0.003495657643645,     0.000000000029804 ]
    - [    -0.003495657196754,    -0.001050783487967,    -0.000000000061129 ]
    - [    -0.000000000193965,     0.000000000281694,     0.000108030699255 ]
  - # (1, 9)
    - [     0.001463081615301,     0.003875443162939,     0.000000000001034 ]
    - [     0.003875445163612,    -0.003011886377985,    -0.000000000069396 ]
    - [    -0.000000000003853,    -0.000000000097767,     0.005169200887954 ]
  - # (1, 10)
    - [    -0.003069007252093,     0.000000001096029,     0.000000000006115 ]
    - [     0.000000003320431,     0.005003880516335,    -0.000000000093906 ]
    - [     0.000000000006377,    -0.000000000134716,     0.000108030712108 ]
  - # (1, 11)
    - [     0.001463082415388,    -0.003875441430494,     0.000000000007281 ]
    - [    -0.003875439616137,    -0.003011886824024,    -0.000000000082452 ]
    - [     0.000000000005538,    -0.000000000093197,     0.005169200913092 ]
  - # (1, 12)
    - [    -0.003069007717254,     0.000000001973134,    -0.000000000003182 ]
    - [     0.000000002155768,     0.005003880374088,    -0.000000000098505 ]
    - [    -0.000000000056861,    -0.000000000245669,     0.000108030752363 ]
  - # (1, 13)
    - [    -0.077144365714613,     0.158294711961614,    -0.000000000574859 ]
    - [     0.160101188732017,    -0.260970269837627,     0.000000000893388 ]
    - [    -0.000000001597939,     0.000000002649425,     0.012989192739356 ]
  - # (1, 14)
    - [     0.002985656224418,    -0.003495656664234,     0.000000000074606 ]
    - [    -0.003495656692779,    -0.001050783309432,    -0.000000000001165 ]
    - [     0.000000000060976,    -0.000000000036522,     0.000108030721646 ]
  - # (1, 15)
    - [     0.002985653796264,     0.003495660902656,    -0.000000000059162 ]
    - [     0.003495663388600,    -0.001050782155818,    -0.000000000008158 ]
    - [    -0.000000000042703,    -0.000000000032726,     0.000108030696499 ]
  - # (1, 16)
    - [    -0.077144330192586,    -0.158294725914162,     0.000000000531036 ]
    - [    -0.160101202714439,    -0.260970447637070,     0.000000000790556 ]
    - [     0.000000001557800,     0.000000002544459,     0.012989192739409 ]
  - # (1, 17)
    - [     0.000143137304274,     0.000000003597823,     0.000000000017300 ]
    - [     0.000000003574294,     0.000143143527114,    -0.000000000085951 ]
    - [     0.000000000002605,     0.000000000093297,     0.039156501288997 ]
  - # (1, 18)
    - [     0.001169897530149,     0.000563799648602,     0.000803619862091 ]
    - [    -0.000563795234722,    -0.000615963828151,    -0.000718900651971 ]
    - [     0.000803619951938,     0.000718900631977,     0.002097849170580 ]
  - # (1, 19)
    - [    -0.003268163882757,    -0.000000000057132,    -0.000000000075197 ]
    - [    -0.000000000867445,     0.000928414452095,    -0.001022109328016 ]
    - [    -0.000000000055944,     0.001022109194744,    -0.002165630910031 ]
  - # (1, 20)
    - [     0.001169895783118,    -0.000563797000539,    -0.000803620082624 ]
    - [     0.000563798436439,    -0.000615962064844,    -0.000718900967022 ]
    - [    -0.000803620075232,     0.000718900477592,     0.002097849185401 ]
  - # (1, 21)
    - [    -0.000169498039081,    -0.000209502352921,     0.000220776209749 ]
    - [    -0.001337097771123,     0.000723432248114,     0.001055405889220 ]
    - [    -0.001024396244086,     0.000336504892684,     0.002097849183108 ]
  - # (1, 22)
    - [    -0.000169500038998,     0.000209504139133,    -0.000220776186265 ]
    - [     0.001337101352874,     0.000723432508047,     0.001055405770247 ]
    - [     0.001024396163360,     0.000336505082092,     0.002097849198167 ]
  - # (1, 23)
    - [    -0.000049204044063,    -0.000060553386346,     0.000052457768988 ]
    - [    -0.000060552983965,     0.000020718640892,     0.000030286484436 ]
    - [    -0.000388519537394,    -0.000224311980504,    -0.000052973104743 ]
  - # (1, 24)
    - [    -0.000049206772696,     0.000060557543214,    -0.000052457815022 ]
    - [     0.000060558313489,     0.000020720812538,     0.000030286506127 ]
    - [     0.000388519567090,    -0.000224311831300,    -0.000052973118987 ]
  - # (1, 25)
    - [    -0.000120734615942,     0.001817172061214,     0.000885172544291 ]
    - [     0.001817173636720,    -0.002219015936365,     0.000511054772054 ]
    - [    -0.000885172543877,    -0.000511054770119,    -0.002165630924485 ]
  - # (1, 26)
    - [     0.000055680824455,     0.000000000705912,    -0.000000000030730 ]
    - [     0.000000002899044,    -0.000084164784701,    -0.000448623864714 ]
    - [    -0.000000000022287,     0.000060572956808,    -0.000052973120134 ]
  - # (1, 27)
    - [    -0.000120734299192,    -0.001817169870944,    -0.000885172530300 ]
    - [    -0.001817169011655,    -0.002219015020175,     0.000511054394580 ]
    - [     0.000885172692996,    -0.000511054571075,    -0.002165630928804 ]
  - # (1, 28)
    - [     0.000055678071265,     0.000000002873847,     0.000000000022661 ]
    - [     0.000000003144004,    -0.000084162513142,    -0.000060573051509 ]
    - [    -0.000000000039137,     0.000448623677635,    -0.000052973135377 ]
  - # (1, 29)
    - [    -0.000169501254370,    -0.001337098720406,     0.001024396276258 ]
    - [    -0.000209503969447,     0.000723433775774,    -0.000336504778377 ]
    - [    -0.000220776032390,    -0.001055405788719,     0.002097849204571 ]
  - # (1, 30)
    - [    -0.000049205705239,     0.000060558515796,    -0.000388519609450 ]
    - [     0.000060559349221,     0.000020721423408,     0.000224311739091 ]
    - [     0.000052457818979,    -0.000030286636719,    -0.000052973127516 ]
  - # (1, 31)
    - [    -0.000049206937263,    -0.000060554768840,     0.000388519620066 ]
    - [    -0.000060553607422,     0.000020720573788,     0.000224311941912 ]
    - [    -0.000052457746605,    -0.000030286629453,    -0.000052973111613 ]
  - # (1, 32)