phonopy:
  version: "2.37.1"
  frequency_unit_conversion_factor: 15.633302
  symmetry_tolerance: 1.00000e-05

space_group:
  type: "P6_3/mmc"
  number: 194
  Hall_symbol: "-P 6c 2c"

primitive_matrix:
- [  1.000000000000000,  0.000000000000000,  0.000000000000000 ]
- [  0.000000000000000,  1.000000000000000,  0.000000000000000 ]
- [  0.000000000000000,  0.000000000000000,  1.000000000000000 ]

supercell_matrix:
- [   4,   0,   0 ]
- [   0,   4,   0 ]
- [   0,   0,   3 ]

primitive_cell:
  lattice:
  - [     3.065502107101530,     0.000000000000000,     0.000000000000000 ] # a
  - [    -1.532751551478264,     2.654802430297555,     0.000000000000000 ] # b
  - [    -0.000000021102225,     0.000000007126567,     4.954078627622430 ] # c
  points:
  - symbol: Li # 1
    coordinates: [  0.333333337858792,  0.666666663839401,  0.749999998049814 ]
    mass: 6.940000
  - symbol: Li # 2
    coordinates: [  0.666666662113335,  0.333333336136001,  0.250000001944095 ]
    mass: 6.940000
  reciprocal_lattice: # without 2pi
  - [     0.326210834330664,     0.188337993337344,     0.000000001118588 ] # a*
  - [     0.000000000000000,     0.376675864308260,    -0.000000000541858 ] # b*
  - [     0.000000000000000,     0.000000000000000,     0.201853881451196 ] # c*

unit_cell:
  lattice:
  - [     3.065502107101530,     0.000000000000000,     0.000000000000000 ] # a
  - [    -1.532751551478264,     2.654802430297555,     0.000000000000000 ] # b
  - [    -0.000000021102225,     0.000000007126567,     4.954078627622430 ] # c
  points:
  - symbol: Li # 1
    coordinates: [  0.333333337858792,  0.666666663839401,  0.749999998049814 ]
    mass: 6.940000
    reduced_to: 1
  - symbol: Li # 2
    coordinates: [  0.666666662113335,  0.333333336136001,  0.250000001944095 ]
    mass: 6.940000
    reduced_to: 2

supercell:
  lattice:
  - [    12.262008428406121,     0.000000000000000,     0.000000000000000 ] # a
  - [    -6.131006205913056,    10.619209721190218,     0.000000000000000 ] # b
  - [    -0.000000063306674,     0.000000021379702,    14.862235882867292 ] # c
  points:
  - symbol: Li # 1
    coordinates: [  0.083333334464698,  0.166666665959850,  0.249999999349938 ]
    mass: 6.940000
    reduced_to: 1
  - symbol: Li # 2
    coordinates: [  0.333333334464698,  0.166666665959850,  0.249999999349938 ]
    mass: 6.940000
    reduced_to: 1
  - symbol: Li # 3
    coordinates: [  0.583333334464698,  0.166666665959850,  0.249999999349938 ]
    mass: 6.940000
    reduced_to: 1
  - symbol: Li # 4
    coordinates: [  0.833333334464698,  0.166666665959850,  0.249999999349938 ]
    mass: 6.940000
    reduced_to: 1
  - symbol: Li # 5
    coordinates: [  0.083333334464698,  0.416666665959850,  0.249999999349938 ]
    mass: 6.940000
    reduced_to: 1
  - symbol: Li # 6
    coordinates: [  0.333333334464698,  0.416666665959850,  0.249999999349938 ]
    mass: 6.940000
    reduced_to: 1
  - symbol: Li # 7
    coordinates: [  0.583333334464698,  0.416666665959850,  0.249999999349938 ]
    mass: 6.940000
    reduced_to: 1
  - symbol: Li # 8
    coordinates: [  0.833333334464698,  0.416666665959850,  0.249999999349938 ]
    mass: 6.940000
    reduced_to: 1
  - symbol: Li # 9
    coordinates: [  0.083333334464698,  0.666666665959850,  0.249999999349938 ]
    mass: 6.940000
    reduced_to: 1
  - symbol: Li # 10
    coordinates: [  0.333333334464698,  0.666666665959850,  0.249999999349938 ]
    mass: 6.940000
    reduced_to: 1
  - symbol: Li # 11
    coordinates: [  0.583333334464698,  0.666666665959850,  0.249999999349938 ]
    mass: 6.940000
    reduced_to: 1
  - symbol: Li # 12
    coordinates: [  0.833333334464698,  0.666666665959850,  0.249999999349938 ]
    mass: 6.940000
    reduced_to: 1
  - symbol: Li # 13
    coordinates: [  0.083333334464698,  0.916666665959850,  0.249999999349938 ]
    mass: 6.940000
    reduced_to: 1
  - symbol: Li # 14
    coordinates: [  0.333333334464698,  0.916666665959850,  0.249999999349938 ]
    mass: 6.940000
    reduced_to: 1
  - symbol: Li # 15
    coordinates: [  0.583333334464698,  0.916666665959850,  0.249999999349938 ]
    mass: 6.940000
    reduced_to: 1
  - symbol: Li # 16
    coordinates: [  0.833333334464698,  0.916666665959850,  0.249999999349938 ]
    mass: 6.940000
    reduced_to: 1
  - symbol: Li # 17
    coordinates: [  0.083333334464698,  0.166666665959850,  0.583333332683271 ]
    mass: 6.940000
    reduced_to: 1
  - symbol: Li # 18
    coordinates: [  0.333333334464698,  0.166666665959850,  0.583333332683271 ]
    mass: 6.940000
    reduced_to: 1
  - symbol: Li # 19
    coordinates: [  0.583333334464698,  0.166666665959850,  0.583333332683271 ]
    mass: 6.940000
    reduced_to: 1
  - symbol: Li # 20
    coordinates: [  0.833333334464698,  0.166666665959850,  0.583333332683271 ]
    mass: 6.940000
    reduced_to: 1
  - symbol: Li # 21
    coordinates: [  0.083333334464698,  0.416666665959850,  0.583333332683271 ]
    mass: 6.940000
    reduced_to: 1
  - symbol: Li # 22
    coordinates: [  0.333333334464698,  0.416666665959850,  0.583333332683271 ]
    mass: 6.940000
    reduced_to: 1
  - symbol: Li # 23
    coordinates: [  0.583333334464698,  0.416666665959850,  0.583333332683271 ]
    mass: 6.940000
    reduced_to: 1
  - symbol: Li # 24
    coordinates: [  0.833333334464698,  0.416666665959850,  0.583333332683271 ]
    mass: 6.940000
    reduced_to: 1
  - symbol: Li # 25
    coordinates: [  0.083333334464698,  0.666666665959850,  0.583333332683271 ]
    mass: 6.940000
    reduced_to: 1
  - symbol: Li # 26
    coordinates: [  0.333333334464698,  0.666666665959850,  0.583333332683271 ]
    mass: 6.940000
    reduced_to: 1
  - symbol: Li # 27
    coordinates: [  0.583333334464698,  0.666666665959850,  0.583333332683271 ]
    mass: 6.940000
    reduced_to: 1
  - symbol: Li # 28
    coordinates: [  0.833333334464698,  0.666666665959850,  0.583333332683271 ]
    mass: 6.940000
    reduced_to: 1
  - symbol: Li # 29
    coordinates: [  0.083333334464698,  0.916666665959850,  0.583333332683271 ]
    mass: 6.940000
    reduced_to: 1
  - symbol: Li # 30
    coordinates: [  0.333333334464698,  0.916666665959850,  0.583333332683271 ]
    mass: 6.940000
    reduced_to: 1
  - symbol: Li # 31
    coordinates: [  0.583333334464698,  0.916666665959850,  0.583333332683271 ]
    mass: 6.940000
    reduced_to: 1
  - symbol: Li # 32
    coordinates: [  0.833333334464698,  0.916666665959850,  0.583333332683271 ]
    mass: 6.940000
    reduced_to: 1
  - symbol: Li # 33
    coordinates: [  0.083333334464698,  0.166666665959850,  0.916666666016605 ]
    mass: 6.940000
    reduced_to: 1
  - symbol: Li # 34
    coordinates: [  0.333333334464698,  0.166666665959850,  0.916666666016605 ]
    mass: 6.940000
    reduced_to: 1
  - symbol: Li # 35
    coordinates: [  0.583333334464698,  0.166666665959850,  0.916666666016605 ]
    mass: 6.940000
    reduced_to: 1
  - symbol: Li # 36
    coordinates: [  0.833333334464698,  0.166666665959850,  0.916666666016605 ]
    mass: 6.940000
    reduced_to: 1
  - symbol: Li # 37
    coordinates: [  0.083333334464698,  0.416666665959850,  0.916666666016605 ]
    mass: 6.940000
    reduced_to: 1
  - symbol: Li # 38
    coordinates: [  0.333333334464698,  0.416666665959850,  0.916666666016605 ]
    mass: 6.940000
    reduced_to: 1
  - symbol: Li # 39
    coordinates: [  0.583333334464698,  0.416666665959850,  0.916666666016605 ]
    mass: 6.940000
    reduced_to: 1
  - symbol: Li # 40
    coordinates: [  0.833333334464698,  0.416666665959850,  0.916666666016605 ]
    mass: 6.940000
    reduced_to: 1
  - symbol: Li # 41
    coordinates: [  0.083333334464698,  0.666666665959850,  0.916666666016605 ]
    mass: 6.940000
    reduced_to: 1
  - symbol: Li # 42
    coordinates: [  0.333333334464698,  0.666666665959850,  0.916666666016605 ]
    mass: 6.940000
    reduced_to: 1
  - symbol: Li # 43
    coordinates: [  0.583333334464698,  0.666666665959850,  0.916666666016605 ]
    mass: 6.940000
    reduced_to: 1
  - symbol: Li # 44
    coordinates: [  0.833333334464698,  0.666666665959850,  0.916666666016605 ]
    mass: 6.940000
    reduced_to: 1
  - symbol: Li # 45
    coordinates: [  0.083333334464698,  0.916666665959850,  0.916666666016605 ]
    mass: 6.940000
    reduced_to: 1
  - symbol: Li # 46
    coordinates: [  0.333333334464698,  0.916666665959850,  0.916666666016605 ]
    mass: 6.940000
    reduced_to: 1
  - symbol: Li # 47
    coordinates: [  0.583333334464698,  0.916666665959850,  0.916666666016605 ]
    mass: 6.940000
    reduced_to: 1
  - symbol: Li # 48
    coordinates: [  0.833333334464698,  0.916666665959850,  0.916666666016605 ]
    mass: 6.940000
    reduced_to: 1
  - symbol: Li # 49
    coordinates: [  0.166666665528334,  0.083333334034000,  0.083333333981365 ]
    mass: 6.940000
    reduced_to: 49
  - symbol: Li # 50
    coordinates: [  0.416666665528334,  0.083333334034000,  0.083333333981365 ]
    mass: 6.940000
    reduced_to: 49
  - symbol: Li # 51
    coordinates: [  0.666666665528334,  0.083333334034000,  0.083333333981365 ]
    mass: 6.940000
    reduced_to: 49
  - symbol: Li # 52
    coordinates: [  0.916666665528334,  0.083333334034000,  0.083333333981365 ]
    mass: 6.940000
    reduced_to: 49
  - symbol: Li # 53
    coordinates: [  0.166666665528334,  0.333333334034000,  0.083333333981365 ]
    mass: 6.940000
    reduced_to: 49
  - symbol: Li # 54
    coordinates: [  0.416666665528334,  0.333333334034000,  0.083333333981365 ]
    mass: 6.940000
    reduced_to: 49
  - symbol: Li # 55
    coordinates: [  0.666666665528334,  0.333333334034000,  0.083333333981365 ]
    mass: 6.940000
    reduced_to: 49
  - symbol: Li # 56
    coordinates: [  0.916666665528334,  0.333333334034000,  0.083333333981365 ]
    mass: 6.940000
    reduced_to: 49
  - symbol: Li # 57
    coordinates: [  0.166666665528334,  0.583333334034000,  0.083333333981365 ]
    mass: 6.940000
    reduced_to: 49
  - symbol: Li # 58
    coordinates: [  0.416666665528334,  0.583333334034000,  0.083333333981365 ]
    mass: 6.940000
    reduced_to: 49
  - symbol: Li # 59
    coordinates: [  0.666666665528334,  0.583333334034000,  0.083333333981365 ]
    mass: 6.940000
    reduced_to: 49
  - symbol: Li # 60
    coordinates: [  0.916666665528334,  0.583333334034000,  0.083333333981365 ]
    mass: 6.940000
    reduced_to: 49
  - symbol: Li # 61
    coordinates: [  0.166666665528334,  0.833333334034000,  0.083333333981365 ]
    mass: 6.940000
    reduced_to: 49
  - symbol: Li # 62
    coordinates: [  0.416666665528334,  0.833333334034000,  0.083333333981365 ]
    mass: 6.940000
    reduced_to: 49
  - symbol: Li # 63
    coordinates: [  0.666666665528334,  0.833333334034000,  0.083333333981365 ]
    mass: 6.940000
    reduced_to: 49
  - symbol: Li # 64
    coordinates: [  0.916666665528334,  0.833333334034000,  0.083333333981365 ]
    mass: 6.940000
    reduced_to: 49
  - symbol: Li # 65
    coordinates: [  0.166666665528334,  0.083333334034000,  0.416666667314698 ]
    mass: 6.940000
    reduced_to: 49
  - symbol: Li # 66
    coordinates: [  0.416666665528334,  0.083333334034000,  0.416666667314698 ]
    mass: 6.940000
    reduced_to: 49
  - symbol: Li # 67
    coordinates: [  0.666666665528334,  0.083333334034000,  0.416666667314698 ]
    mass: 6.940000
    reduced_to: 49
  - symbol: Li # 68
    coordinates: [  0.916666665528334,  0.083333334034000,  0.416666667314698 ]
    mass: 6.940000
    reduced_to: 49
  - symbol: Li # 69
    coordinates: [  0.166666665528334,  0.333333334034000,  0.416666667314698 ]
    mass: 6.940000
    reduced_to: 49
  - symbol: Li # 70
    coordinates: [  0.416666665528334,  0.333333334034000,  0.416666667314698 ]
    mass: 6.940000
    reduced_to: 49
  - symbol: Li # 71
    coordinates: [  0.666666665528334,  0.333333334034000,  0.416666667314698 ]
    mass: 6.940000
    reduced_to: 49
  - symbol: Li # 72
    coordinates: [  0.916666665528334,  0.333333334034000,  0.416666667314698 ]
    mass: 6.940000
    reduced_to: 49
  - symbol: Li # 73
    coordinates: [  0.166666665528334,  0.583333334034000,  0.416666667314698 ]
    mass: 6.940000
    reduced_to: 49
  - symbol: Li # 74
    coordinates: [  0.416666665528334,  0.583333334034000,  0.416666667314698 ]
    mass: 6.940000
    reduced_to: 49
  - symbol: Li # 75
    coordinates: [  0.666666665528334,  0.583333334034000,  0.416666667314698 ]
    mass: 6.940000
    reduced_to: 49
  - symbol: Li # 76
    coordinates: [  0.916666665528334,  0.583333334034000,  0.416666667314698 ]
    mass: 6.940000
    reduced_to: 49
  - symbol: Li # 77
    coordinates: [  0.166666665528334,  0.833333334034000,  0.416666667314698 ]
    mass: 6.940000
    reduced_to: 49
  - symbol: Li # 78
    coordinates: [  0.416666665528334,  0.833333334034000,  0.416666667314698 ]
    mass: 6.940000
    reduced_to: 49
  - symbol: Li # 79
    coordinates: [  0.666666665528334,  0.833333334034000,  0.416666667314698 ]
    mass: 6.940000
    reduced_to: 49
  - symbol: Li # 80
    coordinates: [  0.916666665528334,  0.833333334034000,  0.416666667314698 ]
    mass: 6.940000
    reduced_to: 49
  - symbol: Li # 81
    coordinates: [  0.166666665528334,  0.083333334034000,  0.750000000648032 ]
    mass: 6.940000
    reduced_to: 49
  - symbol: Li # 82
    coordinates: [  0.416666665528334,  0.083333334034000,  0.750000000648032 ]
    mass: 6.940000
    reduced_to: 49
  - symbol: Li # 83
    coordinates: [  0.666666665528334,  0.083333334034000,  0.750000000648032 ]
    mass: 6.940000
    reduced_to: 49
  - symbol: Li # 84
    coordinates: [  0.916666665528334,  0.083333334034000,  0.750000000648032 ]
    mass: 6.940000
    reduced_to: 49
  - symbol: Li # 85
    coordinates: [  0.166666665528334,  0.333333334034000,  0.750000000648032 ]
    mass: 6.940000
    reduced_to: 49
  - symbol: Li # 86
    coordinates: [  0.416666665528334,  0.333333334034000,  0.750000000648032 ]
    mass: 6.940000
    reduced_to: 49
  - symbol: Li # 87
    coordinates: [  0.666666665528334,  0.333333334034000,  0.750000000648032 ]
    mass: 6.940000
    reduced_to: 49
  - symbol: Li # 88
    coordinates: [  0.916666665528334,  0.333333334034000,  0.750000000648032 ]
    mass: 6.940000
    reduced_to: 49
  - symbol: Li # 89
    coordinates: [  0.166666665528334,  0.583333334034000,  0.750000000648032 ]
    mass: 6.940000
    reduced_to: 49
  - symbol: Li # 90
    coordinates: [  0.416666665528334,  0.583333334034000,  0.750000000648032 ]
    mass: 6.940000
    reduced_to: 49
  - symbol: Li # 91
    coordinates: [  0.666666665528334,  0.583333334034000,  0.750000000648032 ]
    mass: 6.940000
    reduced_to: 49
  - symbol: Li # 92
    coordinates: [  0.916666665528334,  0.583333334034000,  0.750000000648032 ]
    mass: 6.940000
    reduced_to: 49
  - symbol: Li # 93
    coordinates: [  0.166666665528334,  0.833333334034000,  0.750000000648032 ]
    mass: 6.940000
    reduced_to: 49
  - symbol: Li # 94
    coordinates: [  0.416666665528334,  0.833333334034000,  0.750000000648032 ]
    mass: 6.940000
    reduced_to: 49
  - symbol: Li # 95
    coordinates: [  0.666666665528334,  0.833333334034000,  0.750000000648032 ]
    mass: 6.940000
    reduced_to: 49
  - symbol: Li # 96
    coordinates: [  0.916666665528334,  0.833333334034000,  0.750000000648032 ]
    mass: 6.940000
    reduced_to: 49

displacements:
- atom:    1
  displacement:
    [   0.0063640345260968,  0.0000000000110962,  0.0077135636738571 ]
  forces:
  - [  -0.0068580927327275,  0.0000075263669714, -0.0079380618408322 ]
  - [   0.0019960100762546,  0.0000080422614701, -0.0000491142709507 ]
  - [   0.0000474036569358,  0.0000005014589988, -0.0000261150416918 ]
  - [   0.0019779989961535, -0.0000078435987234, -0.0000411793589592 ]
  - [   0.0004873052239418, -0.0008630631491542, -0.0000428697094321 ]
  - [   0.0004802821204066,  0.0008563860319555, -0.0000475537526654 ]
  - [  -0.0000450331717730, -0.0000405246391892, -0.0000173720909515 ]
  - [  -0.0000457923270005,  0.0000405553728342, -0.0000176113098860 ]
  - [  -0.0000097388401628, -0.0000327401794493, -0.0000262167304754 ]
  - [   0.0000247815623879,  0.0000011780066416, -0.0000174357119249 ]
  - [  -0.0000089975073934,  0.0000329565955326, -0.0000260322485701 ]
  - [   0.0000248138130701, -0.0000008353963494, -0.0000174827873707 ]
  - [   0.0004801647737622, -0.0008724201470613, -0.0000467822537757 ]
  - [  -0.0000451533123851,  0.0000397036783397, -0.0000176765024662 ]
  - [  -0.0000456795096397, -0.0000414275564253, -0.0000173127482412 ]
  - [   0.0004874328151345,  0.0008788648992777, -0.0000435254150943 ]
  - [   0.0000258854652202,  0.0000001778826118, -0.0005935147055425 ]
  - [  -0.0000087428279585, -0.0000264730188064, -0.0000018763603293 ]
  - [   0.0000169576942426,  0.0000043340260163,  0.0000117280287668 ]
  - [  -0.0000215785621549, -0.0000073257833719, -0.0000123642385006 ]
  - [   0.0000028610229492,  0.0000086296349764, -0.0000220462679863 ]
  - [  -0.0000199982896447,  0.0000198911875486,  0.0000079318560893 ]
  - [   0.0000278409570456,  0.0000187391415238,  0.0000229623256018 ]
  - [  -0.0000128389328893,  0.0000045755878091, -0.0000026067718863 ]
  - [   0.0000011036172509, -0.0000088205561042,  0.0000145919620991 ]
  - [  -0.0000047944486141,  0.0000182500225492,  0.0000100667675724 ]
  - [   0.0000084843486547,  0.0000051663955674,  0.0000087905573309 ]
  - [  -0.0000046345267037, -0.0000233277678490,  0.0000102277845144 ]
  - [   0.0000096783041954,  0.0000156350433826, -0.0000168024125742 ]
  - [   0.0000231033191085, -0.0000168806873262,  0.0000269887968898 ]
  - [  -0.0000080717727542, -0.0000027539208531, -0.0000066475913627 ]
  - [  -0.0000268882140517, -0.0000115227885544,  0.0000026865454856 ]
  - [   0.0000239287564909,  0.0000002181623131, -0.0005325783859007 ]
  - [  -0.0000219545709115,  0.0000081300968304, -0.0000130890621222 ]
  - [   0.0000164510547620, -0.0000035958364606,  0.0000116241862997 ]
  - [  -0.0000070931923801,  0.0000270935706794, -0.0000006696209311 ]
  - [  -0.0000198101624846, -0.0000207349658012,  0.0000084508210421 ]
  - [   0.0000031553208828, -0.0000092899426818, -0.0000223169918172 ]
  - [  -0.0000128205865622, -0.0000047301873565, -0.0000026730995160 ]
  - [   0.0000276011160167, -0.0000187205150723,  0.0000230157747865 ]
  - [   0.0000079683959484, -0.0000047418288887,  0.0000088131055236 ]
  - [  -0.0000046910718083, -0.0000176264438778,  0.0000102761550806 ]
  - [   0.0000015692785382,  0.0000089686946012,  0.0000144819932757 ]
  - [  -0.0000047012326831,  0.0000234753824770,  0.0000100992619991 ]
  - [  -0.0000268444418907,  0.0000100256875157,  0.0000022650638130 ]
  - [  -0.0000080857425928,  0.0000012130476534, -0.0000064345076680 ]
  - [   0.0000227615237236,  0.0000150236301124,  0.0000267339491984 ]
  - [   0.0000102184712887, -0.0000164667144418, -0.0000161432835739 ]
  - [  -0.0005445089191198,  0.0002725962549448,  0.0008161666337401 ]
  - [  -0.0000045257620513,  0.0000269194279099,  0.0000336901284754 ]
  - [  -0.0001118881627917, -0.0000149637216964, -0.0000549756514374 ]
  - [   0.0015701660886407,  0.0009470814839005,  0.0025395578704774 ]
  - [  -0.0000709830783308, -0.0012222398072481,  0.0016822104807943 ]
  - [   0.0000977888703346, -0.0000087646767497,  0.0001443179789931 ]
  - [   0.0000651191876386, -0.0000147065147758,  0.0000054463744164 ]
  - [  -0.0005391133017838,  0.0003759870305657, -0.0003804992302321 ]
  - [  -0.0000427653867519,  0.0000510451500304, -0.0000372566428268 ]
  - [   0.0000215210020542,  0.0000374000519514,  0.0000153857981786 ]
  - [  -0.0000044237822294,  0.0000401069410145, -0.0000050939852372 ]
  - [   0.0000216895714402, -0.0000251362216659,  0.0000162645810633 ]
  - [  -0.0000244793100137, -0.0000222923699766,  0.0000070686219260 ]
  - [   0.0000316826626658, -0.0000001115840860,  0.0000034084368963 ]
  - [  -0.0000687353312969, -0.0000771464547142, -0.0000289079034701 ]
  - [   0.0001125288763433, -0.0003681601956487, -0.0001190317561850 ]
  - [   0.0016038306057453, -0.0009718462824821,  0.0025975021999329 ]
  - [  -0.0001140204258263,  0.0000154627487063, -0.0000554459402338 ]
  - [  -0.0000055935233831, -0.0000271272147074,  0.0000340555125149 ]
  - [  -0.0005429633893073, -0.0002689869143069,  0.0008048135787249 ]
  - [  -0.0000778771936893,  0.0012379819527268,  0.0016965598333627 ]
  - [  -0.0005431342869997, -0.0003798324614763, -0.0003824065206572 ]
  - [   0.0000650867732475,  0.0000150678679347,  0.0000054633128457 ]
  - [   0.0000959131866693,  0.0000103218480945,  0.0001455046585761 ]
  - [   0.0000213962048292, -0.0000362292630598,  0.0000162792930496 ]
  - [  -0.0000425810139859, -0.0000504218041897, -0.0000369680346921 ]
  - [   0.0000212825834751,  0.0000252393074334,  0.0000160076888278 ]
  - [  -0.0000041332095861, -0.0000399674172513, -0.0000052479663282 ]
  - [  -0.0000691524910508,  0.0000780841219239, -0.0000285448622890 ]
  - [   0.0000321129300573, -0.0000000658328645,  0.0000034710101318 ]
  - [  -0.0000259131193161,  0.0000211209990084,  0.0000078480225056 ]
  - [   0.0001144381967606,  0.0003685309784487, -0.0001175811048597 ]
  - [   0.0000005350448191,  0.0000010966323316,  0.0000356434829882 ]
  - [  -0.0000005704350770, -0.0000005098991096, -0.0000016625417629 ]
  - [  -0.0000008982606232,  0.0000007716007531, -0.0000018966602511 ]
  - [   0.0000003436580300, -0.0000003539092006,  0.0000351393682649 ]
  - [   0.0000021210871637,  0.0000000074505806,  0.0000354329968104 ]
  - [   0.0000012125819921,  0.0000011548399925,  0.0000053825206123 ]
  - [  -0.0000046129457587,  0.0000000121071935, -0.0000109711036202 ]
  - [   0.0000010887160897, -0.0000002840533853,  0.0000050812377594 ]
  - [   0.0000004954636097,  0.0000015748664737, -0.0000019089711714 ]
  - [   0.0000009033828974, -0.0000015799887478, -0.0000017219208530 ]
  - [  -0.0000009620562196, -0.0000021946616471, -0.0000109086831799 ]
  - [  -0.0000006798654795,  0.0000022782478482, -0.0000110341352411 ]
  - [   0.0000019600433916,  0.0000007748603821, -0.0000018283972167 ]
  - [  -0.0000042472966015,  0.0000000849249773, -0.0000068719527917 ]
  - [   0.0000017723068595, -0.0000009088544175, -0.0000018176942831 ]
  - [   0.0000000571711567, -0.0000002437154762,  0.0000052526229410 ]

force_constants:
  format: "full"
  shape: [ 96, 96 ]
  elements:
  - # (1, 1)
    - [     1.077632876045178,     0.000000001299607,     0.000000000153033 ]
    - [     0.000000001299607,     1.077632876618107,    -0.000000000043954 ]
    - [     0.000000000153033,    -0.000000000043954,     1.029104341667499 ]
  - # (1, 2)
    - [    -0.312206411552598,    -0.001249804669471,    -0.000000000643040 ]
    - [     0.001249747966400,     0.002696600107436,    -0.000000000010327 ]
    - [    -0.000000000317219,    -0.000000000022273,     0.005856024654528 ]
  - # (1, 3)
    - [    -0.007455120574947,     0.000000000009864,    -0.000000000015504 ]
    - [    -0.000000002974430,     0.004452097515217,    -0.000000000012593 ]
    - [    -0.000000000195468,     0.000000000250557,     0.003386419938956 ]
  - # (1, 4)
    - [    -0.312206411177169,     0.001249747533538,    -0.000000000660974 ]
    - [    -0.001249864660385,     0.002696599718780,    -0.000000000008239 ]
    - [    -0.000000001974879,    -0.000000000010024,     0.005856024647576 ]
  - # (1, 5)
    - [    -0.076029178340294,     0.135107243192529,    -0.000000000232776 ]
    - [     0.137606796430804,    -0.233480630929777,     0.000000000460029 ]
    - [    -0.000000000216789,     0.000000000453845,     0.005856024643880 ]
  - # (1, 6)
    - [    -0.076029128602469,    -0.135107212786079,    -0.000000000050891 ]
    - [    -0.137606763794690,    -0.233480682351706,    -0.000000000134328 ]
    - [    -0.000000000182258,    -0.000000000374094,     0.005856024652046 ]
  - # (1, 7)
    - [     0.007136858453025,     0.006370952412356,     0.000000000036714 ]
    - [     0.006370951550007,    -0.000219677563734,     0.000000000004268 ]
    - [     0.000000000005522,    -0.000000000079644,     0.002266382290715 ]
  - # (1, 8)
    - [     0.007136859939773,    -0.006370949444969,     0.000000000006111 ]
    - [    -0.006370947402411,    -0.000219680237088,    -0.000000000040328 ]
    - [     0.000000000041273,    -0.000000000079524,     0.002266382293317 ]
  - # (1, 9)
    - [     0.001475292783902,     0.005155976489943,     0.000000000020687 ]
    - [     0.005155978511848,    -0.004478315094261,     0.000000000034720 ]
    - [     0.000000000012635,     0.000000000094301,     0.003386419933771 ]
  - # (1, 10)
    - [    -0.003897946906910,    -0.000000000178384,    -0.000000000003005 ]
    - [    -0.000000001291850,     0.010815130692248,     0.000000000014296 ]
    - [     0.000000000019818,     0.000000000001776,     0.002266382277315 ]
  - # (1, 11)
    - [     0.001475292640488,    -0.005155973367519,     0.000000000044716 ]
    - [    -0.005155974389297,    -0.004478316124013,     0.000000000002101 ]
    - [     0.000000000047605,     0.000000000009657,     0.003386419944690 ]
  - # (1, 12)
    - [    -0.003897946859930,     0.000000000858640,    -0.000000000009316 ]
    - [    -0.000000001588726,     0.010815129705981,     0.000000000005876 ]
    - [     0.000000000017049,    -0.000000000024542,     0.002266382280636 ]
  - # (1, 13)
    - [    -0.076029153005013,     0.137606751332308,    -0.000000000247596 ]
    - [     0.135107255256619,    -0.233480657098172,     0.000000000456483 ]
    - [    -0.000000000869830,     0.000000001598850,     0.005856024662170 ]
  - # (1, 14)
    - [     0.007136860153917,    -0.006370946846473,     0.000000000039984 ]
    - [    -0.006370949002317,    -0.000219681271316,     0.000000000003515 ]
    - [    -0.000000000085037,    -0.000000000254576,     0.002266382281897 ]
  - # (1, 15)
    - [     0.007136859075038,     0.006370950899541,     0.000000000013970 ]
    - [     0.006370951172021,    -0.000219675806927,     0.000000000000925 ]
    - [     0.000000000143132,     0.000000000024083,     0.002266382295257 ]
  - # (1, 16)
    - [    -0.076029154058189,    -0.137606809132638,    -0.000000000044919 ]
    - [    -0.135107226405245,    -0.233480707654081,    -0.000000000141600 ]
    - [    -0.000000000462935,    -0.000000000844230,     0.005856024653398 ]
  - # (1, 17)
    - [    -0.003913713632735,     0.000000001309162,    -0.000000000143040 ]
    - [     0.000000001316980,    -0.003913713028993,     0.000000000059844 ]
    - [    -0.000000000121629,     0.000000000043938,     0.072994350608367 ]
  - # (1, 18)
    - [     0.002348503049729,     0.001498887400863,    -0.000898772691963 ]
    - [    -0.001498884883673,     0.000977435885564,    -0.002236905366720 ]
    - [    -0.000898773105478,     0.002236905185917,     0.000907214241941 ]
  - # (1, 19)
    - [    -0.002628480929001,    -0.000000000131257,     0.000000000021674 ]
    - [    -0.000000001123564,    -0.000123117285102,     0.000517315365432 ]
    - [     0.000000000047553,    -0.000517315387219,    -0.001513128533110 ]
  - # (1, 20)
    - [     0.002348503735530,    -0.001498885528290,     0.000898772777847 ]
    - [     0.001498886403977,     0.000977434968626,    -0.002236904998490 ]
    - [     0.000898772791358,     0.002236905374081,     0.000907214254948 ]
  - # (1, 21)
    - [     0.001320202785990,     0.000905197448290,     0.002386603283778 ]
    - [    -0.002092574146689,     0.002005738114277,     0.000340092649743 ]
    - [    -0.001487830085584,    -0.001896812982978,     0.000907214245715 ]
  - # (1, 22)
    - [     0.001320201914811,    -0.000905195354686,    -0.002386603335862 ]
    - [     0.002092576645702,     0.002005737292755,     0.000340092227240 ]
    - [     0.001487830500421,    -0.001896812690543,     0.000907214233001 ]
  - # (1, 23)
    - [    -0.001168529633438,    -0.001101605427227,    -0.002012803765233 ]
    - [    -0.001101606235331,     0.000103497200135,    -0.001162093079864 ]
    - [    -0.002625955557090,    -0.001516096516886,    -0.001318116842774 ]
  - # (1, 24)
    - [    -0.001168529673358,     0.001101606869606,     0.002012803800140 ]
    - [     0.001101607232174,     0.000103498631987,    -0.001162092330325 ]
    - [     0.002625955923739,    -0.001516096015212,    -0.001318116828774 ]
  - # (1, 25)
    - [    -0.000749457637261,     0.001084854584782,    -0.000448008163357 ]
    - [     0.001084854909106,    -0.002002139849958,    -0.000258657761775 ]
    - [     0.000448008278170,     0.000258657760892,    -0.001513128537218 ]
  - # (1, 26)
    - [     0.000739511248319,     0.000000000221192,     0.000000000006851 ]
    - [     0.000000000794087,    -0.001804543604484,    -0.003032193034177 ]
    - [     0.000000000256310,    -0.002324185812844,    -0.001318116832086 ]
  - # (1, 27)
    - [    -0.000749459293482,    -0.001084851468004,     0.000448008322035 ]
    - [    -0.001084852513410,    -0.002002139395970,    -0.000258657649923 ]
    - [    -0.000448008212062,     0.000258657632711,    -0.001513128539561 ]
  - # (1, 28)
    - [     0.000739511295509,     0.000000001245694,     0.000000000028244 ]
    - [     0.000000000488502,    -0.001804544619859,     0.002324186113580 ]
    - [    -0.000000000240464,     0.003032192507947,    -0.001318116838359 ]
  - # (1, 29)
    - [     0.001320202921724,    -0.002092574403863,     0.001487830126196 ]
    - [     0.000905195785401,     0.002005735568174,     0.001896813393328 ]
    - [    -0.002386603199732,    -0.000340092693067,     0.000907214259521 ]
  - # (1, 30)
    - [    -0.001168528759536,     0.001101608241514,    -0.002625955319773 ]
    - [     0.001101607461312,     0.000103496803412,     0.001516095982816 ]
    - [    -0.002012804004979,     0.001162092658532,    -0.001318116858290 ]
  - # (1, 31)
    - [    -0.001168530565178,    -0.001101606928340,     0.002625955899840 ]
    - [    -0.001101608110710,     0.000103497456526,     0.001516096968948 ]
    - [     0.002012803829609,     0.001162093040085,    -0.001318116819724 ]
  - # (1, 32)