# Thermal properties / unit cell (natom)

unit:
  temperature:   K
  free_energy:   kJ/mol
  entropy:       J/K/mol
  heat_capacity: J/K/mol

natom: 2    
cutoff_frequency: 0.00000
num_modes: 173280
num_integrated_modes: 173277

zero_point_energy:       6.9037053

thermal_properties:
- temperature:         0.0000000
  free_energy:         6.9037053
  entropy:             0.0000000
  heat_capacity:       0.0000000
  energy:              6.9037053

- temperature:        10.0000000
  free_energy:         6.9035947
  entropy:             0.0411891
  heat_capacity:       0.1113765
  energy:              6.9040066

- temperature:        20.0000000
  free_energy:         6.9022124
  entropy:             0.2875435
  heat_capacity:       0.8538206
  energy:              6.9079632

- temperature:        30.0000000
  free_energy:         6.8963520
  entropy:             0.9762214
  heat_capacity:       2.9174830
  energy:              6.9256386

- temperature:        40.0000000
  free_energy:         6.8807561
  entropy:             2.2377487
  heat_capacity:       6.1576955
  energy:              6.9702661

- temperature:        50.0000000
  free_energy:         6.8498546
  entropy:             4.0201901
  heat_capacity:      10.0243427
  energy:              7.0508641

- temperature:        60.0000000
  free_energy:         6.7990098
  entropy:             6.2054439
  heat_capacity:      14.0710199
  energy:              7.1713364

- temperature:        70.0000000
  free_energy:         6.7248088
  entropy:             8.6723765
  heat_capacity:      17.9991225
  energy:              7.3318752

- temperature:        80.0000000
  free_energy:         6.6249724
  entropy:            11.3170337
  heat_capacity:      21.6352427
  energy:              7.5303351

- temperature:        90.0000000
  free_energy:         6.4981507
  entropy:            14.0576236
  heat_capacity:      24.9004500
  energy:              7.7633369

- temperature:       100.0000000
  free_energy:         6.3437045
  entropy:            16.8334283
  heat_capacity:      27.7777645
  energy:              8.0270473

- temperature:       110.0000000
  free_energy:         6.1615100
  entropy:            19.6013448
  heat_capacity:      30.2853353
  energy:              8.3176579

- temperature:       120.0000000
  free_energy:         5.9518031
  entropy:            22.3319508
  heat_capacity:      32.4580183
  energy:              8.6316372

- temperature:       130.0000000
  free_energy:         5.7150604
  entropy:            25.0059732
  heat_capacity:      34.3362579
  energy:              8.9658369

- temperature:       140.0000000
  free_energy:         5.4519127
  entropy:            27.6114425
  heat_capacity:      35.9600702
  energy:              9.3175146

- temperature:       150.0000000
  free_energy:         5.1630832
  entropy:            30.1415328
  heat_capacity:      37.3661762
  energy:              9.6843131

- temperature:       160.0000000
  free_energy:         4.8493444
  entropy:            32.5929772
  heat_capacity:      38.5869232
  energy:             10.0642208

- temperature:       170.0000000
  free_energy:         4.5114888
  entropy:            34.9649304
  heat_capacity:      39.6501449
  energy:             10.4555270

- temperature:       180.0000000
  free_energy:         4.1503084
  entropy:            37.2581635
  heat_capacity:      40.5794684
  energy:             10.8567778

- temperature:       190.0000000
  free_energy:         3.7665819
  entropy:            39.4744989
  heat_capacity:      41.3947994
  energy:             11.2667367

- temperature:       200.0000000
  free_energy:         3.3610665
  entropy:            41.6164166
  heat_capacity:      42.1128472
  energy:             11.6843498

- temperature:       210.0000000
  free_energy:         2.9344921
  entropy:            43.6867819
  heat_capacity:      42.7476212
  energy:             12.1087163

- temperature:       220.0000000
  free_energy:         2.4875591
  entropy:            45.6886585
  heat_capacity:      43.3108737
  energy:             12.5390640

- temperature:       230.0000000
  free_energy:         2.0209368
  entropy:            47.6251812
  heat_capacity:      43.8124793
  energy:             12.9747285

- temperature:       240.0000000
  free_energy:         1.5352630
  entropy:            49.4994710
  heat_capacity:      44.2607552
  energy:             13.4151360

- temperature:       250.0000000
  free_energy:         1.0311446
  entropy:            51.3145789
  heat_capacity:      44.6627264
  energy:             13.8597894

- temperature:       260.0000000
  free_energy:         0.5091588
  entropy:            53.0734511
  heat_capacity:      45.0243462
  energy:             14.3082561

- temperature:       270.0000000
  free_energy:        -0.0301464
  entropy:            54.7789077
  heat_capacity:      45.3506761
  energy:             14.7601587

- temperature:       280.0000000
  free_energy:        -0.5862502
  entropy:            56.4336311
  heat_capacity:      45.6460348
  energy:             15.2151665

- temperature:       290.0000000
  free_energy:        -1.1586583
  entropy:            58.0401618
  heat_capacity:      45.9141202
  energy:             15.6729886

- temperature:       300.0000000
  free_energy:        -1.7469008
  entropy:            59.6008981
  heat_capacity:      46.1581094
  energy:             16.1333686

- temperature:       310.0000000
  free_energy:        -2.3505312
  entropy:            61.1180994
  heat_capacity:      46.3807422
  energy:             16.5960796

- temperature:       320.0000000
  free_energy:        -2.9691248
  entropy:            62.5938906
  heat_capacity:      46.5843885
  energy:             17.0609202

- temperature:       330.0000000
  free_energy:        -3.6022777
  entropy:            64.0302686
  heat_capacity:      46.7711059
  energy:             17.5277110

- temperature:       340.0000000
  free_energy:        -4.2496051
  entropy:            65.4291087
  heat_capacity:      46.9426861
  energy:             17.9962919

- temperature:       350.0000000
  free_energy:        -4.9107406
  entropy:            66.7921716
  heat_capacity:      47.1006944
  energy:             18.4665195

- temperature:       360.0000000
  free_energy:        -5.5853348
  entropy:            68.1211108
  heat_capacity:      47.2465024
  energy:             18.9382651

- temperature:       370.0000000
  free_energy:        -6.2730542
  entropy:            69.4174787
  heat_capacity:      47.3813156
  energy:             19.4114129

- temperature:       380.0000000
  free_energy:        -6.9735806
  entropy:            70.6827341
  heat_capacity:      47.5061966
  energy:             19.8858583

- temperature:       390.0000000
  free_energy:        -7.6866098
  entropy:            71.9182478
  heat_capacity:      47.6220844
  energy:             20.3615069

- temperature:       400.0000000
  free_energy:        -8.4118508
  entropy:            73.1253090
  heat_capacity:      47.7298113
  energy:             20.8382728

- temperature:       410.0000000
  free_energy:        -9.1490252
  entropy:            74.3051306
  heat_capacity:      47.8301166
  energy:             21.3160784

- temperature:       420.0000000
  free_energy:        -9.8978664
  entropy:            75.4588548
  heat_capacity:      47.9236589
  energy:             21.7948526

- temperature:       430.0000000
  free_energy:       -10.6581189
  entropy:            76.5875578
  heat_capacity:      48.0110260
  energy:             22.2745310

- temperature:       440.0000000
  free_energy:       -11.4295375
  entropy:            77.6922542
  heat_capacity:      48.0927442
  energy:             22.7550543

- temperature:       450.0000000
  free_energy:       -12.2118871
  entropy:            78.7739016
  heat_capacity:      48.1692852
  energy:             23.2363686

- temperature:       460.0000000
  free_energy:       -13.0049418
  entropy:            79.8334042
  heat_capacity:      48.2410732
  energy:             23.7184242

- temperature:       470.0000000
  free_energy:       -13.8084843
  entropy:            80.8716165
  heat_capacity:      48.3084900
  energy:             24.2011755

- temperature:       480.0000000
  free_energy:       -14.6223058
  entropy:            81.8893466
  heat_capacity:      48.3718805
  energy:             24.6845806

- temperature:       490.0000000
  free_energy:       -15.4462055
  entropy:            82.8873596
  heat_capacity:      48.4315563
  energy:             25.1686007

- temperature:       500.0000000
  free_energy:       -16.2799897
  entropy:            83.8663799
  heat_capacity:      48.4877997
  energy:             25.6532002

- temperature:       510.0000000
  free_energy:       -17.1234721
  entropy:            84.8270945
  heat_capacity:      48.5408670
  energy:             26.1383461

- temperature:       520.0000000
  free_energy:       -17.9764728
  entropy:            85.7701549
  heat_capacity:      48.5909911
  energy:             26.6240078

- temperature:       530.0000000
  free_energy:       -18.8388184
  entropy:            86.6961797
  heat_capacity:      48.6383842
  energy:             27.1101568

- temperature:       540.0000000
  free_energy:       -19.7103415
  entropy:            87.6057565
  heat_capacity:      48.6832397
  energy:             27.5967670

- temperature:       550.0000000
  free_energy:       -20.5908805
  entropy:            88.4994442
  heat_capacity:      48.7257344
  energy:             28.0838138

- temperature:       560.0000000
  free_energy:       -21.4802792
  entropy:            89.3777743
  heat_capacity:      48.7660302
  energy:             28.5712744

- temperature:       570.0000000
  free_energy:       -22.3783865
  entropy:            90.2412528
  heat_capacity:      48.8042751
  energy:             29.0591275

- temperature:       580.0000000
  free_energy:       -23.2850564
  entropy:            91.0903618
  heat_capacity:      48.8406053
  energy:             29.5473535

- temperature:       590.0000000
  free_energy:       -24.2001474
  entropy:            91.9255612
  heat_capacity:      48.8751457
  energy:             30.0359337

- temperature:       600.0000000
  free_energy:       -25.1235227
  entropy:            92.7472892
  heat_capacity:      48.9080113
  energy:             30.5248508

- temperature:       610.0000000
  free_energy:       -26.0550497
  entropy:            93.5559645
  heat_capacity:      48.9393080
  energy:             31.0140887

- temperature:       620.0000000
  free_energy:       -26.9945998
  entropy:            94.3519869
  heat_capacity:      48.9691338
  energy:             31.5036321

- temperature:       630.0000000
  free_energy:       -27.9420485
  entropy:            95.1357385
  heat_capacity:      48.9975788
  energy:             31.9934668

- temperature:       640.0000000
  free_energy:       -28.8972749
  entropy:            95.9075847
  heat_capacity:      49.0247266
  energy:             32.4835793

- temperature:       650.0000000
  free_energy:       -29.8601617
  entropy:            96.6678753
  heat_capacity:      49.0506544
  energy:             32.9739572

- temperature:       660.0000000
  free_energy:       -30.8305950
  entropy:            97.4169449
  heat_capacity:      49.0754341
  energy:             33.4645886

- temperature:       670.0000000
  free_energy:       -31.8084643
  entropy:            98.1551143
  heat_capacity:      49.0991321
  energy:             33.9554623

- temperature:       680.0000000
  free_energy:       -32.7936620
  entropy:            98.8826909
  heat_capacity:      49.1218101
  energy:             34.4465678

- temperature:       690.0000000
  free_energy:       -33.7860838
  entropy:            99.5999696
  heat_capacity:      49.1435256
  energy:             34.9378953

- temperature:       700.0000000
  free_energy:       -34.7856280
  entropy:           100.3072333
  heat_capacity:      49.1643322
  energy:             35.4294353

- temperature:       710.0000000
  free_energy:       -35.7921959
  entropy:           101.0047535
  heat_capacity:      49.1842797
  energy:             35.9211791

- temperature:       720.0000000
  free_energy:       -36.8056915
  entropy:           101.6927912
  heat_capacity:      49.2034144
  energy:             36.4131182

- temperature:       730.0000000
  free_energy:       -37.8260210
  entropy:           102.3715970
  heat_capacity:      49.2217799
  energy:             36.9052448

- temperature:       740.0000000
  free_energy:       -38.8530934
  entropy:           103.0414119
  heat_capacity:      49.2394166
  energy:             37.3975514

- temperature:       750.0000000
  free_energy:       -39.8868200
  entropy:           103.7024678
  heat_capacity:      49.2563625
  energy:             37.8900308

- temperature:       760.0000000
  free_energy:       -40.9271143
  entropy:           104.3549879
  heat_capacity:      49.2726531
  energy:             38.3826764

- temperature:       770.0000000
  free_energy:       -41.9738921
  entropy:           104.9991868
  heat_capacity:      49.2883215
  energy:             38.8754818

- temperature:       780.0000000
  free_energy:       -43.0270710
  entropy:           105.6352717
  heat_capacity:      49.3033991
  energy:             39.3684409

- temperature:       790.0000000
  free_energy:       -44.0865711
  entropy:           106.2634418
  heat_capacity:      49.3179150
  energy:             39.8615479

- temperature:       800.0000000
  free_energy:       -45.1523141
  entropy:           106.8838894
  heat_capacity:      49.3318967
  energy:             40.3547974

- temperature:       810.0000000
  free_energy:       -46.2242238
  entropy:           107.4967999
  heat_capacity:      49.3453700
  energy:             40.8481842

- temperature:       820.0000000
  free_energy:       -47.3022256
  entropy:           108.1023522
  heat_capacity:      49.3583592
  energy:             41.3417032

- temperature:       830.0000000
  free_energy:       -48.3862469
  entropy:           108.7007189
  heat_capacity:      49.3708872
  energy:             41.8353498

- temperature:       840.0000000
  free_energy:       -49.4762166
  entropy:           109.2920667
  heat_capacity:      49.3829754
  energy:             42.3291195

- temperature:       850.0000000
  free_energy:       -50.5720653
  entropy:           109.8765568
  heat_capacity:      49.3946442
  energy:             42.8230079

- temperature:       860.0000000
  free_energy:       -51.6737254
  entropy:           110.4543447
  heat_capacity:      49.4059126
  energy:             43.3170110

- temperature:       870.0000000
  free_energy:       -52.7811304
  entropy:           111.0255808
  heat_capacity:      49.4167989
  energy:             43.8111249

- temperature:       880.0000000
  free_energy:       -53.8942156
  entropy:           111.5904107
  heat_capacity:      49.4273199
  energy:             44.3053458

- temperature:       890.0000000
  free_energy:       -55.0129177
  entropy:           112.1489751
  heat_capacity:      49.4374918
  energy:             44.7996701

- temperature:       900.0000000
  free_energy:       -56.1371747
  entropy:           112.7014102
  heat_capacity:      49.4473298
  energy:             45.2940945

- temperature:       910.0000000
  free_energy:       -57.2669259
  entropy:           113.2478479
  heat_capacity:      49.4568484
  energy:             45.7886157

- temperature:       920.0000000
  free_energy:       -58.4021121
  entropy:           113.7884158
  heat_capacity:      49.4660613
  energy:             46.2832305

- temperature:       930.0000000
  free_energy:       -59.5426751
  entropy:           114.3232377
  heat_capacity:      49.4749813
  energy:             46.7779359

- temperature:       940.0000000
  free_energy:       -60.6885581
  entropy:           114.8524332
  heat_capacity:      49.4836206
  energy:             47.2727292

- temperature:       950.0000000
  free_energy:       -61.8397054
  entropy:           115.3761188
  heat_capacity:      49.4919910
  energy:             47.7676074

- temperature:       960.0000000
  free_energy:       -62.9960625
  entropy:           115.8944069
  heat_capacity:      49.5001034
  energy:             48.2625681

- temperature:       970.0000000
  free_energy:       -64.1575759
  entropy:           116.4074068
  heat_capacity:      49.5079684
  energy:             48.7576087

- temperature:       980.0000000
  free_energy:       -65.3241933
  entropy:           116.9152245
  heat_capacity:      49.5155958
  energy:             49.2527267

- temperature:       990.0000000
  free_energy:       -66.4958635
  entropy:           117.4179629
  heat_capacity:      49.5229951
  energy:             49.7479198

- temperature:      1000.0000000
  free_energy:       -67.6725360
  entropy:           117.9157219
  heat_capacity:      49.5301753
  energy:             50.2431859
