# Thermal properties / unit cell (natom)

unit:
  temperature:   K
  free_energy:   kJ/mol
  entropy:       J/K/mol
  heat_capacity: J/K/mol

natom: 18   
cutoff_frequency: 0.00000
num_modes: 163296
num_integrated_modes: 163294

zero_point_energy:      75.0268452

thermal_properties:
- temperature:         0.0000000
  free_energy:        75.0268452
  entropy:             0.0000000
  heat_capacity:       0.0000000
  energy:             75.0268452

- temperature:        10.0000000
  free_energy:        75.0252880
  entropy:             0.5385261
  heat_capacity:       1.6546627
  energy:             75.0306732

- temperature:        20.0000000
  free_energy:        75.0027642
  entropy:             4.9875233
  heat_capacity:      15.2362856
  energy:             75.1025147

- temperature:        30.0000000
  free_energy:        74.9052493
  entropy:            15.3615891
  heat_capacity:      38.0761538
  energy:             75.3660970

- temperature:        40.0000000
  free_energy:        74.6827231
  entropy:            29.6143833
  heat_capacity:      62.1506785
  energy:             75.8672984

- temperature:        50.0000000
  free_energy:        74.3057403
  entropy:            46.0650367
  heat_capacity:      86.2243121
  energy:             76.6089921

- temperature:        60.0000000
  free_energy:        73.7567081
  entropy:            63.9420489
  heat_capacity:     110.7112382
  energy:             77.5932310

- temperature:        70.0000000
  free_energy:        73.0233896
  entropy:            82.8750275
  heat_capacity:     135.6087072
  energy:             78.8246415

- temperature:        80.0000000
  free_energy:        72.0965423
  entropy:           102.6080444
  heat_capacity:     160.4362413
  energy:             80.3051859

- temperature:        90.0000000
  free_energy:        70.9693407
  entropy:           122.9077972
  heat_capacity:     184.5703504
  energy:             82.0310424

- temperature:       100.0000000
  free_energy:        69.6372388
  entropy:           143.5525439
  heat_capacity:     207.4808871
  energy:             83.9924932

- temperature:       110.0000000
  free_energy:        68.0978120
  entropy:           164.3416511
  heat_capacity:     228.8174229
  energy:             86.1753936

- temperature:       120.0000000
  free_energy:        66.3504982
  entropy:           185.1041520
  heat_capacity:     248.4049154
  energy:             88.5629964

- temperature:       130.0000000
  free_energy:        64.3962818
  entropy:           205.7018360
  heat_capacity:     266.2039983
  energy:             91.1375205

- temperature:       140.0000000
  free_energy:        62.2373698
  entropy:           226.0279432
  heat_capacity:     282.2664875
  energy:             93.8812818

- temperature:       150.0000000
  free_energy:        59.8768942
  entropy:           246.0034515
  heat_capacity:     296.6983511
  energy:             96.7774119

- temperature:       160.0000000
  free_energy:        57.3186577
  entropy:           265.5724937
  heat_capacity:     309.6328558
  energy:             99.8102567

- temperature:       170.0000000
  free_energy:        54.5669250
  entropy:           284.6978170
  heat_capacity:     321.2127438
  energy:            102.9655539

- temperature:       180.0000000
  free_energy:        51.6262573
  entropy:           303.3567253
  heat_capacity:     331.5792471
  energy:            106.2304679

- temperature:       190.0000000
  free_energy:        48.5013847
  entropy:           321.5376618
  heat_capacity:     340.8658532
  energy:            109.5935404

- temperature:       200.0000000
  free_energy:        45.1971086
  entropy:           339.2374336
  heat_capacity:     349.1951846
  energy:            113.0445954

- temperature:       210.0000000
  free_energy:        41.7182304
  entropy:           356.4590128
  heat_capacity:     356.6778227
  energy:            116.5746231

- temperature:       220.0000000
  free_energy:        38.0694980
  entropy:           373.2098237
  heat_capacity:     363.4122840
  energy:            120.1756592

- temperature:       230.0000000
  free_energy:        34.2555682
  entropy:           389.5004263
  heat_capacity:     369.4856386
  energy:            123.8406663

- temperature:       240.0000000
  free_energy:        30.2809813
  entropy:           405.3435134
  heat_capacity:     374.9744457
  energy:            127.5634245

- temperature:       250.0000000
  free_energy:        26.1501429
  entropy:           420.7531538
  heat_capacity:     379.9458134
  energy:            131.3384313

- temperature:       260.0000000
  free_energy:        21.8673135
  entropy:           435.7442271
  heat_capacity:     384.4584667
  energy:            135.1608125

- temperature:       270.0000000
  free_energy:        17.4366027
  entropy:           450.3320032
  heat_capacity:     388.5637625
  energy:            139.0262435

- temperature:       280.0000000
  free_energy:        12.8619666
  entropy:           464.5318348
  heat_capacity:     392.3066206
  energy:            142.9308803

- temperature:       290.0000000
  free_energy:         8.1472084
  entropy:           478.3589346
  heat_capacity:     395.7263583
  energy:            146.8712994

- temperature:       300.0000000
  free_energy:         3.2959805
  entropy:           491.8282172
  heat_capacity:     398.8574273
  energy:            150.8444457

- temperature:       310.0000000
  free_energy:        -1.6882117
  entropy:           504.9541889
  heat_capacity:     401.7300594
  energy:            154.8475869

- temperature:       320.0000000
  free_energy:        -6.8020057
  entropy:           517.7508751
  heat_capacity:     404.3708263
  energy:            158.8782744

- temperature:       330.0000000
  free_energy:       -12.0421766
  entropy:           530.2317740
  heat_capacity:     406.8031255
  energy:            162.9343088

- temperature:       340.0000000
  free_energy:       -17.4056317
  entropy:           542.4098317
  heat_capacity:     409.0475983
  energy:            167.0137110

- temperature:       350.0000000
  free_energy:       -22.8894051
  entropy:           554.2974310
  heat_capacity:     411.1224906
  energy:            171.1146958

- temperature:       360.0000000
  free_energy:       -28.4906516
  entropy:           565.9063925
  heat_capacity:     413.0439635
  energy:            175.2356497

- temperature:       370.0000000
  free_energy:       -34.2066418
  entropy:           577.2479822
  heat_capacity:     414.8263611
  energy:            179.3751116

- temperature:       380.0000000
  free_energy:       -40.0347558
  entropy:           588.3329258
  heat_capacity:     416.4824401
  energy:            183.5317560

- temperature:       390.0000000
  free_energy:       -45.9724789
  entropy:           599.1714263
  heat_capacity:     418.0235694
  energy:            187.7043774

- temperature:       400.0000000
  free_energy:       -52.0173953
  entropy:           609.7731836
  heat_capacity:     419.4599007
  energy:            191.8918781

- temperature:       410.0000000
  free_energy:       -58.1671842
  entropy:           620.1474162
  heat_capacity:     420.8005176
  energy:            196.0932565

- temperature:       420.0000000
  free_energy:       -64.4196144
  entropy:           630.3028836
  heat_capacity:     422.0535633
  energy:            200.3075967

- temperature:       430.0000000
  free_energy:       -70.7725404
  entropy:           640.2479086
  heat_capacity:     423.2263524
  energy:            204.5340603

- temperature:       440.0000000
  free_energy:       -77.2238975
  entropy:           649.9903995
  heat_capacity:     424.3254674
  energy:            208.7718782

- temperature:       450.0000000
  free_energy:       -83.7716984
  entropy:           659.5378718
  heat_capacity:     425.3568428
  energy:            213.0203439

- temperature:       460.0000000
  free_energy:       -90.4140288
  entropy:           668.8974695
  heat_capacity:     426.3258385
  energy:            217.2788072

- temperature:       470.0000000
  free_energy:       -97.1490442
  entropy:           678.0759855
  heat_capacity:     427.2373044
  energy:            221.5466690

- temperature:       480.0000000
  free_energy:      -103.9749664
  entropy:           687.0798806
  heat_capacity:     428.0956356
  energy:            225.8233762

- temperature:       490.0000000
  free_energy:      -110.8900803
  entropy:           695.9153024
  heat_capacity:     428.9048224
  energy:            230.1084179

- temperature:       500.0000000
  free_energy:      -117.8927305
  entropy:           704.5881029
  heat_capacity:     429.6684931
  energy:            234.4013210

- temperature:       510.0000000
  free_energy:      -124.9813189
  entropy:           713.1038548
  heat_capacity:     430.3899523
  energy:            238.7016471

- temperature:       520.0000000
  free_energy:      -132.1543018
  entropy:           721.4678677
  heat_capacity:     431.0722141
  energy:            243.0089894

- temperature:       530.0000000
  free_energy:      -139.4101873
  entropy:           729.6852023
  heat_capacity:     431.7180320
  energy:            247.3229699

- temperature:       540.0000000
  free_energy:      -146.7475330
  entropy:           737.7606852
  heat_capacity:     432.3299250
  energy:            251.6432370

- temperature:       550.0000000
  free_energy:      -154.1649436
  entropy:           745.6989211
  heat_capacity:     432.9102008
  energy:            255.9694631

- temperature:       560.0000000
  free_energy:      -161.6610686
  entropy:           753.5043059
  heat_capacity:     433.4609765
  energy:            260.3013427

- temperature:       570.0000000
  free_energy:      -169.2346008
  entropy:           761.1810379
  heat_capacity:     433.9841971
  energy:            264.6385908

- temperature:       580.0000000
  free_energy:      -176.8842739
  entropy:           768.7331288
  heat_capacity:     434.4816515
  energy:            268.9809408

- temperature:       590.0000000
  free_energy:      -184.6088608
  entropy:           776.1644138
  heat_capacity:     434.9549873
  energy:            273.3281434

- temperature:       600.0000000
  free_energy:      -192.4071718
  entropy:           783.4785616
  heat_capacity:     435.4057238
  energy:            277.6799652

- temperature:       610.0000000
  free_energy:      -200.2780532
  entropy:           790.6790828
  heat_capacity:     435.8352638
  energy:            282.0361872

- temperature:       620.0000000
  free_energy:      -208.2203859
  entropy:           797.7693387
  heat_capacity:     436.2449039
  energy:            286.3966041

- temperature:       630.0000000
  free_energy:      -216.2330832
  entropy:           804.7525495
  heat_capacity:     436.6358440
  energy:            290.7610230

- temperature:       640.0000000
  free_energy:      -224.3150904
  entropy:           811.6318012
  heat_capacity:     437.0091956
  energy:            295.1292624

- temperature:       650.0000000
  free_energy:      -232.4653826
  entropy:           818.4100528
  heat_capacity:     437.3659895
  energy:            299.5011517

- temperature:       660.0000000
  free_energy:      -240.6829642
  entropy:           825.0901431
  heat_capacity:     437.7071830
  energy:            303.8765302

- temperature:       670.0000000
  free_energy:      -248.9668673
  entropy:           831.6747965
  heat_capacity:     438.0336654
  energy:            308.2552463

- temperature:       680.0000000
  free_energy:      -257.3161508
  entropy:           838.1666294
  heat_capacity:     438.3462642
  energy:            312.6371572

- temperature:       690.0000000
  free_energy:      -265.7298989
  entropy:           844.5681548
  heat_capacity:     438.6457499
  energy:            317.0221279

- temperature:       700.0000000
  free_energy:      -274.2072209
  entropy:           850.8817883
  heat_capacity:     438.9328407
  energy:            321.4100309

- temperature:       710.0000000
  free_energy:      -282.7472495
  entropy:           857.1098523
  heat_capacity:     439.2082067
  energy:            325.8007457

- temperature:       720.0000000
  free_energy:      -291.3491402
  entropy:           863.2545809
  heat_capacity:     439.4724735
  energy:            330.1941581

- temperature:       730.0000000
  free_energy:      -300.0120705
  entropy:           869.3181240
  heat_capacity:     439.7262259
  energy:            334.5901601

- temperature:       740.0000000
  free_energy:      -308.7352389
  entropy:           875.3025517
  heat_capacity:     439.9700109
  energy:            338.9886494

- temperature:       750.0000000
  free_energy:      -317.5178644
  entropy:           881.2098576
  heat_capacity:     440.2043406
  energy:            343.3895288

- temperature:       760.0000000
  free_energy:      -326.3591854
  entropy:           887.0419627
  heat_capacity:     440.4296948
  energy:            347.7927063

- temperature:       770.0000000
  free_energy:      -335.2584592
  entropy:           892.8007188
  heat_capacity:     440.6465236
  energy:            352.1980943

- temperature:       780.0000000
  free_energy:      -344.2149613
  entropy:           898.4879115
  heat_capacity:     440.8552491
  energy:            356.6056097

- temperature:       790.0000000
  free_energy:      -353.2279846
  entropy:           904.1052636
  heat_capacity:     441.0562680
  energy:            361.0151736

- temperature:       800.0000000
  free_energy:      -362.2968393
  entropy:           909.6544374
  heat_capacity:     441.2499531
  energy:            365.4267106

- temperature:       810.0000000
  free_energy:      -371.4208515
  entropy:           915.1370381
  heat_capacity:     441.4366549
  energy:            369.8401494

- temperature:       820.0000000
  free_energy:      -380.5993633
  entropy:           920.5546157
  heat_capacity:     441.6167035
  energy:            374.2554216

- temperature:       830.0000000
  free_energy:      -389.8317320
  entropy:           925.9086679
  heat_capacity:     441.7904098
  energy:            378.6724623

- temperature:       840.0000000
  free_energy:      -399.1173297
  entropy:           931.2006421
  heat_capacity:     441.9580666
  energy:            383.0912096

- temperature:       850.0000000
  free_energy:      -408.4555426
  entropy:           936.4319377
  heat_capacity:     442.1199505
  energy:            387.5116044

- temperature:       860.0000000
  free_energy:      -417.8457707
  entropy:           941.6039081
  heat_capacity:     442.2763221
  energy:            391.9335902

- temperature:       870.0000000
  free_energy:      -427.2874274
  entropy:           946.7178629
  heat_capacity:     442.4274279
  energy:            396.3571133

- temperature:       880.0000000
  free_energy:      -436.7799388
  entropy:           951.7750692
  heat_capacity:     442.5735006
  energy:            400.7821220

- temperature:       890.0000000
  free_energy:      -446.3227437
  entropy:           956.7767539
  heat_capacity:     442.7147604
  energy:            405.2085672

- temperature:       900.0000000
  free_energy:      -455.9152928
  entropy:           961.7241052
  heat_capacity:     442.8514154
  energy:            409.6364019

- temperature:       910.0000000
  free_energy:      -465.5570486
  entropy:           966.6182741
  heat_capacity:     442.9836628
  energy:            414.0655809

- temperature:       920.0000000
  free_energy:      -475.2474847
  entropy:           971.4603759
  heat_capacity:     443.1116895
  energy:            418.4960611

- temperature:       930.0000000
  free_energy:      -484.9860861
  entropy:           976.2514917
  heat_capacity:     443.2356724
  energy:            422.9278012

- temperature:       940.0000000
  free_energy:      -494.7723481
  entropy:           980.9926699
  heat_capacity:     443.3557795
  energy:            427.3607616

- temperature:       950.0000000
  free_energy:      -504.6057765
  entropy:           985.6849272
  heat_capacity:     443.4721699
  energy:            431.7949044

- temperature:       960.0000000
  free_energy:      -514.4858869
  entropy:           990.3292500
  heat_capacity:     443.5849949
  energy:            436.2301931

- temperature:       970.0000000
  free_energy:      -524.4122049
  entropy:           994.9265956
  heat_capacity:     443.6943982
  energy:            440.6665929

- temperature:       980.0000000
  free_energy:      -534.3842653
  entropy:           999.4778933
  heat_capacity:     443.8005162
  energy:            445.1040701

- temperature:       990.0000000
  free_energy:      -544.4016123
  entropy:          1003.9840454
  heat_capacity:     443.9034787
  energy:            449.5425927

- temperature:      1000.0000000
  free_energy:      -554.4637987
  entropy:          1008.4459282
  heat_capacity:     444.0034092
  energy:            453.9821296
