phonopy:
  version: "2.37.1"
  frequency_unit_conversion_factor: 15.633302
  symmetry_tolerance: 1.00000e-05

space_group:
  type: "I4/mcm"
  number: 140
  Hall_symbol: "-I 4 2c"

primitive_matrix:
- [  0.000000000000000,  1.000000000000000, -1.000000000000000 ]
- [  1.000000000000000,  0.000000000000000, -1.000000000000000 ]
- [  0.000000000000000,  0.000000000000000, -1.000000000000000 ]

supercell_matrix:
- [   2,   0,   0 ]
- [   0,   2,   0 ]
- [   0,   0,   2 ]

primitive_cell:
  lattice:
  - [    -2.430764785011603,     5.069754760341257,     0.000000000000000 ] # a
  - [     5.622368797781638,     0.000000000000000,     0.000000000000000 ] # b
  - [    -1.595801994909067,    -2.534877300562183,    -4.758029432402157 ] # c
  points:
  - symbol: Li # 1
    coordinates: [  0.679535003073549,  0.179535001833280,  0.859070006731419 ]
    mass: 6.940000
  - symbol: Li # 2
    coordinates: [  0.320464995826551,  0.820464997698148,  0.140929993500276 ]
    mass: 6.940000
  - symbol: Li # 3
    coordinates: [  0.820465000592682,  0.679535006772013,  0.500000004216709 ]
    mass: 6.940000
  - symbol: Li # 4
    coordinates: [  0.179535003400055,  0.320464995684286,  0.499999997902066 ]
    mass: 6.940000
  - symbol: Sn # 5
    coordinates: [  0.249999992211032,  0.249999993397087,  0.999999999763956 ]
    mass: 118.710000
  - symbol: Sn # 6
    coordinates: [  0.750000004936065,  0.750000004640240,  0.999999997888965 ]
    mass: 118.710000
  reciprocal_lattice: # without 2pi
  - [     0.000000000000000,     0.197248199818779,    -0.105085517313613 ] # a*
  - [     0.177860975678892,     0.085277930934662,    -0.105085518758046 ] # b*
  - [     0.000000000000000,     0.000000000000000,    -0.210171041227699 ] # c*

unit_cell:
  lattice:
  - [     5.622368797781637,     0.000000000000000,     0.000000000000000 ] # a
  - [    -2.430764785011603,     5.069754760341256,     0.000000000000000 ] # b
  - [    -1.595802017860967,    -2.534877459779074,     4.758029432402156 ] # c
  points:
  - symbol: Li # 1
    coordinates: [  0.320464995101861,  0.820464996342130,  0.140929993268581 ]
    mass: 6.940000
    reduced_to: 1
  - symbol: Li # 2
    coordinates: [  0.679535004197872,  0.179535002326275,  0.859070006499724 ]
    mass: 6.940000
    reduced_to: 2
  - symbol: Li # 3
    coordinates: [  0.179535002555304,  0.320464996375973,  0.499999995783291 ]
    mass: 6.940000
    reduced_to: 3
  - symbol: Li # 4
    coordinates: [  0.820464997782221,  0.679535005497989,  0.500000002097934 ]
    mass: 6.940000
    reduced_to: 4
  - symbol: Sn # 5
    coordinates: [  0.249999993633131,  0.249999992447075,  0.000000000236044 ]
    mass: 118.710000
    reduced_to: 5
  - symbol: Sn # 6
    coordinates: [  0.750000006751275,  0.750000007047101,  0.000000002111035 ]
    mass: 118.710000
    reduced_to: 6

supercell:
  lattice:
  - [    11.244737595563274,     0.000000000000000,     0.000000000000000 ] # a
  - [    -4.861529570023206,    10.139509520682513,     0.000000000000000 ] # b
  - [    -3.191604035721934,    -5.069754919558147,     9.516058864804313 ] # c
  points:
  - symbol: Li # 1
    coordinates: [  0.160232497550930,  0.410232498171065,  0.070464996634290 ]
    mass: 6.940000
    reduced_to: 1
  - symbol: Li # 2
    coordinates: [  0.660232497550930,  0.410232498171065,  0.070464996634290 ]
    mass: 6.940000
    reduced_to: 1
  - symbol: Li # 3
    coordinates: [  0.160232497550930,  0.910232498171065,  0.070464996634290 ]
    mass: 6.940000
    reduced_to: 1
  - symbol: Li # 4
    coordinates: [  0.660232497550930,  0.910232498171065,  0.070464996634290 ]
    mass: 6.940000
    reduced_to: 1
  - symbol: Li # 5
    coordinates: [  0.160232497550930,  0.410232498171065,  0.570464996634290 ]
    mass: 6.940000
    reduced_to: 1
  - symbol: Li # 6
    coordinates: [  0.660232497550930,  0.410232498171065,  0.570464996634290 ]
    mass: 6.940000
    reduced_to: 1
  - symbol: Li # 7
    coordinates: [  0.160232497550930,  0.910232498171065,  0.570464996634290 ]
    mass: 6.940000
    reduced_to: 1
  - symbol: Li # 8
    coordinates: [  0.660232497550930,  0.910232498171065,  0.570464996634290 ]
    mass: 6.940000
    reduced_to: 1
  - symbol: Li # 9
    coordinates: [  0.339767502098936,  0.089767501163137,  0.429535003249862 ]
    mass: 6.940000
    reduced_to: 9
  - symbol: Li # 10
    coordinates: [  0.839767502098936,  0.089767501163137,  0.429535003249862 ]
    mass: 6.940000
    reduced_to: 9
  - symbol: Li # 11
    coordinates: [  0.339767502098936,  0.589767501163137,  0.429535003249862 ]
    mass: 6.940000
    reduced_to: 9
  - symbol: Li # 12
    coordinates: [  0.839767502098936,  0.589767501163137,  0.429535003249862 ]
    mass: 6.940000
    reduced_to: 9
  - symbol: Li # 13
    coordinates: [  0.339767502098936,  0.089767501163137,  0.929535003249862 ]
    mass: 6.940000
    reduced_to: 9
  - symbol: Li # 14
    coordinates: [  0.839767502098936,  0.089767501163137,  0.929535003249862 ]
    mass: 6.940000
    reduced_to: 9
  - symbol: Li # 15
    coordinates: [  0.339767502098936,  0.589767501163137,  0.929535003249862 ]
    mass: 6.940000
    reduced_to: 9
  - symbol: Li # 16
    coordinates: [  0.839767502098936,  0.589767501163137,  0.929535003249862 ]
    mass: 6.940000
    reduced_to: 9
  - symbol: Li # 17
    coordinates: [  0.089767501277652,  0.160232498187986,  0.249999997891645 ]
    mass: 6.940000
    reduced_to: 17
  - symbol: Li # 18
    coordinates: [  0.589767501277652,  0.160232498187986,  0.249999997891645 ]
    mass: 6.940000
    reduced_to: 17
  - symbol: Li # 19
    coordinates: [  0.089767501277652,  0.660232498187986,  0.249999997891645 ]
    mass: 6.940000
    reduced_to: 17
  - symbol: Li # 20
    coordinates: [  0.589767501277652,  0.660232498187986,  0.249999997891645 ]
    mass: 6.940000
    reduced_to: 17
  - symbol: Li # 21
    coordinates: [  0.089767501277652,  0.160232498187986,  0.749999997891645 ]
    mass: 6.940000
    reduced_to: 17
  - symbol: Li # 22
    coordinates: [  0.589767501277652,  0.160232498187986,  0.749999997891645 ]
    mass: 6.940000
    reduced_to: 17
  - symbol: Li # 23
    coordinates: [  0.089767501277652,  0.660232498187986,  0.749999997891645 ]
    mass: 6.940000
    reduced_to: 17
  - symbol: Li # 24
    coordinates: [  0.589767501277652,  0.660232498187986,  0.749999997891645 ]
    mass: 6.940000
    reduced_to: 17
  - symbol: Li # 25
    coordinates: [  0.410232498891110,  0.339767502748995,  0.250000001048967 ]
    mass: 6.940000
    reduced_to: 25
  - symbol: Li # 26
    coordinates: [  0.910232498891110,  0.339767502748995,  0.250000001048967 ]
    mass: 6.940000
    reduced_to: 25
  - symbol: Li # 27
    coordinates: [  0.410232498891110,  0.839767502748995,  0.250000001048967 ]
    mass: 6.940000
    reduced_to: 25
  - symbol: Li # 28
    coordinates: [  0.910232498891110,  0.839767502748995,  0.250000001048967 ]
    mass: 6.940000
    reduced_to: 25
  - symbol: Li # 29
    coordinates: [  0.410232498891110,  0.339767502748995,  0.750000001048967 ]
    mass: 6.940000
    reduced_to: 25
  - symbol: Li # 30
    coordinates: [  0.910232498891110,  0.339767502748995,  0.750000001048967 ]
    mass: 6.940000
    reduced_to: 25
  - symbol: Li # 31
    coordinates: [  0.410232498891110,  0.839767502748995,  0.750000001048967 ]
    mass: 6.940000
    reduced_to: 25
  - symbol: Li # 32
    coordinates: [  0.910232498891110,  0.839767502748995,  0.750000001048967 ]
    mass: 6.940000
    reduced_to: 25
  - symbol: Sn # 33
    coordinates: [  0.124999996816565,  0.124999996223538,  0.000000000118022 ]
    mass: 118.710000
    reduced_to: 33
  - symbol: Sn # 34
    coordinates: [  0.624999996816565,  0.124999996223538,  0.000000000118022 ]
    mass: 118.710000
    reduced_to: 33
  - symbol: Sn # 35
    coordinates: [  0.124999996816565,  0.624999996223538,  0.000000000118022 ]
    mass: 118.710000
    reduced_to: 33
  - symbol: Sn # 36
    coordinates: [  0.624999996816565,  0.624999996223538,  0.000000000118022 ]
    mass: 118.710000
    reduced_to: 33
  - symbol: Sn # 37
    coordinates: [  0.124999996816565,  0.124999996223538,  0.500000000118022 ]
    mass: 118.710000
    reduced_to: 33
  - symbol: Sn # 38
    coordinates: [  0.624999996816565,  0.124999996223538,  0.500000000118022 ]
    mass: 118.710000
    reduced_to: 33
  - symbol: Sn # 39
    coordinates: [  0.124999996816565,  0.624999996223538,  0.500000000118022 ]
    mass: 118.710000
    reduced_to: 33
  - symbol: Sn # 40
    coordinates: [  0.624999996816565,  0.624999996223538,  0.500000000118022 ]
    mass: 118.710000
    reduced_to: 33
  - symbol: Sn # 41
    coordinates: [  0.375000003375638,  0.375000003523550,  0.000000001055518 ]
    mass: 118.710000
    reduced_to: 41
  - symbol: Sn # 42
    coordinates: [  0.875000003375638,  0.375000003523550,  0.000000001055518 ]
    mass: 118.710000
    reduced_to: 41
  - symbol: Sn # 43
    coordinates: [  0.375000003375638,  0.875000003523550,  0.000000001055518 ]
    mass: 118.710000
    reduced_to: 41
  - symbol: Sn # 44
    coordinates: [  0.875000003375638,  0.875000003523550,  0.000000001055518 ]
    mass: 118.710000
    reduced_to: 41
  - symbol: Sn # 45
    coordinates: [  0.375000003375638,  0.375000003523550,  0.500000001055518 ]
    mass: 118.710000
    reduced_to: 41
  - symbol: Sn # 46
    coordinates: [  0.875000003375638,  0.375000003523550,  0.500000001055518 ]
    mass: 118.710000
    reduced_to: 41
  - symbol: Sn # 47
    coordinates: [  0.375000003375638,  0.875000003523550,  0.500000001055518 ]
    mass: 118.710000
    reduced_to: 41
  - symbol: Sn # 48
    coordinates: [  0.875000003375638,  0.875000003523550,  0.500000001055518 ]
    mass: 118.710000
    reduced_to: 41

displacements:
- atom:    1
  displacement:
    [   0.0080119625813752,  0.0028136412776640, -0.0052812762051675 ]
  forces:
  - [  -0.0203904584050179,  0.0021182065829635,  0.0306435208767653 ]
  - [  -0.0015325905987993, -0.0000262226494669,  0.0285161435604095 ]
  - [  -0.0001468792324886,  0.0001255187671632,  0.0285153500735760 ]
  - [   0.0000080948320829,  0.0000131749293359,  0.0285487063229084 ]
  - [   0.0000050691887736,  0.0000410657376051,  0.0284816510975361 ]
  - [   0.0000003734603524, -0.0000019604340196,  0.0285522695630789 ]
  - [  -0.0000103109323391,  0.0000042569449761,  0.0285631865262985 ]
  - [  -0.0000289745948976, -0.0000135882955874,  0.0285631008446217 ]
  - [  -0.0000083123450167, -0.0000043586478569, -0.0285445023328066 ]
  - [   0.0000116745650303,  0.0000381654826924, -0.0285739786922932 ]
  - [  -0.0000849893549457, -0.0000255818013102, -0.0291758663952351 ]
  - [   0.0000243475660682, -0.0000016782432795, -0.0285445973277092 ]
  - [  -0.0001692183286650,  0.0005531259812415, -0.0283988751471043 ]
  - [   0.0003913950640708,  0.0004143929108977, -0.0282803494483232 ]
  - [   0.0006339600076899,  0.0008082436397672, -0.0288576483726501 ]
  - [  -0.0000114463909995,  0.0004432620480657, -0.0285798758268356 ]
  - [  -0.0240433290600777,  0.0150141799822450, -0.0001109836448450 ]
  - [  -0.0241722483187914,  0.0152054158970714,  0.0000061489263317 ]
  - [  -0.0238411091268063,  0.0152621138840914, -0.0001398714230163 ]
  - [  -0.0241297408938408,  0.0150863779708743, -0.0002038497477770 ]
  - [  -0.0238330960273743,  0.0152631811797619, -0.0001556822098792 ]
  - [  -0.0243315882980824,  0.0150195769965649, -0.0003949254751205 ]
  - [  -0.0242338478565216,  0.0152819864451885, -0.0001032528161886 ]
  - [  -0.0241606645286083,  0.0151974260807037,  0.0000218675922952 ]
  - [   0.0243776850402355, -0.0150862000882626, -0.0002135393006029 ]
  - [   0.0240188539028168, -0.0153392041102052,  0.0000530611723661 ]
  - [   0.0242098402231932, -0.0152591560035944, -0.0000470095619676 ]
  - [   0.0241421386599541, -0.0152109423652291, -0.0000131092965603 ]
  - [   0.0241064690053463, -0.0154270660132170,  0.0004258355183993 ]
  - [   0.0243676938116550, -0.0150891458615661, -0.0002189797232859 ]
  - [   0.0241546966135502, -0.0152187552303076,  0.0000031692907214 ]
  - [   0.0241589006036520, -0.0152360303327441,  0.0001348257064819 ]
  - [   0.0018434291705489, -0.0023328126408160, -0.0006721056997776 ]
  - [   0.0003621788637247,  0.0004688832268585,  0.0000030505211726 ]
  - [   0.0003523502673488, -0.0003177988110110,  0.0000936458236538 ]
  - [   0.0004030834534205,  0.0006112299161032,  0.0000089015429694 ]
  - [  -0.0000347048044205, -0.0000488460063934,  0.0000816200627014 ]
  - [   0.0000191405415535,  0.0000284379348159,  0.0000018009377527 ]
  - [  -0.0002121584111592, -0.0000365548075933,  0.0003660568327177 ]
  - [  -0.0000217824599531, -0.0000274208978226, -0.0000848503113957 ]
  - [   0.0102525632828474, -0.0015115351416171, -0.0027101179584861 ]
  - [   0.0074872882105410, -0.0009939786978066,  0.0020436784252524 ]
  - [   0.0000652223825455,  0.0001096594205592, -0.0000320950239256 ]
  - [  -0.0000455048248114,  0.0000188163521671,  0.0000425941434514 ]
  - [   0.0000595450401306, -0.0000878116115928,  0.0001166235233541 ]
  - [  -0.0000183549418580, -0.0000053169478633,  0.0000431150219811 ]
  - [  -0.0000220499932766,  0.0000995248556137,  0.0001874463050626 ]
  - [   0.0000273771584034,  0.0000757733359933,  0.0000386862666346 ]
- atom:    1
  displacement:
    [  -0.0080119625813752, -0.0028136412776640,  0.0052812762051675 ]
  forces:
  - [   0.0201514214277267, -0.0020915404893458,  0.0266897566616535 ]
  - [   0.0015295629855245,  0.0000254407641478,  0.0285823978483677 ]
  - [   0.0001464541273890, -0.0001269118511118,  0.0285816621035337 ]
  - [  -0.0000078314360508, -0.0000145238536788,  0.0285478737205267 ]
  - [  -0.0000050580129027, -0.0000423667952418,  0.0286134742200375 ]
  - [  -0.0000001452863216,  0.0000027129426599,  0.0285424254834652 ]
  - [   0.0000085959045464, -0.0000030910723581,  0.0285306945443153 ]
  - [   0.0000302858388750,  0.0000130399148475,  0.0285315271466970 ]
  - [   0.0000070589303505,  0.0000054566480685, -0.0285518467426300 ]
  - [  -0.0000113036949188, -0.0000379456614610, -0.0285222176462412 ]
  - [   0.0000915793934837,  0.0000265752896667, -0.0279170162975788 ]
  - [  -0.0000254113692790,  0.0000010373769328, -0.0285521727055311 ]
  - [   0.0001582204859005, -0.0005316821625456, -0.0286898091435432 ]
  - [  -0.0003855026734527, -0.0004101871745661, -0.0288193374872208 ]
  - [  -0.0006307209841907, -0.0007914723828435, -0.0282434225082397 ]
  - [   0.0000135890513775, -0.0004512360319495, -0.0285131968557835 ]
  - [  -0.0242750979959965,  0.0154035370796919,  0.0001101101734093 ]
  - [  -0.0241456329822540,  0.0152143184095621, -0.0000078339653555 ]
  - [  -0.0244971029460430,  0.0151656325906515,  0.0001438008766854 ]
  - [  -0.0241875946521759,  0.0153289865702391,  0.0002029538154602 ]
  - [  -0.0244760066270828,  0.0151581643149257,  0.0001436495222151 ]
  - [  -0.0239830128848553,  0.0154035054147243,  0.0003974954597652 ]
  - [  -0.0240857433527708,  0.0151365846395493,  0.0001033201333485 ]
  - [  -0.0241591166704893,  0.0152218583971262, -0.0000217007782339 ]
  - [   0.0239476319402456, -0.0153251904994249,  0.0002119627897628 ]
  - [   0.0242833010852337, -0.0150886941701174, -0.0000405861064792 ]
  - [   0.0241103284060955, -0.0151643771678209,  0.0000445610057795 ]
  - [   0.0241777319461107, -0.0152080412954092,  0.0000139418989420 ]
  - [   0.0242122970521450, -0.0149958208203316, -0.0004292968078516 ]
  - [   0.0239503011107445, -0.0153358187526464,  0.0002221387403551 ]
  - [   0.0241651833057404, -0.0152001287788153,  0.0000009546056390 ]
  - [   0.0241592153906822, -0.0151832969859242, -0.0001343544572592 ]
  - [  -0.0018821228295565,  0.0023539154790342,  0.0006891489028931 ]
  - [  -0.0003657326160464, -0.0004667113244068, -0.0000045175993364 ]
  - [  -0.0003077280707657,  0.0002734243171290, -0.0000808322074590 ]
  - [  -0.0003963675699197, -0.0006074466509745, -0.0000083516133600 ]
  - [   0.0000353157520294,  0.0000500753521919, -0.0000812114885775 ]
  - [  -0.0000183666124940, -0.0000244611874223, -0.0000010005023796 ]
  - [   0.0002703668142203,  0.0000363080107491, -0.0004510119033512 ]
  - [   0.0000249312215601,  0.0000308214694087,  0.0000866428890731 ]
  - [  -0.0099079851061106,  0.0014811092987657,  0.0026422226801515 ]
  - [  -0.0076522645540535,  0.0010055857710540, -0.0021223602816463 ]
  - [  -0.0000661015510559, -0.0001181681582239,  0.0000294638848573 ]
  - [   0.0000478546717204, -0.0000214167830563, -0.0000438125680375 ]
  - [  -0.0000654272735119,  0.0000965651124716, -0.0001309322833549 ]
  - [   0.0000161931493494,  0.0000018412575855, -0.0000458263566543 ]
  - [   0.0000284984707832, -0.0001162476837635, -0.0002111040521413 ]
  - [  -0.0000285431742668, -0.0000796271488070, -0.0000383791048080 ]
- atom:   33
  displacement:
    [   0.0100000000000000,  0.0000000000000000,  0.0000000000000000 ]
  forces:
  - [   0.0032874215394258, -0.0054628020152450,  0.0271115060895681 ]
  - [   0.0004342329630163,  0.0001109341974370,  0.0285828709602356 ]
  - [   0.0033072936348617, -0.0055203130468726,  0.0300131104886532 ]
  - [   0.0004384534840938,  0.0001182264095405,  0.0285149719566107 ]
  - [  -0.0000223461538553,  0.0000344589352608,  0.0285994298756123 ]
  - [  -0.0000224076211452,  0.0000349534675479,  0.0284972935914993 ]
  - [  -0.0001702186855255, -0.0000189285819943,  0.0287756472826004 ]
  - [  -0.0001468835398555, -0.0000187826226465,  0.0283628385514021 ]
  - [   0.0000096879666671,  0.0000372054637410, -0.0286361668258905 ]
  - [   0.0000094247516245, -0.0000069383531809, -0.0285061337053776 ]
  - [   0.0000127451494336,  0.0000317631056532, -0.0284704528748989 ]
  - [   0.0000090531539172, -0.0000075306743383, -0.0285916253924370 ]
  - [   0.0114844292402267, -0.0007341569289565, -0.0309875048696995 ]
  - [   0.0110596725717187, -0.0007321530720219, -0.0262351017445326 ]
  - [  -0.0001177316516987,  0.0003588087856770, -0.0286521054804325 ]
  - [  -0.0001167571172118,  0.0003758333623409, -0.0284400470554829 ]
  - [  -0.0220265295356512,  0.0168304592370987, -0.0042861248366535 ]
  - [  -0.0245634187012911,  0.0152510348707438, -0.0003123938804492 ]
  - [  -0.0241574198007584,  0.0152504192665219,  0.0000037892605178 ]
  - [  -0.0240888670086861,  0.0154733397066593,  0.0003284923732281 ]
  - [  -0.0241689644753933,  0.0151668954640627,  0.0001228454057127 ]
  - [  -0.0242663510143757,  0.0152531005442142, -0.0000508856028318 ]
  - [  -0.0242832563817501,  0.0154152978211641,  0.0001812302216422 ]
  - [  -0.0239404905587435,  0.0154455900192261,  0.0002719862968661 ]
  - [   0.0262960605323315, -0.0135705275461078,  0.0043545775115490 ]
  - [   0.0238445382565260, -0.0151895415037870,  0.0002608755603433 ]
  - [   0.0241621620953083, -0.0151699800044298, -0.0000059917183535 ]
  - [   0.0242383442819118, -0.0149362822994590, -0.0003361664712429 ]
  - [   0.0243736822158098, -0.0149841187521815, -0.0002671552356333 ]
  - [   0.0240572337061167, -0.0150348339229822, -0.0001591664913576 ]
  - [   0.0240538418292999, -0.0151645950973034,  0.0000567082315683 ]
  - [   0.0241671148687601, -0.0152209270745516, -0.0000927066430449 ]
  - [  -0.0454697161912918, -0.0089804269373417, -0.0000011269003153 ]
  - [  -0.0011327782412991, -0.0003712563484441, -0.0000014436670881 ]
  - [   0.0005240867612883,  0.0004234557272866, -0.0000008045067261 ]
  - [  -0.0007097315392457, -0.0013674952788278,  0.0000000155062807 ]
  - [  -0.0000852197408676, -0.0001119077205658,  0.0004894907469861 ]
  - [   0.0000156546011567,  0.0000008512288332, -0.0000710514432285 ]
  - [   0.0000156255464390,  0.0000004655742032,  0.0000720541793271 ]
  - [  -0.0000869191353559, -0.0001109746299335, -0.0004890603013337 ]
  - [   0.0048026558943093,  0.0097153475508094, -0.0000001293201422 ]
  - [   0.0021738237701356, -0.0012379209510982,  0.0000265799462795 ]
  - [   0.0021598907187581, -0.0012251585721970, -0.0000308079397655 ]
  - [   0.0047280411235988,  0.0095483548939228,  0.0000005566089385 ]
  - [  -0.0000020004808903,  0.0001893853768706, -0.0000087862063083 ]
  - [   0.0000141768123285, -0.0000184718355740,  0.0000019487740701 ]
  - [  -0.0000018365681171, -0.0000111814588308, -0.0000010950025171 ]
  - [  -0.0000995099544525,  0.0001410134136677,  0.0000052105751820 ]

force_constants:
  format: "full"
  shape: [ 48, 48 ]
  elements:
  - # (1, 1)
    - [     2.863261922661699,    -0.948739506535139,    -0.000000005041163 ]
    - [    -0.948739506535139,     1.953489088194690,     0.000000012396851 ]
    - [    -0.000000005041163,     0.000000012396851,     0.374326767763840 ]
  - # (1, 2)
    - [     0.191101701250929,    -0.000007341522808,     0.000000000382412 ]
    - [    -0.000007341128590,     0.009203420966015,     0.000000000303581 ]
    - [    -0.000000000213756,     0.000000000603386,    -0.006267544694763 ]
  - # (1, 3)
    - [     0.043208901393342,    -0.070916611282703,    -0.000000000005963 ]
    - [    -0.070916611156013,     0.157096220623299,     0.000000001210769 ]
    - [    -0.000000001352647,     0.000000002637926,    -0.006267544671108 ]
  - # (1, 4)
    - [    -0.000596275576741,    -0.001134090050656,    -0.000000000358484 ]
    - [    -0.001134089634910,    -0.001683786308302,    -0.000000000064605 ]
    - [    -0.000000000296412,     0.000000000064618,     0.000086578547032 ]
  - # (1, 5)
    - [     0.002200290125231,    -0.001901614467486,     0.003277016374665 ]
    - [    -0.001901614123735,     0.000376778418520,     0.005205428483433 ]
    - [     0.003277015593105,     0.005205428879336,    -0.004737758404379 ]
  - # (1, 6)
    - [     0.000654611596777,    -0.000232021935391,     0.000911193820874 ]
    - [    -0.000232021922422,     0.000432118651546,    -0.000573630974920 ]
    - [     0.000911192987907,    -0.000573630653233,     0.002011816812374 ]
  - # (1, 7)
    - [     0.000654611791861,    -0.000232022068808,    -0.000911192794552 ]
    - [    -0.000232021766602,     0.000432118683708,     0.000573630453083 ]
    - [    -0.000911193658175,     0.000573631206237,     0.002011816785706 ]
  - # (1, 8)
    - [     0.002200290466202,    -0.001901614520530,    -0.003277015743766 ]
    - [    -0.001901614398048,     0.000376778512284,    -0.005205428154650 ]
    - [    -0.003277015899615,    -0.005205428117919,    -0.004737758836572 ]
  - # (1, 9)
    - [     0.000442084099310,     0.001469344046756,     0.000000000084780 ]
    - [     0.001469344169238,    -0.002426312832523,     0.000000000296062 ]
    - [    -0.000000000071068,     0.000000000332793,     0.000714011235295 ]
  - # (1, 10)
    - [    -0.000206710504768,    -0.003496571391794,     0.000000000449708 ]
    - [    -0.003496571073031,    -0.003559671206900,    -0.000000000569348 ]
    - [    -0.000000000453960,     0.000000000224666,    -0.004892676955351 ]
  - # (1, 11)
    - [     0.011195351005234,    -0.000503789532359,     0.000000001402638 ]
    - [    -0.000503789520747,     0.010712252547291,     0.000000000610231 ]
    - [    -0.000000000198748,     0.000000001412793,    -0.119172730120232 ]
  - # (1, 12)
    - [    -0.003035793299978,    -0.000198172593082,     0.000000000547000 ]
    - [    -0.000198172278894,     0.001051564330458,    -0.000000000057598 ]
    - [    -0.000000000177878,     0.000000000318296,     0.000714011477735 ]
  - # (1, 13)
    - [     0.029988892695875,    -0.054078127571041,    -0.014319708693539 ]
    - [    -0.054078127680844,    -0.021868135819706,     0.009014802202975 ]
    - [    -0.014319709178749,     0.009014801462860,     0.010623322623367 ]
  - # (1, 14)
    - [    -0.048287451438286,    -0.043901315550003,    -0.023097786523324 ]
    - [    -0.043901315763389,    -0.090385651100741,    -0.036690052001212 ]
    - [    -0.023097787305661,    -0.036690051595298,    -0.003553784017892 ]
  - # (1, 15)
    - [    -0.048287451607189,    -0.043901316515423,     0.023097786419723 ]
    - [    -0.043901316121205,    -0.090385651701891,     0.036690050504302 ]
    - [     0.023097785823555,     0.036690050804108,    -0.003553782702320 ]
  - # (1, 16)
    - [     0.029988892992633,    -0.054078127662690,     0.014319707488390 ]
    - [    -0.054078127662690,    -0.021868135922661,    -0.009014802425357 ]
    - [     0.014319707488390,    -0.009014802425357,     0.010623322383697 ]
  - # (1, 17)
    - [    -0.013506412845009,     0.010538064189902,     0.008906302856685 ]
    - [     0.009044731386512,     0.012993008485509,    -0.013840132390793 ]
    - [     0.006256611003264,    -0.013936661392091,    -0.014814074141540 ]
  - # (1, 18)
    - [     0.002022955911492,    -0.000254208721487,    -0.001650219188157 ]
    - [    -0.000254208170740,     0.001779187595730,     0.001038876204809 ]
    - [     0.000429697402370,    -0.000270510900612,    -0.000609032548985 ]
  - # (1, 19)
    - [    -0.034302227392539,     0.001182159625666,    -0.005680812480543 ]
    - [     0.001182159734637,    -0.033168621208925,     0.003576287828073 ]
    - [     0.010684874159032,    -0.006726536028299,    -0.033586043949600 ]
  - # (1, 20)
    - [     0.000405592607604,     0.015715036562712,     0.016330342236143 ]
    - [     0.017208370241024,    -0.000918996937348,    -0.002047298222098 ]
    - [     0.015271820890911,     0.000383692392626,    -0.014814073577377 ]
  - # (1, 21)
    - [    -0.033256336189821,     0.000523730992889,    -0.005680812274558 ]
    - [     0.000523731263104,    -0.032754115336190,     0.003576287718451 ]
    - [     0.010684875040058,    -0.006726536653846,    -0.035046440547953 ]
  - # (1, 22)
    - [     0.015133195650842,     0.023546494252844,     0.054269001459974 ]
    - [    -0.002709871097730,     0.005368021715879,    -0.008126427752330 ]
    - [    -0.011488014191136,     0.002244047869534,     0.002967225156580 ]
  - # (1, 23)
    - [    -0.000929747486833,    -0.010411474214662,     0.030790255607393 ]
    - [     0.015844892600204,     0.021430964902489,    -0.045421618861250 ]
    - [    -0.006990190355682,     0.009388687170363,     0.002967224564626 ]
  - # (1, 24)
    - [     0.000023396147212,     0.001004590518529,    -0.001650219238207 ]
    - [     0.001004591018672,     0.000986725536759,     0.001038875995313 ]
    - [     0.000429698124176,    -0.000270511871083,     0.002182990023977 ]
  - # (1, 25)
    - [    -0.034302226826074,     0.001182159699965,     0.005680812689246 ]
    - [     0.001182160285233,    -0.033168621957887,    -0.003576288595044 ]
    - [    -0.010684874859015,     0.006726535531513,    -0.033586043276870 ]
  - # (1, 26)
    - [     0.000405592595618,     0.015715036773211,    -0.016330341726039 ]
    - [     0.017208370103502,    -0.000918997160266,     0.002047298006713 ]
    - [    -0.015271820555364,    -0.000383692633604,    -0.014814074309881 ]
  - # (1, 27)
    - [    -0.013506412716159,     0.010538064404740,    -0.008906302698050 ]
    - [     0.009044731473754,     0.012993008425999,     0.013840132615642 ]
    - [    -0.006256611944996,     0.013936662481949,    -0.014814074469116 ]
  - # (1, 28)
    - [     0.002022955568502,    -0.000254208673914,     0.001650219595142 ]
    - [    -0.000254208340505,     0.001779187939655,    -0.001038876057971 ]
    - [    -0.000429698079904,     0.000270511437166,    -0.000609031715330 ]
  - # (1, 29)
    - [     0.015133195633442,     0.023546495698937,    -0.054269001460082 ]
    - [    -0.002709871202869,     0.005368021905287,     0.008126427228507 ]
    - [     0.011488013429250,    -0.002244047491517,     0.002967226291470 ]
  - # (1, 30)
    - [    -0.033256335991316,     0.000523730989915,     0.005680812523767 ]
    - [     0.000523731240766,    -0.032754115291339,    -0.003576288388869 ]
    - [    -0.010684875576902,     0.006726536582038,    -0.035046441228316 ]
  - # (1, 31)
    - [     0.000023396198305,     0.001004590359932,     0.001650219611942 ]
    - [     0.001004590964382,     0.000986725542944,    -0.001038875950340 ]
    - [    -0.000429698993291,     0.000270511886281,     0.002182989140336 ]
  - # (1, 32)
    - [    -0.000929747171652,    -0.010411473789532,    -0.030790255625704 ]
    - [     0.015844892914823,     0.021430964235246,     0.045421620039671 ]
    - [     0.006990190177176,    -0.009388686771537,     0.002967226306042 ]
  - # (1, 33)
    - [    -0.329722901455878,     0.455699035906958,     0.141460128574831 ]
    - [     0.549163577435075,    -0.828743049571893,    -0.266382809059535 ]
    - [     0.145114456021989,    -0.193930079599322,    -0.056199898452977 ]
  - # (1, 34)
    - [    -0.043623121561188,    -0.063225168684847,     0.001769315451376 ]
    - [    -0.011466990305069,    -0.011397966682814,    -0.004171403863112 ]
    - [    -0.003398921135109,    -0.013404771769898,     0.001163882363664 ]
  - # (1, 35)
    - [    -0.329722908933516,     0.455699048076814,    -0.141460124030574 ]
    - [     0.549163577737959,    -0.828743054817765,     0.266382796775912 ]
    - [    -0.145114439339602,     0.193930056537241,    -0.056199886274579 ]
  - # (1, 36)
    - [    -0.043623121358178,    -0.063225169711953,    -0.001769315893312 ]
    - [    -0.011466991552254,    -0.011397966212623,     0.004171403738241 ]
    - [     0.003398921008050,     0.013404772821377,     0.001163881604245 ]
  - # (1, 37)
    - [     0.002225894121341,     0.002227383912729,    -0.004668844904985 ]
    - [    -0.003452530433627,    -0.002231583399855,    -0.000871100400994 ]
    - [    -0.005100988623233,    -0.007193509157548,     0.007853059026320 ]
  - # (1, 38)
    - [     0.002225892514503,     0.002227383845277,     0.004668844682846 ]
    - [    -0.003452530103378,    -0.002231582923444,     0.000871099354294 ]
    - [     0.005100987837648,     0.007193508740952,     0.007853060163484 ]
  - # (1, 39)
    - [     0.015864228448881,     0.004734079783398,    -0.031217959450838 ]
    - [     0.001857897539938,    -0.001894001249093,     0.001055978733594 ]