phonopy:
  version: "2.37.1"
  frequency_unit_conversion_factor: 15.633302
  symmetry_tolerance: 1.00000e-05

space_group:
  type: "P1"
  number: 1
  Hall_symbol: "P 1"

primitive_matrix:
- [  1.000000000000000, -0.000000000000000, -0.000000000000000 ]
- [  0.000000000000000,  1.000000000000000,  0.000000000000000 ]
- [  0.000000000000000,  0.000000000000000,  1.000000000000000 ]

supercell_matrix:
- [   2,   0,   0 ]
- [   0,   2,   0 ]
- [   0,   0,   2 ]

primitive_cell:
  lattice:
  - [     5.376552250136350,     0.000000000000000,     0.000000000000000 ] # a
  - [    -0.000114344757378,     6.055212453710389,     0.000000000000000 ] # b
  - [    -2.061147745753507,    -3.027464306981877,     7.318309498226324 ] # c
  points:
  - symbol: Li # 1
    coordinates: [  0.890062330797082,  0.520116225290379,  0.283200723160432 ]
    mass: 6.940000
  - symbol: Li # 2
    coordinates: [  0.389765365288263,  0.769106004898577,  0.283196058810676 ]
    mass: 6.940000
  - symbol: Li # 3
    coordinates: [  0.682112006619705,  0.182842165445284,  0.614835898841526 ]
    mass: 6.940000
  - symbol: Li # 4
    coordinates: [  0.975701056835456,  0.101174065592428,  0.945824578216727 ]
    mass: 6.940000
  - symbol: Li # 5
    coordinates: [  0.476214482124660,  0.853319257292292,  0.946235204095739 ]
    mass: 6.940000
  - symbol: Li # 6
    coordinates: [  0.182053700280115,  0.438831481637155,  0.614729447689823 ]
    mass: 6.940000
  - symbol: Ga # 7
    coordinates: [  0.182764998474863,  0.916176782166925,  0.614709261431152 ]
    mass: 69.723000
  - symbol: Ga # 8
    coordinates: [  0.682926922859158,  0.705350687031298,  0.614691773299050 ]
    mass: 69.723000
  - symbol: Sn # 9
    coordinates: [  0.958537008661197,  0.604181157951734,  0.934840326004821 ]
    mass: 118.710000
  - symbol: Sn # 10
    coordinates: [  0.458290658667274,  0.338283791056799,  0.934701971698506 ]
    mass: 118.710000
  - symbol: Sn # 11
    coordinates: [  0.406862747836505,  0.283959116781560,  0.295082883294532 ]
    mass: 118.710000
  - symbol: Sn # 12
    coordinates: [  0.906777953667346,  0.017557011597566,  0.294710836474974 ]
    mass: 118.710000
  reciprocal_lattice: # without 2pi
  - [     0.185992798633109,     0.000003512230429,     0.052384949129877 ] # a*
  - [     0.000000000000000,     0.165146971744524,     0.068318586756117 ] # b*
  - [     0.000000000000000,     0.000000000000000,     0.136643578717511 ] # c*

unit_cell:
  lattice:
  - [     5.376552250136350,     0.000000000000000,     0.000000000000000 ] # a
  - [    -0.000114344757378,     6.055212453710389,     0.000000000000000 ] # b
  - [    -2.061147745753507,    -3.027464306981877,     7.318309498226324 ] # c
  points:
  - symbol: Li # 1
    coordinates: [  0.890062330797082,  0.520116225290379,  0.283200723160432 ]
    mass: 6.940000
    reduced_to: 1
  - symbol: Li # 2
    coordinates: [  0.389765365288263,  0.769106004898577,  0.283196058810676 ]
    mass: 6.940000
    reduced_to: 2
  - symbol: Li # 3
    coordinates: [  0.682112006619705,  0.182842165445284,  0.614835898841526 ]
    mass: 6.940000
    reduced_to: 3
  - symbol: Li # 4
    coordinates: [  0.975701056835456,  0.101174065592428,  0.945824578216727 ]
    mass: 6.940000
    reduced_to: 4
  - symbol: Li # 5
    coordinates: [  0.476214482124660,  0.853319257292292,  0.946235204095739 ]
    mass: 6.940000
    reduced_to: 5
  - symbol: Li # 6
    coordinates: [  0.182053700280115,  0.438831481637155,  0.614729447689823 ]
    mass: 6.940000
    reduced_to: 6
  - symbol: Ga # 7
    coordinates: [  0.182764998474863,  0.916176782166925,  0.614709261431152 ]
    mass: 69.723000
    reduced_to: 7
  - symbol: Ga # 8
    coordinates: [  0.682926922859158,  0.705350687031298,  0.614691773299050 ]
    mass: 69.723000
    reduced_to: 8
  - symbol: Sn # 9
    coordinates: [  0.958537008661197,  0.604181157951734,  0.934840326004821 ]
    mass: 118.710000
    reduced_to: 9
  - symbol: Sn # 10
    coordinates: [  0.458290658667274,  0.338283791056799,  0.934701971698506 ]
    mass: 118.710000
    reduced_to: 10
  - symbol: Sn # 11
    coordinates: [  0.406862747836505,  0.283959116781560,  0.295082883294532 ]
    mass: 118.710000
    reduced_to: 11
  - symbol: Sn # 12
    coordinates: [  0.906777953667346,  0.017557011597566,  0.294710836474974 ]
    mass: 118.710000
    reduced_to: 12

supercell:
  lattice:
  - [    10.753104500272700,     0.000000000000000,     0.000000000000000 ] # a
  - [    -0.000228689514755,    12.110424907420779,     0.000000000000000 ] # b
  - [    -4.122295491507014,    -6.054928613963754,    14.636618996452649 ] # c
  points:
  - symbol: Li # 1
    coordinates: [  0.445031165398541,  0.260058112645189,  0.141600361580216 ]
    mass: 6.940000
    reduced_to: 1
  - symbol: Li # 2
    coordinates: [  0.945031165398541,  0.260058112645189,  0.141600361580216 ]
    mass: 6.940000
    reduced_to: 1
  - symbol: Li # 3
    coordinates: [  0.445031165398541,  0.760058112645189,  0.141600361580216 ]
    mass: 6.940000
    reduced_to: 1
  - symbol: Li # 4
    coordinates: [  0.945031165398541,  0.760058112645189,  0.141600361580216 ]
    mass: 6.940000
    reduced_to: 1
  - symbol: Li # 5
    coordinates: [  0.445031165398541,  0.260058112645189,  0.641600361580216 ]
    mass: 6.940000
    reduced_to: 1
  - symbol: Li # 6
    coordinates: [  0.945031165398541,  0.260058112645189,  0.641600361580216 ]
    mass: 6.940000
    reduced_to: 1
  - symbol: Li # 7
    coordinates: [  0.445031165398541,  0.760058112645189,  0.641600361580216 ]
    mass: 6.940000
    reduced_to: 1
  - symbol: Li # 8
    coordinates: [  0.945031165398541,  0.760058112645189,  0.641600361580216 ]
    mass: 6.940000
    reduced_to: 1
  - symbol: Li # 9
    coordinates: [  0.194882682644131,  0.384553002449289,  0.141598029405338 ]
    mass: 6.940000
    reduced_to: 9
  - symbol: Li # 10
    coordinates: [  0.694882682644131,  0.384553002449289,  0.141598029405338 ]
    mass: 6.940000
    reduced_to: 9
  - symbol: Li # 11
    coordinates: [  0.194882682644131,  0.884553002449289,  0.141598029405338 ]
    mass: 6.940000
    reduced_to: 9
  - symbol: Li # 12
    coordinates: [  0.694882682644131,  0.884553002449289,  0.141598029405338 ]
    mass: 6.940000
    reduced_to: 9
  - symbol: Li # 13
    coordinates: [  0.194882682644131,  0.384553002449289,  0.641598029405338 ]
    mass: 6.940000
    reduced_to: 9
  - symbol: Li # 14
    coordinates: [  0.694882682644131,  0.384553002449289,  0.641598029405338 ]
    mass: 6.940000
    reduced_to: 9
  - symbol: Li # 15
    coordinates: [  0.194882682644131,  0.884553002449289,  0.641598029405338 ]
    mass: 6.940000
    reduced_to: 9
  - symbol: Li # 16
    coordinates: [  0.694882682644131,  0.884553002449289,  0.641598029405338 ]
    mass: 6.940000
    reduced_to: 9
  - symbol: Li # 17
    coordinates: [  0.341056003309853,  0.091421082722642,  0.307417949420763 ]
    mass: 6.940000
    reduced_to: 17
  - symbol: Li # 18
    coordinates: [  0.841056003309853,  0.091421082722642,  0.307417949420763 ]
    mass: 6.940000
    reduced_to: 17
  - symbol: Li # 19
    coordinates: [  0.341056003309853,  0.591421082722642,  0.307417949420763 ]
    mass: 6.940000
    reduced_to: 17
  - symbol: Li # 20
    coordinates: [  0.841056003309853,  0.591421082722642,  0.307417949420763 ]
    mass: 6.940000
    reduced_to: 17
  - symbol: Li # 21
    coordinates: [  0.341056003309853,  0.091421082722642,  0.807417949420763 ]
    mass: 6.940000
    reduced_to: 17
  - symbol: Li # 22
    coordinates: [  0.841056003309853,  0.091421082722642,  0.807417949420763 ]
    mass: 6.940000
    reduced_to: 17
  - symbol: Li # 23
    coordinates: [  0.341056003309853,  0.591421082722642,  0.807417949420763 ]
    mass: 6.940000
    reduced_to: 17
  - symbol: Li # 24
    coordinates: [  0.841056003309853,  0.591421082722642,  0.807417949420763 ]
    mass: 6.940000
    reduced_to: 17
  - symbol: Li # 25
    coordinates: [  0.487850528417728,  0.050587032796214,  0.472912289108363 ]
    mass: 6.940000
    reduced_to: 25
  - symbol: Li # 26
    coordinates: [  0.987850528417728,  0.050587032796214,  0.472912289108363 ]
    mass: 6.940000
    reduced_to: 25
  - symbol: Li # 27
    coordinates: [  0.487850528417728,  0.550587032796214,  0.472912289108363 ]
    mass: 6.940000
    reduced_to: 25
  - symbol: Li # 28
    coordinates: [  0.987850528417728,  0.550587032796214,  0.472912289108363 ]
    mass: 6.940000
    reduced_to: 25
  - symbol: Li # 29
    coordinates: [  0.487850528417728,  0.050587032796214,  0.972912289108363 ]
    mass: 6.940000
    reduced_to: 25
  - symbol: Li # 30
    coordinates: [  0.987850528417728,  0.050587032796214,  0.972912289108363 ]
    mass: 6.940000
    reduced_to: 25
  - symbol: Li # 31
    coordinates: [  0.487850528417728,  0.550587032796214,  0.972912289108363 ]
    mass: 6.940000
    reduced_to: 25
  - symbol: Li # 32
    coordinates: [  0.987850528417728,  0.550587032796214,  0.972912289108363 ]
    mass: 6.940000
    reduced_to: 25
  - symbol: Li # 33
    coordinates: [  0.238107241062330,  0.426659628646146,  0.473117602047870 ]
    mass: 6.940000
    reduced_to: 33
  - symbol: Li # 34
    coordinates: [  0.738107241062330,  0.426659628646146,  0.473117602047870 ]
    mass: 6.940000
    reduced_to: 33
  - symbol: Li # 35
    coordinates: [  0.238107241062330,  0.926659628646146,  0.473117602047870 ]
    mass: 6.940000
    reduced_to: 33
  - symbol: Li # 36
    coordinates: [  0.738107241062330,  0.926659628646146,  0.473117602047870 ]
    mass: 6.940000
    reduced_to: 33
  - symbol: Li # 37
    coordinates: [  0.238107241062330,  0.426659628646146,  0.973117602047870 ]
    mass: 6.940000
    reduced_to: 33
  - symbol: Li # 38
    coordinates: [  0.738107241062330,  0.426659628646146,  0.973117602047870 ]
    mass: 6.940000
    reduced_to: 33
  - symbol: Li # 39
    coordinates: [  0.238107241062330,  0.926659628646146,  0.973117602047870 ]
    mass: 6.940000
    reduced_to: 33
  - symbol: Li # 40
    coordinates: [  0.738107241062330,  0.926659628646146,  0.973117602047870 ]
    mass: 6.940000
    reduced_to: 33
  - symbol: Li # 41
    coordinates: [  0.091026850140057,  0.219415740818577,  0.307364723844911 ]
    mass: 6.940000
    reduced_to: 41
  - symbol: Li # 42
    coordinates: [  0.591026850140057,  0.219415740818577,  0.307364723844911 ]
    mass: 6.940000
    reduced_to: 41
  - symbol: Li # 43
    coordinates: [  0.091026850140057,  0.719415740818577,  0.307364723844911 ]
    mass: 6.940000
    reduced_to: 41
  - symbol: Li # 44
    coordinates: [  0.591026850140057,  0.719415740818577,  0.307364723844911 ]
    mass: 6.940000
    reduced_to: 41
  - symbol: Li # 45
    coordinates: [  0.091026850140057,  0.219415740818577,  0.807364723844911 ]
    mass: 6.940000
    reduced_to: 41
  - symbol: Li # 46
    coordinates: [  0.591026850140057,  0.219415740818577,  0.807364723844911 ]
    mass: 6.940000
    reduced_to: 41
  - symbol: Li # 47
    coordinates: [  0.091026850140057,  0.719415740818577,  0.807364723844911 ]
    mass: 6.940000
    reduced_to: 41
  - symbol: Li # 48
    coordinates: [  0.591026850140057,  0.719415740818577,  0.807364723844911 ]
    mass: 6.940000
    reduced_to: 41
  - symbol: Ga # 49
    coordinates: [  0.091382499237431,  0.458088391083463,  0.307354630715576 ]
    mass: 69.723000
    reduced_to: 49
  - symbol: Ga # 50
    coordinates: [  0.591382499237431,  0.458088391083463,  0.307354630715576 ]
    mass: 69.723000
    reduced_to: 49
  - symbol: Ga # 51
    coordinates: [  0.091382499237431,  0.958088391083463,  0.307354630715576 ]
    mass: 69.723000
    reduced_to: 49
  - symbol: Ga # 52
    coordinates: [  0.591382499237431,  0.958088391083463,  0.307354630715576 ]
    mass: 69.723000
    reduced_to: 49
  - symbol: Ga # 53
    coordinates: [  0.091382499237431,  0.458088391083463,  0.807354630715576 ]
    mass: 69.723000
    reduced_to: 49
  - symbol: Ga # 54
    coordinates: [  0.591382499237431,  0.458088391083463,  0.807354630715576 ]
    mass: 69.723000
    reduced_to: 49
  - symbol: Ga # 55
    coordinates: [  0.091382499237431,  0.958088391083463,  0.807354630715576 ]
    mass: 69.723000
    reduced_to: 49
  - symbol: Ga # 56
    coordinates: [  0.591382499237431,  0.958088391083463,  0.807354630715576 ]
    mass: 69.723000
    reduced_to: 49
  - symbol: Ga # 57
    coordinates: [  0.341463461429579,  0.352675343515649,  0.307345886649525 ]
    mass: 69.723000
    reduced_to: 57
  - symbol: Ga # 58
    coordinates: [  0.841463461429579,  0.352675343515649,  0.307345886649525 ]
    mass: 69.723000
    reduced_to: 57
  - symbol: Ga # 59
    coordinates: [  0.341463461429579,  0.852675343515649,  0.307345886649525 ]
    mass: 69.723000
    reduced_to: 57
  - symbol: Ga # 60
    coordinates: [  0.841463461429579,  0.852675343515649,  0.307345886649525 ]
    mass: 69.723000
    reduced_to: 57
  - symbol: Ga # 61
    coordinates: [  0.341463461429579,  0.352675343515649,  0.807345886649525 ]
    mass: 69.723000
    reduced_to: 57
  - symbol: Ga # 62
    coordinates: [  0.841463461429579,  0.352675343515649,  0.807345886649525 ]
    mass: 69.723000
    reduced_to: 57
  - symbol: Ga # 63
    coordinates: [  0.341463461429579,  0.852675343515649,  0.807345886649525 ]
    mass: 69.723000
    reduced_to: 57
  - symbol: Ga # 64
    coordinates: [  0.841463461429579,  0.852675343515649,  0.807345886649525 ]
    mass: 69.723000
    reduced_to: 57
  - symbol: Sn # 65
    coordinates: [  0.479268504330598,  0.302090578975867,  0.467420163002410 ]
    mass: 118.710000
    reduced_to: 65
  - symbol: Sn # 66
    coordinates: [  0.979268504330598,  0.302090578975867,  0.467420163002410 ]
    mass: 118.710000
    reduced_to: 65
  - symbol: Sn # 67
    coordinates: [  0.479268504330598,  0.802090578975867,  0.467420163002410 ]
    mass: 118.710000
    reduced_to: 65
  - symbol: Sn # 68
    coordinates: [  0.979268504330598,  0.802090578975867,  0.467420163002410 ]
    mass: 118.710000
    reduced_to: 65
  - symbol: Sn # 69
    coordinates: [  0.479268504330598,  0.302090578975867,  0.967420163002410 ]
    mass: 118.710000
    reduced_to: 65
  - symbol: Sn # 70
    coordinates: [  0.979268504330598,  0.302090578975867,  0.967420163002410 ]
    mass: 118.710000
    reduced_to: 65
  - symbol: Sn # 71
    coordinates: [  0.479268504330598,  0.802090578975867,  0.967420163002410 ]
    mass: 118.710000
    reduced_to: 65
  - symbol: Sn # 72
    coordinates: [  0.979268504330598,  0.802090578975867,  0.967420163002410 ]
    mass: 118.710000
    reduced_to: 65
  - symbol: Sn # 73
    coordinates: [  0.229145329333637,  0.169141895528399,  0.467350985849253 ]
    mass: 118.710000
    reduced_to: 73
  - symbol: Sn # 74
    coordinates: [  0.729145329333637,  0.169141895528399,  0.467350985849253 ]
    mass: 118.710000
    reduced_to: 73
  - symbol: Sn # 75
    coordinates: [  0.229145329333637,  0.669141895528399,  0.467350985849253 ]
    mass: 118.710000
    reduced_to: 73
  - symbol: Sn # 76
    coordinates: [  0.729145329333637,  0.669141895528399,  0.467350985849253 ]
    mass: 118.710000
    reduced_to: 73
  - symbol: Sn # 77
    coordinates: [  0.229145329333637,  0.169141895528399,  0.967350985849253 ]
    mass: 118.710000
    reduced_to: 73
  - symbol: Sn # 78
    coordinates: [  0.729145329333637,  0.169141895528399,  0.967350985849253 ]
    mass: 118.710000
    reduced_to: 73
  - symbol: Sn # 79
    coordinates: [  0.229145329333637,  0.669141895528399,  0.967350985849253 ]
    mass: 118.710000
    reduced_to: 73
  - symbol: Sn # 80
    coordinates: [  0.729145329333637,  0.669141895528399,  0.967350985849253 ]
    mass: 118.710000
    reduced_to: 73
  - symbol: Sn # 81
    coordinates: [  0.203431373918253,  0.141979558390780,  0.147541441647266 ]
    mass: 118.710000
    reduced_to: 81
  - symbol: Sn # 82
    coordinates: [  0.703431373918253,  0.141979558390780,  0.147541441647266 ]
    mass: 118.710000
    reduced_to: 81
  - symbol: Sn # 83
    coordinates: [  0.203431373918253,  0.641979558390780,  0.147541441647266 ]
    mass: 118.710000
    reduced_to: 81
  - symbol: Sn # 84
    coordinates: [  0.703431373918253,  0.641979558390780,  0.147541441647266 ]
    mass: 118.710000
    reduced_to: 81
  - symbol: Sn # 85
    coordinates: [  0.203431373918253,  0.141979558390780,  0.647541441647266 ]
    mass: 118.710000
    reduced_to: 81
  - symbol: Sn # 86
    coordinates: [  0.703431373918253,  0.141979558390780,  0.647541441647266 ]
    mass: 118.710000
    reduced_to: 81
  - symbol: Sn # 87
    coordinates: [  0.203431373918253,  0.641979558390780,  0.647541441647266 ]
    mass: 118.710000
    reduced_to: 81
  - symbol: Sn # 88
    coordinates: [  0.703431373918253,  0.641979558390780,  0.647541441647266 ]
    mass: 118.710000
    reduced_to: 81
  - symbol: Sn # 89
    coordinates: [  0.453388976833673,  0.008778505798783,  0.147355418237487 ]
    mass: 118.710000
    reduced_to: 89
  - symbol: Sn # 90
    coordinates: [  0.953388976833673,  0.008778505798783,  0.147355418237487 ]
    mass: 118.710000
    reduced_to: 89
  - symbol: Sn # 91
    coordinates: [  0.453388976833673,  0.508778505798783,  0.147355418237487 ]
    mass: 118.710000
    reduced_to: 89
  - symbol: Sn # 92
    coordinates: [  0.953388976833673,  0.508778505798783,  0.147355418237487 ]
    mass: 118.710000
    reduced_to: 89
  - symbol: Sn # 93
    coordinates: [  0.453388976833673,  0.008778505798783,  0.647355418237487 ]
    mass: 118.710000
    reduced_to: 89
  - symbol: Sn # 94
    coordinates: [  0.953388976833673,  0.008778505798783,  0.647355418237487 ]
    mass: 118.710000
    reduced_to: 89
  - symbol: Sn # 95
    coordinates: [  0.453388976833673,  0.508778505798783,  0.647355418237487 ]
    mass: 118.710000
    reduced_to: 89
  - symbol: Sn # 96
    coordinates: [  0.953388976833673,  0.508778505798783,  0.647355418237487 ]
    mass: 118.710000
    reduced_to: 89

displacements:
- atom:    1
  displacement:
    [   0.0100000000000000,  0.0000000000000000,  0.0000000000000000 ]
  forces:
  - [   0.0504997298121452,  0.0189651921391487,  0.0443235561251640 ]
  - [   0.0658030360937119,  0.0207376871258020,  0.0458868257701397 ]
  - [   0.0654613003134727,  0.0206180233508348,  0.0459927767515182 ]
  - [   0.0653620436787605,  0.0207700803875923,  0.0459946356713772 ]
  - [   0.0653782859444618,  0.0207391884177923,  0.0459858290851116 ]
  - [   0.0653821080923080,  0.0207334849983454,  0.0459960699081421 ]
  - [   0.0653808191418648,  0.0207270421087742,  0.0459939278662205 ]
  - [   0.0653888657689095,  0.0207642782479525,  0.0460567697882652 ]
  - [   0.0709203407168388, -0.0153674073517323,  0.0486802048981190 ]
  - [   0.0709815174341202, -0.0135835222899914,  0.0487225726246834 ]
  - [   0.0690571814775467, -0.0147217344492674,  0.0487150363624096 ]
  - [   0.0690571814775467, -0.0150345526635647,  0.0486873053014278 ]
  - [   0.0691117122769356, -0.0145671702921391,  0.0486521385610104 ]
  - [   0.0691054463386536, -0.0145967435091734,  0.0486860424280167 ]
  - [   0.0691073462367058, -0.0145923867821693,  0.0486920103430748 ]
  - [   0.0691131129860878, -0.0145841948688030,  0.0486833639442921 ]
  - [   0.0036669494584203, -0.0793844535946846, -0.0000436445698142 ]
  - [   0.0038323863409460, -0.0798178464174271,  0.0007135430350900 ]
  - [   0.0038227033801377, -0.0795697793364525,  0.0005811969749629 ]
  - [   0.0037280772812665, -0.0797451809048653,  0.0002738907933235 ]
  - [   0.0035645056050271, -0.0796262323856354,  0.0003859724383801 ]
  - [   0.0037021012976766, -0.0796699225902557,  0.0004351732786745 ]
  - [   0.0037388980854303, -0.0796377509832382,  0.0003931026440114 ]
  - [   0.0037295969668776, -0.0796608626842499,  0.0003740586107597 ]
  - [  -0.0685917586088181, -0.0182379744946957, -0.0435019508004189 ]
  - [  -0.0685874149203300, -0.0182553902268410, -0.0434860996901989 ]
  - [  -0.0686762705445290, -0.0182461999356747, -0.0435489006340504 ]
  - [  -0.0685482025146484, -0.0182337798178196, -0.0434757098555565 ]
  - [  -0.0683846473693848, -0.0184251759201288, -0.0443492978811264 ]
  - [  -0.0686092376708984, -0.0183106977492571, -0.0432732291519642 ]
  - [  -0.0686371475458145, -0.0182454455643892, -0.0434596352279186 ]
  - [  -0.0685749650001526, -0.0182057544589043, -0.0435137599706650 ]
  - [  -0.0720032304525375,  0.0094652287662029, -0.0489609390497208 ]
  - [  -0.0718144252896309,  0.0093989260494709, -0.0492986440658569 ]
  - [  -0.0718285813927650,  0.0094600878655910, -0.0492955185472965 ]
  - [  -0.0718468949198723,  0.0094921216368675, -0.0492926500737667 ]
  - [  -0.0718345940113068,  0.0098302736878395, -0.0494652502238750 ]
  - [  -0.0717676803469658,  0.0094148665666580, -0.0492789447307587 ]
  - [  -0.0718414112925529,  0.0097121577709913, -0.0489773824810982 ]
  - [  -0.0717689171433449,  0.0095031894743443, -0.0494724623858929 ]
  - [   0.0020022043026984,  0.0799226090312004,  0.0003825844614767 ]
  - [   0.0021235933527350,  0.0797374248504639,  0.0017063262639567 ]
  - [   0.0018443785374984,  0.0800701901316643,  0.0006943836924620 ]
  - [   0.0018446915782988,  0.0800865367054939,  0.0005575297982432 ]
  - [   0.0019398056901991,  0.0803019478917122,  0.0003475882112980 ]
  - [   0.0018428736366332,  0.0800692886114120,  0.0008162632584572 ]
  - [   0.0018387581221759,  0.0801287069916725,  0.0006692940369248 ]
  - [   0.0018378025852144,  0.0800867676734924,  0.0006696823984385 ]
  - [  -0.0009423419833183, -0.0291906725615263, -0.0009639803320169 ]
  - [  -0.0008001197129488, -0.0289084501564503, -0.0005137857515365 ]
  - [  -0.0009069438092411, -0.0292813479900360, -0.0009769442258403 ]
  - [  -0.0008535748347640, -0.0292899310588837, -0.0010167313739657 ]
  - [  -0.0008414566982538, -0.0293029285967350, -0.0009481618180871 ]
  - [  -0.0008650464005768, -0.0292748268693686, -0.0009894953109324 ]
  - [  -0.0008947112364694, -0.0293980240821838, -0.0011829917784780 ]
  - [  -0.0008041092660278, -0.0291595868766308, -0.0008057880913839 ]
  - [   0.0005168374627829,  0.0325036197900772, -0.0003996973973699 ]
  - [  -0.0009166961535811,  0.0324099659919739,  0.0004325623740442 ]
  - [  -0.0008131568320096,  0.0324489623308182,  0.0004825322248507 ]
  - [  -0.0008610340300947,  0.0324427969753742,  0.0004177072842140 ]
  - [  -0.0008556116372347,  0.0324369780719280,  0.0004590894095600 ]
  - [  -0.0008366182446480,  0.0325359329581261,  0.0003593745641410 ]
  - [  -0.0007893885485828,  0.0324476957321167,  0.0004592858022079 ]
  - [  -0.0008399588405155,  0.0323932021856308,  0.0003974032588303 ]
  - [  -0.0346739441156387, -0.0521630048751831,  0.0831897258758545 ]
  - [  -0.0345628783106804, -0.0521658733487129,  0.0832319706678391 ]
  - [  -0.0346115007996559, -0.0521692223846912,  0.0832379013299942 ]
  - [  -0.0345412939786911, -0.0521471798419952,  0.0832973122596741 ]
  - [  -0.0338084921240807, -0.0522059798240662,  0.0825517401099205 ]
  - [  -0.0346202813088894, -0.0523637756705284,  0.0833487063646317 ]
  - [  -0.0345989763736725, -0.0521996468305588,  0.0833131596446037 ]
  - [  -0.0346586182713509, -0.0522234886884689,  0.0832772254943848 ]
  - [  -0.0293573439121246,  0.0523914434015751,  0.0838532596826553 ]
  - [  -0.0293058045208454,  0.0523681566119194,  0.0838367566466331 ]
  - [  -0.0292880646884441,  0.0523944720625877,  0.0838400050997734 ]
  - [  -0.0293039269745350,  0.0522548332810402,  0.0835874527692795 ]
  - [  -0.0279922038316727,  0.0514662899076939,  0.0875531360507011 ]
  - [  -0.0292633883655071,  0.0522628873586655,  0.0839670151472092 ]
  - [  -0.0293052494525909,  0.0523945800960064,  0.0838242620229721 ]
  - [  -0.0292999409139156,  0.0523847490549088,  0.0838536918163300 ]
  - [   0.0387341156601906, -0.0486539006233215, -0.0888874307274818 ]
  - [   0.0356112234294415, -0.0534620434045792, -0.0883992090821266 ]
  - [   0.0318601131439209, -0.0524454116821289, -0.0880151093006134 ]
  - [   0.0318141914904118, -0.0521491505205631, -0.0879659801721573 ]
  - [   0.0318010225892067, -0.0522725433111191, -0.0879592075943947 ]
  - [   0.0318424254655838, -0.0522798970341682, -0.0879856422543526 ]
  - [   0.0318205133080482, -0.0522754080593586, -0.0879782065749168 ]
  - [   0.0318002849817276, -0.0522971898317337, -0.0879418179392815 ]
  - [   0.0336636118590832,  0.0511470921337605, -0.0814387276768684 ]
  - [   0.0309414714574814,  0.0511299408972263, -0.0815607160329819 ]
  - [   0.0343544334173203,  0.0515928268432617, -0.0811634436249733 ]
  - [   0.0339371412992477,  0.0511666275560856, -0.0814555436372757 ]
  - [   0.0341187454760075,  0.0510419793426991, -0.0815813392400742 ]
  - [   0.0341190397739410,  0.0510822460055351, -0.0815991908311844 ]
  - [   0.0341065898537636,  0.0511018857359886, -0.0815360546112061 ]
  - [   0.0341169573366642,  0.0510651692748070, -0.0815616697072983 ]
- atom:    1
  displacement:
    [  -0.0100000000000000,  0.0000000000000000,  0.0000000000000000 ]
  forces:
  - [   0.0803839862346649,  0.0226253531873226,  0.0477329604327679 ]
  - [   0.0649542361497879,  0.0207223147153854,  0.0460966788232327 ]
  - [   0.0652899369597435,  0.0208442304283381,  0.0459923036396503 ]
  - [   0.0653880909085274,  0.0206861663609743,  0.0459876395761967 ]
  - [   0.0653718188405037,  0.0207194350659847,  0.0460013896226883 ]
  - [   0.0653674751520157,  0.0207245778292418,  0.0459915883839130 ]
  - [   0.0653674900531769,  0.0207321755588055,  0.0459907501935959 ]
  - [   0.0653597712516785,  0.0206947587430477,  0.0459295660257339 ]
  - [   0.0672751814126968, -0.0137980990111828,  0.0487129166722298 ]
  - [   0.0673060268163681, -0.0155768766999245,  0.0486699603497982 ]
  - [   0.0691853910684586, -0.0144355781376362,  0.0486762113869190 ]
  - [   0.0691820681095123, -0.0141527280211449,  0.0487027093768120 ]
  - [   0.0691305845975876, -0.0146159436553717,  0.0487393029034138 ]
  - [   0.0691374838352203, -0.0145877338945866,  0.0487040542066097 ]
  - [   0.0691377222537994, -0.0145913586020470,  0.0486985519528389 ]
  - [   0.0691310837864876, -0.0145993866026402,  0.0487063787877560 ]
  - [   0.0038275774568319, -0.0799121111631393,  0.0007967804558575 ]
  - [   0.0036575431004167, -0.0794852524995804,  0.0000533303245902 ]
  - [   0.0036707445979118, -0.0797399431467056,  0.0001765792258084 ]
  - [   0.0037636305205524, -0.0795583724975586,  0.0004877988249063 ]
  - [   0.0039279786869884, -0.0796770825982094,  0.0003802953287959 ]
  - [   0.0037882211618125, -0.0796322971582413,  0.0003323687706143 ]
  - [   0.0037529820110649, -0.0796658545732498,  0.0003677293425426 ]
  - [   0.0037604561075568, -0.0796414986252785,  0.0003916007699445 ]
  - [  -0.0685846954584122, -0.0182405728846788, -0.0435073114931583 ]
  - [  -0.0685882270336151, -0.0182247795164585, -0.0435235537588596 ]
  - [  -0.0684994459152222, -0.0182297471910715, -0.0434577204287052 ]
  - [  -0.0686307102441788, -0.0182481203228235, -0.0435307621955872 ]
  - [  -0.0687971264123917, -0.0180505514144897, -0.0426614806056023 ]
  - [  -0.0685645788908005, -0.0181677080690861, -0.0437199547886848 ]
  - [  -0.0685408785939217, -0.0182309672236443, -0.0435512699186802 ]
  - [  -0.0686036646366119, -0.0182691719383001, -0.0434933379292488 ]
  - [  -0.0716961398720741,  0.0094699710607529, -0.0496194511651993 ]
  - [  -0.0718853399157524,  0.0095358639955521, -0.0492802932858467 ]
  - [  -0.0718728303909302,  0.0094739161431789, -0.0492817424237728 ]
  - [  -0.0718547850847244,  0.0094417855143547, -0.0492837168276310 ]
  - [  -0.0718655213713646,  0.0090914722532034, -0.0491097345948219 ]
  - [  -0.0719326287508011,  0.0095170885324478, -0.0492993853986263 ]
  - [  -0.0718623921275139,  0.0092296842485666, -0.0495916157960892 ]
  - [  -0.0719342529773712,  0.0094295088201761, -0.0491062924265862 ]
  - [   0.0016822657780722,  0.0802842676639557,  0.0009643023367971 ]
  - [   0.0015403889119625,  0.0804693549871445, -0.0003504782507662 ]
  - [   0.0018330656457692,  0.0801322758197784,  0.0006598554318771 ]
  - [   0.0018318714573979,  0.0801164507865906,  0.0007998528308235 ]
  - [   0.0017324835062027,  0.0799032449722290,  0.0010057063773274 ]
  - [   0.0018342114053667,  0.0801341757178307,  0.0005397405475378 ]
  - [   0.0018383129499853,  0.0800730213522911,  0.0006859516724944 ]
  - [   0.0018387320451438,  0.0801160037517548,  0.0006866892799735 ]
  - [  -0.0007723087910563, -0.0293567180633545, -0.0009687402052805 ]
  - [  -0.0009262161329389, -0.0296354498714209, -0.0014278383459896 ]
  - [  -0.0008068636525422, -0.0292635932564735, -0.0009500313317403 ]
  - [  -0.0008628680370748, -0.0292521044611931, -0.0009172670543194 ]
  - [  -0.0008755703456700, -0.0292420089244843, -0.0009837757097557 ]
  - [  -0.0008514530491084, -0.0292695090174675, -0.0009422772563994 ]
  - [  -0.0008232370018959, -0.0291423574090004, -0.0007430571131408 ]
  - [  -0.0009141276823357, -0.0293853022158146, -0.0011285855434835 ]
  - [  -0.0022201200481504,  0.0324320420622826,  0.0012972941622138 ]
  - [  -0.0007733501261100,  0.0325192660093307,  0.0004264215822332 ]
  - [  -0.0008634763071314,  0.0324818864464760,  0.0003878341813106 ]
  - [  -0.0008148864144459,  0.0324888899922371,  0.0004528859572019 ]
  - [  -0.0008197585120797,  0.0324946157634258,  0.0004102606326342 ]
  - [  -0.0008392939344049,  0.0323954932391644,  0.0005098441615701 ]
  - [  -0.0008869001758285,  0.0324867889285088,  0.0004104018444195 ]
  - [  -0.0008355673635378,  0.0325384214520454,  0.0004742628661916 ]
  - [  -0.0344689339399338, -0.0522178001701832,  0.0833551660180092 ]
  - [  -0.0345817320048809, -0.0522099658846855,  0.0833141133189201 ]
  - [  -0.0345308408141136, -0.0522067435085773,  0.0833047926425934 ]
  - [  -0.0346030555665493, -0.0522288307547569,  0.0832466259598732 ]
  - [  -0.0353448577225208, -0.0521683841943741,  0.0839922130107880 ]
  - [  -0.0345237627625465, -0.0520118065178394,  0.0831886380910873 ]