18
Lattice="4.266742304428323 -0.012121164034098 -0.8050204900749012 -0.4997891372043462 7.747340960944737 -2.7638656508823782 -0.14255968113415915 -0.39581995347130056 10.964308615619734" Properties=species:S:1:pos:R:3:forces:R:3 structure_index=0 total_energy=-53.58157730102539 stress="-0.015038156881928444 -8.410778536926955e-05 -6.249761645449325e-05 -8.415129559580237e-05 -0.013487465679645538 -0.00015033567615319043 -6.248924910323694e-05 -0.0001502001250628382 -0.015057060867547989" pbc="T T T"
Li       0.76459906       5.54377769       0.39207593      -0.00292053       0.00811131      -0.01688937
Li      -0.43798976       7.24036005       5.70170599       0.00236934      -0.02427199       0.01365629
Li       2.06935450       1.91854195       7.35860501      -0.00177680       0.00456965      -0.00720726
Li       0.94107276       1.49411703       1.38565909       0.00455933       0.02702229       0.02443104
Li       3.65185662       3.45389397       4.01106183      -0.00789160      -0.03658876      -0.03679213
Ga      -0.08774872       3.78125492       7.60618421       0.00002653      -0.02768555       0.00282549
Ga       1.46205154       1.55661065       4.14775727       0.00212808      -0.01773243       0.01052357
Ga       0.27486550       6.63677245      -2.22420471      -0.00205857       0.00199122      -0.01217399
Ga       3.89590871       1.09043968       5.34574346       0.00451718      -0.00770550       0.02046726
Ga       3.27401600       5.96043846       1.97828369      -0.00345309       0.02850167      -0.02122826
Ga       1.22723034       4.16333861       2.86275432      -0.00093591       0.04144070      -0.00657365
Ga       0.32332491       2.30575787       9.80934828       0.00107635      -0.00758680       0.00831261
Ga       2.52508539       4.86015055      -1.98267146      -0.00017671       0.00751828      -0.00080953
Ga       1.34862254       7.09993438       3.46628308       0.00822502      -0.00452396       0.04156657
Sn       2.55144430       0.15694467       9.94114168      -0.00245014       0.00812931      -0.01068445
Sn       3.32459926      -0.08940082       2.33452067      -0.00251764       0.00955422      -0.01534140
Sn       1.76814429       4.97894320       5.71517797       0.00078748      -0.02147463       0.00475573
Sn       2.99253662       3.41314765       0.52038366       0.00049170       0.01073100       0.00116153
12
Lattice="4.461059089266132 0.0007052093965296709 -0.0006254797694554905 -0.0012043590851267651 6.628752846011832 0.014802379864167428 0.0006435991046774711 0.0561536097058359 8.385753926835495" Properties=species:S:1:pos:R:3:forces:R:3 structure_index=1 total_energy=-35.909095764160156 stress="-0.004190721083432436 0.00010482941434020177 -0.00011009474110323936 0.00010497323091840371 0.0028911572881042957 0.0007206904701888561 -0.00011002118117175996 0.0007206567679531872 -0.005241455975919962" pbc="T T T"
Li       0.19894920       5.40483538       0.96704279       0.00029955       0.01871419       0.01233096
Li       2.43037511       5.48062216       6.05402483      -0.00030407       0.00333820      -0.04046497
Li       2.43142689       1.98391562       5.07067954      -0.00036035      -0.00054133       0.00884788
Li       0.19962057       1.97408463       2.19432137      -0.00015794      -0.01339348       0.01653051
Ga       2.43000911       3.46934281       0.11949283      -0.00015467       0.03457722      -0.00898701
Ga       0.19937100       4.15510831       4.35051508       0.00000315      -0.01059072       0.01056276
Ga       0.20067106       0.65130820       6.85591397       0.00026554      -0.02208148      -0.01025508
Ga       2.43067468       0.15793764       2.90194602       0.00013334       0.00045723       0.00173702
Ga       0.20044512       0.14481499       4.30466667      -0.00003668       0.00742932       0.00020118
Sn       0.19991953       3.44046285       6.96294705       0.00047239       0.01873947       0.01485019
Sn       2.42964126       3.98238202       2.78589741       0.00039431      -0.02349688      -0.00344259
Sn       2.43075925       0.67499677       0.13699975      -0.00055459      -0.01315182      -0.00191089
12
Lattice="4.282865950730733 0.0014736823763973927 -0.0004284057585643136 -0.0020019840779958655 5.694012265654747 -0.008225783019614592 0.0007290493719887976 -0.0158112492355875 8.528006599252953" Properties=species:S:1:pos:R:3:forces:R:3 structure_index=2 total_energy=-32.433860778808594 stress="-0.0057165962643921375 5.662707189912908e-05 -8.752207941142842e-05 5.6543351092841476e-05 0.008141806349158287 0.0004075299948453903 -8.761302888160571e-05 0.0004077595949638635 -0.028300775215029716" pbc="T T T"
Li       0.51758832       0.46776523       4.69571171      -0.00048956      -0.02332985      -0.01385091
Li       2.65741498       4.49063066       3.04698977       0.00012689       0.03408006       0.00747263
Li       2.65736501       4.82918747       5.84067653       0.00026805      -0.03516394       0.00576084
Li       2.65824481       1.64022003       0.36032280      -0.00013794       0.03481384      -0.00752160
Li       0.51744864       0.17619473       1.75564710      -0.00016505       0.04088399      -0.02012089
Li       0.51650164       3.02335100       1.65628145      -0.00025441       0.04023226       0.01914020
Li       0.51659807       3.29898079       7.24587269       0.00033042      -0.02165834       0.01585498
Li       2.65842155       1.98213560       6.09699896       0.00009397      -0.03506899      -0.00450753
Ga       0.51765400       0.46006564       7.40950518       0.00023785      -0.00643995      -0.02689568
Ga       0.51656673       3.32473655       4.52945900      -0.00034470      -0.00592840       0.02716547
Sn       2.65718797       4.51886601       0.12267766      -0.00029394      -0.01103267       0.02047136
Sn       2.65831405       1.67528045       3.28581605       0.00062840      -0.01138796      -0.02296881
10
Lattice="4.320127296181177 -0.0030290824676216144 -0.0004233742827539908 -2.1563214427955852 5.117936236496845 0.07066577467918565 -0.0006658347400270602 0.04920218420948515 9.496881305759961" Properties=species:S:1:pos:R:3:forces:R:3 structure_index=3 total_energy=-31.12218475341797 stress="0.02988366410136223 0.00011573591473279521 -0.0031322163995355368 0.00011586235632421449 0.02583589032292366 -0.010568440891802311 -0.003132190555334091 -0.010568383149802685 0.030621007084846497" pbc="T T T"
Li       3.52860478       0.49092740       7.43295105      -0.00013630       0.02393187       0.00989797
Li       1.37149877       4.45856308       4.64730624       0.00062310      -0.01806486      -0.00608772
Li       1.36909404       2.53518119       8.41021821       0.00235546       0.00740388      -0.01184276
Li       1.36858944       0.55371679       2.70965139       0.00098627       0.00208943       0.00276600
Ga      -0.78907205       2.44509593       3.69916980      -0.00337679      -0.00421232       0.02063373
Ga      -0.78869671       4.58791342       9.39002922      -0.00096375      -0.01697543      -0.01199374
Sn       1.36895950       1.39697677       5.52277268       0.00212990       0.02385655      -0.01891733
Sn      -0.78879643       3.57657274       6.60406059      -0.00217067      -0.00262787       0.02543871
Sn       3.53020026       1.43217087       0.74013705      -0.00251402       0.00486707      -0.01138934
Sn       1.37019090       3.57106566       1.82885836       0.00306679      -0.02026834       0.00149447
8
Lattice="4.901583768654558 0.0017959119014239848 0.0004273133745309308 -0.0017989341679924917 5.374870104245254 -3.0009908706921054 -0.001398917912920036 -0.026939697674150002 6.025796296676998" Properties=species:S:1:pos:R:3:forces:R:3 structure_index=4 total_energy=-24.342683792114258 stress="0.008558755740523338 -3.3085583709180355e-05 -0.00021855613158550113 -3.295696296845563e-05 -0.0010311941150575876 -0.02253929153084755 -0.00021859619300812483 -0.022539397701621056 0.014193872921168804" pbc="T T T"
Li       4.79400132       5.31676858       0.06466369      -0.00027628       0.01442344       0.00172522
Li       2.34316222       3.45452186       3.08210923      -0.00003615      -0.01291884      -0.00174919
Ga       4.79344356       2.53439197       4.53395028       0.00057066       0.01370028       0.00350386
Ga       2.34540972       0.86202780       1.61307625      -0.00084269      -0.01147417      -0.00255527
Ga       2.34382796       0.86133743       4.52593240       0.00054960      -0.02586892       0.00305776
Ga       4.79472626       2.53788833       1.62148367       0.00009703       0.02209308      -0.00306939
Sn       2.34347527       3.49639623       0.07321912       0.00044500      -0.02448774      -0.00494601
Sn       4.79490637       5.30321729      -2.95162579      -0.00050714       0.02453285       0.00403302
9
Lattice="4.238091348657176 0.004119285622104286 -1.1721503997433411 -0.2139718845952536 6.052826369345578 -0.75022214016283 -0.08262554082766109 -0.05725739253137515 7.942005298672319" Properties=species:S:1:pos:R:3:forces:R:3 structure_index=5 total_energy=-28.42813491821289 stress="-0.0014809872955083847 -0.002878678496927023 -0.0007216937374323606 -0.0028786908369511366 -0.00776158832013607 -0.009885397739708424 -0.0007216408848762512 -0.009885395877063274 -0.004873190075159073" pbc="T T T"
Li       3.65441275       3.59028677       2.61518598       0.00462720       0.01344500       0.01836049
Li       1.92392012       5.48694148       4.61606351      -0.00305672      -0.01608645      -0.01128989
Li       2.99448554       0.20977339       0.22251519      -0.00020839       0.03248772       0.00016210
Ga       1.13420837       4.97895780       1.75685351      -0.00790298       0.00994985      -0.02649948
Ga       0.32695207       1.09599676       7.07505957       0.00786919      -0.01044581       0.02320962
Sn       0.29732240       4.27135093       6.97801224       0.00388767      -0.00286696       0.01134574
Sn       3.77298168       0.53908351       3.03250937      -0.00716224      -0.01541221      -0.02513555
Sn       2.05960249       2.51640892       5.09540453       0.00937192      -0.02645579       0.03385776
Sn       1.15612920       2.06128005       1.82549333      -0.00742566       0.01538467      -0.02401082
9
Lattice="4.21213622057504 0.007924156592701135 1.1162601738150253 2.03521281087318 4.956237898541547 0.7886594295283277 0.019945264404687194 -0.13420629762785657 8.417634788506986" Properties=species:S:1:pos:R:3:forces:R:3 structure_index=6 total_energy=-26.376176834106445 stress="-0.03015970252454281 -0.005470593459904194 -0.008184353820979595 -0.0054705506190657616 -0.021156717091798782 0.0211543757468462 -0.008184514008462429 0.02115424908697605 -0.008381102234125137" pbc="T T T"
Li       3.25210237       3.94134400       7.74435217      -0.00284957      -0.01415519       0.01756326
Li       4.15388810       2.69331714       4.37546114      -0.00483376      -0.00927747       0.00622855
Li       0.57850005       0.90667702       0.86666084       0.00520286       0.02640660      -0.02773586
Li       5.86565066       4.77754195       6.39296173       0.00539188       0.01813683      -0.02501387
Ga       3.18603409       0.97583372       8.02085116      -0.00224717       0.03654727       0.00285363
Ga       4.80858720       3.99006027       1.88967934       0.00379693       0.01331546      -0.01055141
Ga       2.61306237       2.72650797       1.67944925       0.00122421      -0.03337512      -0.00811431
Sn       1.45833860       1.97688874       6.02525096       0.00059610      -0.04206346       0.01077524
Sn       2.15163308       0.61659409       3.42964321      -0.00628148       0.00446507       0.03399476
7
Lattice="4.550168491983444 0.0019027400802081307 -0.0040262004170243705 -2.2715133728452694 3.9394454907069503 0.0016593161190438803 0.003325268920334104 -0.004115207422263544 8.795863176756605" Properties=species:S:1:pos:R:3:forces:R:3 structure_index=7 total_energy=-20.998991012573242 stress="0.016195479780435562 -0.0011178840650245547 0.0012115085264667869 -0.0011175868567079306 0.016119694337248802 0.000274204823654145 0.0012116149300709367 0.0002739928604569286 0.005552711896598339" pbc="T T T"
Li       2.14703801       1.11491562       7.89284329       0.00067387      -0.00122947       0.01904253
Li       2.15107074       3.73851132       4.14400607      -0.00175089       0.00040098      -0.04438973
Ga      -0.12494641       2.42716701       5.84979059       0.00162969      -0.00198357      -0.00520854
Ga      -0.12481646       2.42451351       3.21605401      -0.00013152       0.00089348       0.04633266
Ga       2.15313510       3.73967703       0.90183379      -0.00029848       0.00020426      -0.01125740
Sn       2.15101034       3.74164921       6.87382065      -0.00114931       0.00145467      -0.00108372
Sn       2.14973171       1.11193857       2.10893849       0.00102667       0.00025964      -0.00343576
12
Lattice="4.778938690757523 0.002543683063161982 -0.0010020310838331965 -0.0029507609647005037 5.026942694081091 -0.0318220859727956 0.001396985905066399 0.07246721027576541 8.979396815612288" Properties=species:S:1:pos:R:3:forces:R:3 structure_index=8 total_energy=-34.043243408203125 stress="-0.012387201189994812 -0.00018158910097554326 -5.470226096804254e-05 -0.0001816505828173831 -0.017288995906710625 0.0005839113146066666 -5.451827382785268e-05 0.0005839223740622401 -0.018824459984898567" pbc="T T T"
Li       1.50382006       2.47955463       1.07400499       0.00041800       0.00971565       0.00439425
Li       3.89545827       0.93652211       4.07255021      -0.00026308       0.00456809      -0.02720835
Li       1.50474917       2.61337532       6.88684509       0.00047221      -0.02353193      -0.01193292
Li       1.50266580       5.06099975       2.60043096       0.00047589       0.00303466      -0.01486226
Li       3.89452968       3.31292772       8.46622490      -0.00092453       0.04003636      -0.00425176
Li       3.89408273       3.46017661       5.41351663      -0.00030701       0.01586310       0.02137944
Ga       1.50481472       2.55367671       4.10835942      -0.00013744       0.01322813       0.00150265
Ga       3.89429917       0.86808895       1.00501538      -0.00011490      -0.01257367       0.01096084
Ga       1.50672833       0.10025170       5.42634554      -0.00051480      -0.01142921      -0.00203681
Ga       3.89512006       0.96645495       6.83474390       0.00062804      -0.03209651      -0.01014880
Sn       1.50348668       5.07732078       8.48287014       0.00027827       0.01564601       0.02916022
Sn       3.89315866       3.39228475       2.48034623      -0.00001063      -0.02246067       0.00304346
6
Lattice="4.9004515110655555 0.00032088119251658505 2.8235258962432854 1.6351178854594726 4.621957197528171 2.82427994871606 0.0012351568511435804 0.0007934513940829829 5.657047477955789" Properties=species:S:1:pos:R:3:forces:R:3 structure_index=9 total_energy=-17.595993041992188 stress="-0.018974564969539642 0.000280186504824087 -0.0062033263966441154 0.0002801742812152952 -0.019167277961969376 -0.0039692833088338375 -0.006203304976224899 -0.003969457931816578 -0.0235691349953413" pbc="T T T"
Ga       3.57549789       1.00079012       4.95152941      -0.01724964      -0.01250839       0.03509919
Ga       3.57644968       1.00224473       7.78991733      -0.02383972      -0.01562798      -0.03692322
Ga       1.12389609       2.73307976       3.54452830      -0.00056053      -0.00012965      -0.00142530
Ga       4.39147586       3.30426919       9.19721913      -0.00023684       0.04431368       0.00391875
Ga       1.11650182       1.00218049       6.37185594       0.04344220      -0.01527776       0.00426412
Sn       2.75917875       3.88796092       6.37219238      -0.00155548      -0.00076989      -0.00493355
12
Lattice="3.9439076899071774 -0.00022707242318891564 -1.3891633001382042 -0.03329162072015927 8.416041533797152 -0.09639542927457523 0.03277657423209738 -0.029037781639531916 6.385086938093978" Properties=species:S:1:pos:R:3:forces:R:3 structure_index=10 total_energy=-34.35246658325195 stress="0.006938181351870298 0.003157160710543394 0.012693339958786964 0.003157219849526882 -0.015161365270614624 0.00877401977777481 0.012693483382463455 0.00877389870584011 0.032056380063295364" pbc="T T T"
Li       2.89245919       7.01912438       1.33463367      -0.00152056       0.01900236      -0.00386929
Li       2.29123939       0.59752603      -0.37056774       0.00041154       0.00906738       0.00091477
Li       2.95310226       2.59692090       1.50620273       0.00483602      -0.02300796       0.01545595
Li       1.65886712       6.95048384       4.12480707       0.00738417      -0.00479780       0.01998521
Li       2.28639857       4.85817819      -0.38798027      -0.00693115      -0.00509646      -0.01745829
Li       1.65682957       2.67020252       4.11855837       0.00075744      -0.00366442       0.00273190
Ga       1.04350999       0.48222398       2.38128787       0.00363932       0.01178781       0.00671031
Ga       0.31288306       7.01479521       0.30472012      -0.01011918       0.01660885      -0.03073862
Ga       0.93785202       4.98892854       2.07667206      -0.00263231       0.00999748      -0.00831512
Ga       3.60811676       0.51286223       3.36815951       0.00742838      -0.01446088       0.02096609
Sn       3.54843193       4.89949876       3.19437268      -0.00600608       0.00314642      -0.01324835
Sn       0.34845481       2.67310751       0.40520142       0.00275242      -0.01858280       0.00686543
4
Lattice="4.354620014673346 0.0006015921375262803 -0.0002744072132746782 -0.00043214104782940323 4.277415615783155 7.295991057405576e-05 0.00037046748076509476 -8.083101438425508e-05 4.2779358297891985" Properties=species:S:1:pos:R:3:forces:R:3 structure_index=11 total_energy=-12.158666610717773 stress="-0.03435191884636879 0.0007945922552607954 0.000503848132211715 0.0007944618118926883 -0.02430785819888115 -2.2422329493565485e-05 0.0005037789815105498 -2.2331198124447837e-05 -0.0205239150673151" pbc="T T T"
Li       1.58650347       1.12958494       3.52059908       0.00024115       0.00048065      -0.00122479
Ga       3.76393890       3.26917223       3.51996022      -0.00023017      -0.00048699      -0.00042146
Ga       3.76386989       1.13033564       1.38085522       0.00002453      -0.00028443       0.00051134
Sn       1.58644474       3.26845902       1.38097462      -0.00003553       0.00029077       0.00113492
12
Lattice="4.028317115774146 -0.0015801726339709076 0.0008203533030527715 0.001998889506084542 6.1692104717270775 0.001643595030023086 -0.0018958830726063423 -0.002489805251768263 8.952830843124529" Properties=species:S:1:pos:R:3:forces:R:3 structure_index=12 total_energy=-35.103309631347656 stress="0.012268070131540298 -0.0013078839983791113 -0.00028816505800932646 -0.0013079660711809993 0.02906266413629055 -3.090361497015692e-05 -0.00028796965489163995 -3.072253821301274e-05 0.019564379006624222" pbc="T T T"
Li       0.64349300       4.09288907       1.40221935       0.00041622       0.01161556       0.00113148
Li       2.65734386       5.70482369       5.88049116       0.00012818      -0.01111487      -0.00081584
Li       0.64203774       1.11425721       4.26612895       0.00021973      -0.03179801      -0.01058267
Li       2.65566383       2.51383235       8.74338084       0.00014004       0.02740816      -0.01032373
Ga       0.64288325       3.98843740       4.36685247       0.00038695       0.00141651       0.00206114
Ga       2.65675022       5.80444192       8.84456886       0.00006514       0.00606114       0.00380701
Ga       0.64144023       1.03903039       7.26994428      -0.00018296       0.01623569      -0.00729000
Ga       0.64263034       1.20047870       1.24502182       0.00041078      -0.00577962       0.01663218
Ga       2.65714346       2.58795198       2.79470564      -0.00055983      -0.01891618      -0.01120991
Ga       2.65626270       2.42914488       5.72162891       0.00018854      -0.00070155       0.01748679
Sn       0.64250285       4.10794385       7.33525511      -0.00050221       0.03877220       0.00203537
Sn       2.65817568       5.68650473       2.86163732      -0.00071053      -0.03319900      -0.00293182
18
Lattice="7.482878122161809 0.008205924086853656 -2.0283539775055255 -0.5781716898366378 5.285303992243989 -2.1134976567878536 -0.10110082087802784 0.007934922146191594 7.789763828056276" Properties=species:S:1:pos:R:3:forces:R:3 structure_index=13 total_energy=-47.1917610168457 stress="-0.011276154778897762 0.003600769443437457 0.0007083590608090162 0.003600867697969079 -0.01886194385588169 0.0007525983382947743 0.0007082308293320239 0.0007523670792579651 -0.01674974523484707" pbc="T T T"
Li       4.25503071       3.57298254      -0.29456485       0.00106252       0.01578772      -0.00295519
Li       0.80484018       0.92610913       1.77644777       0.00006982       0.01510852      -0.00333913
Li      -0.30550399       2.42263688       5.82895705      -0.00428057       0.01595722      -0.00953129
Li       3.14822828       5.07132695       3.75827690      -0.00478464       0.01087067      -0.00937856
Li       4.52882331       1.06870102       0.70631582       0.00343042      -0.01426258       0.01059893
Li       0.10057686       3.06631124       3.24889219       0.00087987       0.00086944       0.00075368
Li       3.42031726       2.56732147       4.75963284      -0.00064870      -0.01377566       0.00098183
Li       4.13031975       0.42906636       3.29072440       0.00165689      -0.00022634      -0.00004626
Li       0.49991901       3.70637796       0.66489199       0.00274278      -0.01286601       0.00727644
Li       5.61601549       4.38968435      -2.69777941       0.00128556      -0.00155569      -0.00133939
Li      -0.61127702       5.20663756       4.71551216       0.00109283      -0.01693582       0.00399549
Li       2.16334373       1.74244953      -0.62836108      -0.00040921      -0.00138589       0.00067934
Ga       5.08191477       3.26185851       2.37205425      -0.00392805      -0.00308449      -0.00444567
Ga       2.59760782       2.87845647       2.09133997       0.00367943       0.00185248       0.00537252
Ga       6.62755658       0.23877671       2.13197049       0.00468069       0.00310477       0.00646200
Ga       1.62914904       0.61404942       4.44421088      -0.00388987      -0.00182103      -0.00520340
Sn       1.87230042       4.38458064      -1.68509897      -0.00111360       0.00060071      -0.00166150
Sn       5.90347243       1.74653721      -1.64149941      -0.00152612       0.00176198       0.00178019
14
Lattice="5.4092004232525515 0.026553695525989275 -0.6495962039878903 -0.02687093061867401 5.660061276770162 -0.023178770349458717 0.050261006212185495 0.019815952777004722 9.05953798672423" Properties=species:S:1:pos:R:3:forces:R:3 structure_index=14 total_energy=-41.077239990234375 stress="0.006601087283343077 -0.0021542904432862997 0.002691572764888406 -0.002154383109882474 0.01538221724331379 -0.011758960783481598 0.0026914651971310377 -0.01175891887396574 -0.02093486860394478" pbc="T T T"
Li       3.75298843       4.39085876       0.58611914      -0.00093144      -0.00019908       0.00057660
Li       3.79077146       1.57191698       5.12602623       0.00091635      -0.00200895       0.00136363
Ga       2.23338518       4.39227678       7.42602902      -0.01337196       0.00059923      -0.03355914
Ga       5.32358168       4.40879775       2.80550277       0.01252411       0.00047256       0.03332507
Ga       3.77652280       4.40122019       5.11463943       0.00200473       0.00197887       0.00104191
Ga       1.04778463       4.37859030       0.90968999       0.00083451      -0.00087913       0.00175512
Ga       1.09312684       0.23297818       5.46339305       0.00136355       0.02640651       0.00164441
Ga       2.66228704       0.17049487       2.89520065      -0.02241999       0.01401659      -0.02348484
Ga       4.91935011       2.97247761       7.35824066       0.02239735      -0.01414941       0.02263150
Ga       2.64933631       2.94919525       2.88132337      -0.02081776      -0.01342061      -0.02486867
Ga       1.08035441       2.88245616       5.44215602      -0.00346172      -0.02699777      -0.00272446
Ga       4.93177135       0.19351055       7.37364697       0.01960487       0.01368258       0.02112039
Sn       2.31237464       1.54893824      -0.32071754      -0.00393108       0.00049594      -0.01545197
Sn       5.21792545       1.57285762       1.51374029       0.00528847       0.00000269       0.01663047
10
Lattice="3.3005732644528747 0.003661889386724767 -0.0012498516649167679 -0.0033376845198406853 3.3006454964852816 -0.0021174020358155528 0.008123146101524908 0.01197937521416833 19.760323804991685" Properties=species:S:1:pos:R:3:forces:R:3 structure_index=15 total_energy=-32.11555480957031 stress="-0.036708764731884 0.0004822327464353293 -1.3512966461348697e-06 0.0004822113551199436 -0.03597046062350273 6.0962745919823647e-05 -1.4102143950367463e-06 6.107191438786685e-05 -0.0018396542873233557" pbc="T T T"
Li       0.51569568       3.05588349      14.97014788       0.00011756       0.00007007       0.02391217
Li       0.51258714       3.05104734       7.49642536       0.00034041       0.00001558       0.00826692
Li       0.51177982       3.04814478       3.79348695      -0.00024857       0.00001627      -0.02572898
Li       0.51464768       3.05383365      11.26425692      -0.00026990      -0.00015565      -0.00740941
Ga       0.51725320       3.05790740      19.26134753       0.00008065      -0.00005208      -0.00045557
Sn       2.16819148       1.40853811      17.03314679       0.00022441      -0.00008252       0.01210881
Sn       2.16725004       1.40637386      13.12893148      -0.00021754      -0.00002476      -0.01535336
Sn       2.16550270       1.40403878       9.38029204       0.00010654      -0.00013100       0.00100883
Sn       2.16413985       1.40110051       5.63491196       0.00001178      -0.00002042       0.01382280
Sn       2.16279180       1.39804302       1.72940315      -0.00014535       0.00036454      -0.01017220
7
Lattice="4.18402280197264 -0.010864619638008777 0.00026586763420368895 -2.07740224540595 4.785339802186216 -0.6679363376099368 -0.0011998080245747506 -0.09881949492118029 7.1328793724379125" Properties=species:S:1:pos:R:3:forces:R:3 structure_index=16 total_energy=-21.334964752197266 stress="-0.01512635126709938 0.009314421564340591 0.0007180716493166983 0.009314351715147495 0.019063984975218773 0.02228245884180069 0.0007179983076639473 0.022282598540186882 -0.006719095166772604" pbc="T T T"
Li       0.90288365       4.69464326       6.09188476       0.00119713       0.02084786       0.01674140
Li       2.98593881       1.26804687       2.68174210      -0.00068162      -0.01047809       0.00613660
Ga       0.89101130       0.62556379       4.88642804      -0.00057526      -0.02706683      -0.00558060
Ga       2.98927346       2.50389992       5.57130978      -0.00265797       0.01968825      -0.00469361
Ga       0.89566350       1.96541269       0.40434077       0.00293018       0.01167386       0.00975651
Sn      -1.18903818       4.03988213       1.04047917      -0.00329116      -0.00771062       0.02552814
Sn       0.89863020       3.30805457       3.51392248       0.00307870      -0.00695442      -0.04788846
16
Lattice="6.462451421389627 -0.018962200652446182 0.003506910981880964 0.02418564899466404 6.462354907573821 0.004460324660553607 -0.003631894447869071 -0.005901306473984735 8.692507753630435" Properties=species:S:1:pos:R:3:forces:R:3 structure_index=17 total_energy=-52.04507827758789 stress="-0.01719321683049202 0.004426849540323019 -5.312958364811493e-06 0.0044268895871937275 -0.0179161187261343 6.068943184800446e-05 -5.19252716912888e-06 6.078068327042274e-05 -0.0031962026841938496" pbc="T T T"
Li       3.74921204       2.95973850       1.10932092      -0.00119037      -0.00089693      -0.00113969
Li       0.53181205       6.20238521       1.11201096      -0.00151567      -0.00060463       0.00067191
Li       3.76021911       6.18737062       5.45924633      -0.00006844       0.00025422      -0.00101931
Li       0.51771844       2.96931040       1.10765288       0.00052672       0.00111426      -0.00007714
Ga       0.51422957       2.96525254       5.45445265       0.00055298       0.00145708       0.00208330
Ga       0.52757950       6.19382226       5.45553193      -0.00022488       0.00080283      -0.00063589
Ga       3.74767237       2.95718236       5.45944130      -0.00046930       0.00112563      -0.00224660
Ga       3.75954574       6.19223899       1.11222423       0.00164973       0.00130086       0.00238364
Sn       5.35546027       1.33965614       3.23777915      -0.00801391      -0.01284349       0.00423807
Sn       2.12613158       1.34673764       7.67108534       0.00805075      -0.00771460      -0.00298815
Sn       2.13210376       4.57589278       7.67408529       0.00935660       0.00500366      -0.00514558
Sn       2.13904616       4.57865483       3.23763150       0.00735418       0.01060093       0.00589706
Sn       5.36744614       4.56598056       7.67845807      -0.00742916       0.00839064      -0.00465611
Sn       2.12049179       1.35459951       3.23954207       0.01206095      -0.01489663       0.00271031
Sn       5.37211297       4.56409165       3.24059471      -0.00774092       0.01513159       0.00364995
Sn       5.36314185       1.33708848       7.67320631      -0.01289921      -0.00822540      -0.00372580
4