phonopy:
  version: "2.37.1"
  frequency_unit_conversion_factor: 15.633302
  symmetry_tolerance: 1.00000e-05

space_group:
  type: "C2/m"
  number: 12
  Hall_symbol: "-C 2y"

primitive_matrix:
- [  0.000000000000000,  1.000000000000000, -0.000000000000000 ]
- [  1.000000000000000,  0.000000000000000,  0.000000000000000 ]
- [  0.000000000000000,  0.000000000000000, -1.000000000000000 ]

supercell_matrix:
- [   2,   0,   0 ]
- [   0,   2,   0 ]
- [   0,   0,   2 ]

primitive_cell:
  lattice:
  - [     4.962858915427830,     3.115568321361704,     0.000000000000000 ] # a
  - [     5.859755612021250,     0.000000000000000,     0.000000000000000 ] # b
  - [    -1.808965876290345,    -0.520757621563230,    -4.765303984771662 ] # c
  points:
  - symbol: Li # 1
    coordinates: [  0.999048951042691,  0.999048940092835,  0.992853185866869 ]
    mass: 6.940000
  - symbol: Li # 2
    coordinates: [  0.750951043098592,  0.750951058475864,  0.423813486369832 ]
    mass: 6.940000
  - symbol: Sn # 3
    coordinates: [  0.496874730282665,  0.496874786783885,  0.492585462355344 ]
    mass: 118.710000
  - symbol: Sn # 4
    coordinates: [  0.253125275767470,  0.253125215008260,  0.924081198775517 ]
    mass: 118.710000
  reciprocal_lattice: # without 2pi
  - [     0.000000000000000,     0.320968727645470,    -0.035075812946871 ] # a*
  - [     0.170655581258117,    -0.271841117110922,    -0.035075787408064 ] # b*
  - [     0.000000000000000,     0.000000000000000,    -0.209850201203464 ] # c*

unit_cell:
  lattice:
  - [     5.859755612021250,     0.000000000000000,     0.000000000000000 ] # a
  - [     4.962858915427830,     3.115568321361704,     0.000000000000000 ] # b
  - [     1.808965876290345,     0.520757621563230,     4.765303984771662 ] # c
  points:
  - symbol: Li # 1
    coordinates: [  0.999048940092835,  0.999048951042691,  0.007146814133131 ]
    mass: 6.940000
    reduced_to: 1
  - symbol: Li # 2
    coordinates: [  0.750951058475864,  0.750951043098592,  0.576186513630168 ]
    mass: 6.940000
    reduced_to: 2
  - symbol: Sn # 3
    coordinates: [  0.496874786783885,  0.496874730282665,  0.507414537644656 ]
    mass: 118.710000
    reduced_to: 3
  - symbol: Sn # 4
    coordinates: [  0.253125215008260,  0.253125275767470,  0.075918801224483 ]
    mass: 118.710000
    reduced_to: 4

supercell:
  lattice:
  - [    11.719511224042499,     0.000000000000000,     0.000000000000000 ] # a
  - [     9.925717830855660,     6.231136642723408,     0.000000000000000 ] # b
  - [     3.617931752580690,     1.041515243126460,     9.530607969543324 ] # c
  points:
  - symbol: Li # 1
    coordinates: [  0.499524470046418,  0.499524475521345,  0.003573407066566 ]
    mass: 6.940000
    reduced_to: 1
  - symbol: Li # 2
    coordinates: [  0.999524470046418,  0.499524475521345,  0.003573407066566 ]
    mass: 6.940000
    reduced_to: 1
  - symbol: Li # 3
    coordinates: [  0.499524470046418,  0.999524475521345,  0.003573407066566 ]
    mass: 6.940000
    reduced_to: 1
  - symbol: Li # 4
    coordinates: [  0.999524470046418,  0.999524475521345,  0.003573407066566 ]
    mass: 6.940000
    reduced_to: 1
  - symbol: Li # 5
    coordinates: [  0.499524470046418,  0.499524475521345,  0.503573407066566 ]
    mass: 6.940000
    reduced_to: 1
  - symbol: Li # 6
    coordinates: [  0.999524470046418,  0.499524475521345,  0.503573407066566 ]
    mass: 6.940000
    reduced_to: 1
  - symbol: Li # 7
    coordinates: [  0.499524470046418,  0.999524475521345,  0.503573407066566 ]
    mass: 6.940000
    reduced_to: 1
  - symbol: Li # 8
    coordinates: [  0.999524470046418,  0.999524475521345,  0.503573407066566 ]
    mass: 6.940000
    reduced_to: 1
  - symbol: Li # 9
    coordinates: [  0.375475529237932,  0.375475521549296,  0.288093256815084 ]
    mass: 6.940000
    reduced_to: 9
  - symbol: Li # 10
    coordinates: [  0.875475529237932,  0.375475521549296,  0.288093256815084 ]
    mass: 6.940000
    reduced_to: 9
  - symbol: Li # 11
    coordinates: [  0.375475529237932,  0.875475521549296,  0.288093256815084 ]
    mass: 6.940000
    reduced_to: 9
  - symbol: Li # 12
    coordinates: [  0.875475529237932,  0.875475521549296,  0.288093256815084 ]
    mass: 6.940000
    reduced_to: 9
  - symbol: Li # 13
    coordinates: [  0.375475529237932,  0.375475521549296,  0.788093256815084 ]
    mass: 6.940000
    reduced_to: 9
  - symbol: Li # 14
    coordinates: [  0.875475529237932,  0.375475521549296,  0.788093256815084 ]
    mass: 6.940000
    reduced_to: 9
  - symbol: Li # 15
    coordinates: [  0.375475529237932,  0.875475521549296,  0.788093256815084 ]
    mass: 6.940000
    reduced_to: 9
  - symbol: Li # 16
    coordinates: [  0.875475529237932,  0.875475521549296,  0.788093256815084 ]
    mass: 6.940000
    reduced_to: 9
  - symbol: Sn # 17
    coordinates: [  0.248437393391943,  0.248437365141333,  0.253707268822328 ]
    mass: 118.710000
    reduced_to: 17
  - symbol: Sn # 18
    coordinates: [  0.748437393391942,  0.248437365141333,  0.253707268822328 ]
    mass: 118.710000
    reduced_to: 17
  - symbol: Sn # 19
    coordinates: [  0.248437393391943,  0.748437365141333,  0.253707268822328 ]
    mass: 118.710000
    reduced_to: 17
  - symbol: Sn # 20
    coordinates: [  0.748437393391942,  0.748437365141333,  0.253707268822328 ]
    mass: 118.710000
    reduced_to: 17
  - symbol: Sn # 21
    coordinates: [  0.248437393391943,  0.248437365141333,  0.753707268822328 ]
    mass: 118.710000
    reduced_to: 17
  - symbol: Sn # 22
    coordinates: [  0.748437393391942,  0.248437365141333,  0.753707268822328 ]
    mass: 118.710000
    reduced_to: 17
  - symbol: Sn # 23
    coordinates: [  0.248437393391943,  0.748437365141333,  0.753707268822328 ]
    mass: 118.710000
    reduced_to: 17
  - symbol: Sn # 24
    coordinates: [  0.748437393391942,  0.748437365141333,  0.753707268822328 ]
    mass: 118.710000
    reduced_to: 17
  - symbol: Sn # 25
    coordinates: [  0.126562607504130,  0.126562637883735,  0.037959400612241 ]
    mass: 118.710000
    reduced_to: 25
  - symbol: Sn # 26
    coordinates: [  0.626562607504130,  0.126562637883735,  0.037959400612241 ]
    mass: 118.710000
    reduced_to: 25
  - symbol: Sn # 27
    coordinates: [  0.126562607504130,  0.626562637883735,  0.037959400612241 ]
    mass: 118.710000
    reduced_to: 25
  - symbol: Sn # 28
    coordinates: [  0.626562607504130,  0.626562637883735,  0.037959400612241 ]
    mass: 118.710000
    reduced_to: 25
  - symbol: Sn # 29
    coordinates: [  0.126562607504130,  0.126562637883735,  0.537959400612241 ]
    mass: 118.710000
    reduced_to: 25
  - symbol: Sn # 30
    coordinates: [  0.626562607504130,  0.126562637883735,  0.537959400612241 ]
    mass: 118.710000
    reduced_to: 25
  - symbol: Sn # 31
    coordinates: [  0.126562607504130,  0.626562637883735,  0.537959400612241 ]
    mass: 118.710000
    reduced_to: 25
  - symbol: Sn # 32
    coordinates: [  0.626562607504130,  0.626562637883735,  0.537959400612241 ]
    mass: 118.710000
    reduced_to: 25

displacements:
- atom:    1
  displacement:
    [   0.0100000000000000,  0.0000000000000000,  0.0000000000000000 ]
  forces:
  - [  -0.0404947176575661, -0.0077498592436314, -0.0133809568360448 ]
  - [  -0.0226127207279205, -0.0059595946222544, -0.0064862407743931 ]
  - [  -0.0220171511173248, -0.0069226101040840, -0.0064891120418906 ]
  - [  -0.0205648913979530, -0.0071827229112387, -0.0065232054330409 ]
  - [  -0.0211197510361671, -0.0063052643090487, -0.0067733246833086 ]
  - [  -0.0209923908114433, -0.0060053002089262, -0.0063864691182971 ]
  - [  -0.0209429003298283, -0.0060806665569544, -0.0064444607123733 ]
  - [  -0.0214430913329124, -0.0057506300508976, -0.0077405618503690 ]
  - [   0.0212052613496780,  0.0063023809343576,  0.0055325236171484 ]
  - [   0.0210318714380264,  0.0059833470731974,  0.0063615320250392 ]
  - [   0.0209928452968597,  0.0060415454208851,  0.0062606371939182 ]
  - [   0.0203803591430187,  0.0056726057082415,  0.0060506444424391 ]
  - [   0.0205604024231434,  0.0059160925447941,  0.0061173643916845 ]
  - [   0.0217743143439293,  0.0053850468248129,  0.0056566726416349 ]
  - [   0.0209540426731110,  0.0066896229982376,  0.0057550948113203 ]
  - [   0.0208268016576767,  0.0060404688119888,  0.0059753460809588 ]
  - [   0.0125705711543560,  0.0036302562803030, -0.0090759005397558 ]
  - [   0.0148892588913441,  0.0017886944115162, -0.0058488543145359 ]
  - [   0.0129246562719345,  0.0050779879093170, -0.0076738968491554 ]
  - [   0.0128814540803432,  0.0036627445369959, -0.0095945913344622 ]
  - [   0.0125357396900654,  0.0036508515477180, -0.0093929069116712 ]
  - [   0.0130993910133839,  0.0048844683915377, -0.0075383288785815 ]
  - [   0.0146747082471848,  0.0021959692239761, -0.0058260327205062 ]
  - [   0.0125342197716236,  0.0035896506160498, -0.0094091417267919 ]
  - [  -0.0125735402107239, -0.0036335848271847,  0.0093434229493141 ]
  - [  -0.0095021687448025, -0.0006378423422575,  0.0099103907123208 ]
  - [  -0.0068567357957363, -0.0046720840036869,  0.0100807864218950 ]
  - [  -0.0044283121824265, -0.0011997409164906,  0.0107084419578314 ]
  - [  -0.0126825012266636, -0.0036452542990446,  0.0092437351122499 ]
  - [  -0.0125551261007786, -0.0034811608493328,  0.0091851297765970 ]
  - [  -0.0124902725219727, -0.0037046968936920,  0.0092493025586009 ]
  - [  -0.0125595889985561, -0.0035807080566883,  0.0091529581695795 ]
- atom:    1
  displacement:
    [  -0.0100000000000000,  0.0000000000000000,  0.0000000000000000 ]
  forces:
  - [  -0.0014355704188347, -0.0043961536139250,  0.0002918364480138 ]
  - [  -0.0192794390022755, -0.0060847327113152, -0.0065382220782340 ]
  - [  -0.0198730304837227, -0.0051543340086937, -0.0065340702421963 ]
  - [  -0.0213227570056915, -0.0048760827630758, -0.0065083657391369 ]
  - [  -0.0207652263343334, -0.0057526193559170, -0.0062550771981478 ]
  - [  -0.0208918340504169, -0.0060540568083525, -0.0066408226266503 ]
  - [  -0.0209382660686970, -0.0059771891683340, -0.0065852794796228 ]
  - [  -0.0204433165490627, -0.0063082687556744, -0.0052885599434376 ]
  - [   0.0206801220774651,  0.0057547129690647,  0.0074888216331601 ]
  - [   0.0208589881658554,  0.0060735270380974,  0.0066698789596558 ]
  - [   0.0208911560475826,  0.0060185827314854,  0.0067663062363863 ]
  - [   0.0215052105486393,  0.0063933581113815,  0.0069916816428304 ]
  - [   0.0213326103985310,  0.0061439163982868,  0.0069198776036501 ]
  - [   0.0201223716139793,  0.0066632200032473,  0.0073540732264519 ]
  - [   0.0209288261830807,  0.0053765736520290,  0.0072676949203014 ]
  - [   0.0210511609911919,  0.0060199387371540,  0.0070508252829313 ]
  - [   0.0126478932797909,  0.0036259740591049, -0.0096167717128992 ]
  - [   0.0103310868144035,  0.0054375100880861, -0.0128017738461494 ]
  - [   0.0122785270214081,  0.0021746847778559, -0.0110394097864628 ]
  - [   0.0123465582728386,  0.0036004148423672, -0.0091101154685020 ]
  - [   0.0126918442547321,  0.0036121960729361, -0.0093086333945394 ]
  - [   0.0121441185474396,  0.0023941081017256, -0.0111316200345755 ]
  - [   0.0105458945035934,  0.0050887046381831, -0.0129112536087632 ]
  - [   0.0126911662518978,  0.0036731529980898, -0.0092861149460077 ]
  - [  -0.0126667954027653, -0.0036276038736105,  0.0093474602326751 ]
  - [  -0.0157757699489594, -0.0066889505833387,  0.0087948180735111 ]
  - [  -0.0185649394989014, -0.0025438703596592,  0.0086325816810131 ]
  - [  -0.0204835832118988, -0.0059509016573429,  0.0080152656883001 ]
  - [  -0.0125397741794586, -0.0036156065762043,  0.0094506312161684 ]
  - [  -0.0126721039414406, -0.0037800781428814,  0.0095148859545588 ]
  - [  -0.0127297230064869, -0.0035571455955505,  0.0094505678862333 ]
  - [  -0.0126654319465160, -0.0036830008029938,  0.0095488876104355 ]
- atom:    1
  displacement:
    [   0.0035306276826141,  0.0010163825082173,  0.0093006255038975 ]
  forces:
  - [  -0.0343975685536861, -0.0099022639915347, -0.0280947424471378 ]
  - [  -0.0215028785169125, -0.0059828963130713, -0.0064360564574599 ]
  - [  -0.0213905535638332, -0.0063661541789770, -0.0064353416673839 ]
  - [  -0.0209319628775120, -0.0060261171311140, -0.0078988615423441 ]
  - [  -0.0212765410542488, -0.0061253663152456, -0.0067232577130198 ]
  - [  -0.0208379626274109, -0.0060822740197182, -0.0065996274352074 ]
  - [  -0.0208810903131962, -0.0059291012585163, -0.0065996153280139 ]
  - [  -0.0222334787249565, -0.0064012240618467, -0.0098027959465981 ]
  - [   0.0201502107083797,  0.0058013871312141,  0.0078556630760431 ]
  - [   0.0208255127072334,  0.0058099180459976,  0.0063137095421553 ]
  - [   0.0207259729504585,  0.0061528980731964,  0.0063134320080280 ]
  - [   0.0202693417668343,  0.0058356523513794,  0.0067211957648396 ]
  - [   0.0204308219254017,  0.0058819167315960,  0.0061717946082354 ]
  - [   0.0203771181404591,  0.0057350527495146,  0.0069520082324743 ]
  - [   0.0203081741929054,  0.0059787500649691,  0.0069528687745333 ]
  - [   0.0204066745936871,  0.0058754570782185,  0.0067660314962268 ]
  - [   0.0125145912170410,  0.0036009885370731, -0.0091517968103290 ]
  - [   0.0164185464382172,  0.0009047705680132, -0.0030523245222867 ]
  - [   0.0143868997693062,  0.0079637998715043, -0.0030528260394931 ]
  - [   0.0127741731703281,  0.0036787372082472, -0.0095133204013109 ]
  - [   0.0127553269267082,  0.0036717727780342, -0.0093572949990630 ]
  - [   0.0143860504031181,  0.0079385899007320, -0.0034234263002872 ]
  - [   0.0164045616984367,  0.0009260922670364, -0.0034228879958391 ]
  - [   0.0123665072023869,  0.0035611968487501, -0.0092968894168735 ]
  - [  -0.0127491988241673, -0.0036712232977152,  0.0093921739608049 ]
  - [  -0.0111510604619980, -0.0020635221153498,  0.0091587165370584 ]
  - [  -0.0105369836091995, -0.0041804835200310,  0.0091588562354445 ]
  - [  -0.0077398568391800, -0.0022276062518358,  0.0102455522865057 ]
  - [  -0.0125315599143505, -0.0036075357347727,  0.0090684210881591 ]
  - [  -0.0123430564999580, -0.0034258607774973,  0.0090889558196068 ]
  - [  -0.0122721754014492, -0.0036611892282963,  0.0090880924835801 ]
  - [  -0.0127246007323265, -0.0036641452461481,  0.0096135661005974 ]
- atom:    1
  displacement:
    [  -0.0035306276826141, -0.0010163825082173, -0.0093006255038975 ]
  forces:
  - [  -0.0075498148798943, -0.0021735690534115,  0.0150189176201820 ]
  - [  -0.0203870646655560, -0.0060763061046600, -0.0065931640565395 ]
  - [  -0.0204956941306591, -0.0056939031928778, -0.0065925512462854 ]
  - [  -0.0209510177373886, -0.0060312654823065, -0.0051251961849630 ]
  - [  -0.0206134766340256, -0.0059342719614506, -0.0063029881566763 ]
  - [  -0.0210439339280128, -0.0059768296778202, -0.0064304266124964 ]
  - [  -0.0209994278848171, -0.0061280839145184, -0.0064304759725928 ]
  - [  -0.0196563787758350, -0.0056596063077450, -0.0032296273857355 ]
  - [   0.0217287018895149,  0.0062557253986597,  0.0051837675273418 ]
  - [   0.0210603624582291,  0.0062482617795467,  0.0067125717177987 ]
  - [   0.0211578533053398,  0.0059066526591778,  0.0067122997716069 ]
  - [   0.0216143094003201,  0.0062231030315161,  0.0063093490898609 ]
  - [   0.0214731991291046,  0.0061820596456528,  0.0068611837923527 ]
  - [   0.0215021334588528,  0.0063205696642399,  0.0060768732801080 ]
  - [   0.0215725116431713,  0.0060808770358562,  0.0060777347534895 ]
  - [   0.0214834250509739,  0.0061853323131800,  0.0062588788568974 ]
  - [   0.0127090886235237,  0.0036568045616150, -0.0095451753586531 ]
  - [   0.0089052505791187,  0.0062157604843378, -0.0154454093426466 ]
  - [   0.0108475387096405, -0.0005290955305099, -0.0154460314661264 ]
  - [   0.0124462321400642,  0.0035849157720804, -0.0091854846104980 ]
  - [   0.0124698020517826,  0.0035898815840483, -0.0093423034995794 ]
  - [   0.0107971839606762, -0.0008387062698603, -0.0154530303552747 ]
  - [   0.0086974799633026,  0.0064515257254243, -0.0154529586434364 ]
  - [   0.0128549411892891,  0.0037014000117779, -0.0093986997380853 ]
  - [  -0.0124794393777847, -0.0035937502980232,  0.0093045057728887 ]
  - [  -0.0140528939664364, -0.0051878523081541,  0.0095516685396433 ]
  - [  -0.0146566033363342, -0.0030776560306549,  0.0095516303554177 ]
  - [  -0.0174297876656055, -0.0050171744078398,  0.0084288483485579 ]
  - [  -0.0126951374113560, -0.0036543719470501,  0.0096274707466364 ]
  - [  -0.0128748044371605, -0.0038333646953106,  0.0096073504537344 ]
  - [  -0.0129388272762299, -0.0035984553396702,  0.0096061844378710 ]
  - [  -0.0124957375228405, -0.0035985857248306,  0.0090842917561531 ]
- atom:   17
  displacement:
    [   0.0100000000000000,  0.0000000000000000,  0.0000000000000000 ]
  forces:
  - [  -0.0209785699844360, -0.0060258675366640, -0.0066059031523764 ]
  - [  -0.0186623409390450, -0.0076724831014872, -0.0031814752146602 ]
  - [  -0.0206015817821026, -0.0047315768897533, -0.0048614745028317 ]
  - [  -0.0206864438951015, -0.0059989690780640, -0.0064420592971146 ]
  - [  -0.0210182107985020, -0.0060094241052866, -0.0063349828124046 ]
  - [  -0.0204737409949303, -0.0049373395740986, -0.0048794616013765 ]
  - [  -0.0188728533685207, -0.0073373150080442, -0.0029825195670128 ]
  - [  -0.0210219658911228, -0.0060720611363649, -0.0067412839271128 ]
  - [   0.0291256196796894,  0.0084593165665865,  0.0084376558661461 ]
  - [   0.0266906581819057,  0.0047645680606365,  0.0066614234820008 ]
  - [   0.0240562297403812,  0.0092494701966643,  0.0065353102982044 ]
  - [   0.0209853425621986,  0.0060296561568975,  0.0063527077436447 ]
  - [   0.0209947265684605,  0.0060803443193436,  0.0063650328665972 ]
  - [   0.0210591368377209,  0.0060812290757895,  0.0068191587924957 ]
  - [   0.0210004821419716,  0.0060520041733980,  0.0067733172327280 ]
  - [   0.0208717659115791,  0.0060159470885992,  0.0066340370103717 ]
  - [  -0.0146277174353600,  0.0021209344267845, -0.0131512563675642 ]
  - [   0.0123168677091599,  0.0036565568298101, -0.0092980936169624 ]
  - [   0.0124460756778717,  0.0034371204674244, -0.0093138376250863 ]
  - [   0.0124045535922050,  0.0003380887210369, -0.0087743923068047 ]
  - [   0.0123400725424290,  0.0034758336842060, -0.0091395899653435 ]
  - [   0.0131767317652702,  0.0036630220711231, -0.0101589011028409 ]
  - [   0.0129852481186390,  0.0039698630571365, -0.0098705058917403 ]
  - [   0.0125148072838783,  0.0038178768008947, -0.0100035751238465 ]
  - [  -0.0125352144241333, -0.0035851113498211,  0.0093033090233803 ]
  - [  -0.0099535621702671, -0.0052802376449108,  0.0067619746550918 ]
  - [  -0.0123134478926659, -0.0015230625867844,  0.0080188997089863 ]
  - [  -0.0127489194273949, -0.0036712344735861,  0.0090467073023319 ]
  - [  -0.0116038769483566, -0.0033045783638954,  0.0068771634250879 ]
  - [  -0.0125165320932865, -0.0034889224916697,  0.0094067994505167 ]
  - [  -0.0123881399631500, -0.0036899577826262,  0.0094418618828058 ]
  - [  -0.0119651444256306, -0.0038836840540171,  0.0083039440214634 ]
- atom:   17
  displacement:
    [  -0.0100000000000000,  0.0000000000000000,  0.0000000000000000 ]
  forces:
  - [  -0.0209012031555176, -0.0060305111110210, -0.0064261625520885 ]
  - [  -0.0232209414243698, -0.0043441299349070, -0.0098916068673134 ]
  - [  -0.0212482251226902, -0.0073151271790266, -0.0081396996974945 ]
  - [  -0.0212213620543480, -0.0060608834028244, -0.0065849348902702 ]
  - [  -0.0208619311451912, -0.0060477294027805, -0.0066972458735108 ]
  - [  -0.0214286670088768, -0.0071008242666721, -0.0081388317048550 ]
  - [  -0.0230020210146904, -0.0047718025743961, -0.0099799763411283 ]
  - [  -0.0208653584122658, -0.0059889759868383, -0.0062843430787325 ]
  - [   0.0130701735615730,  0.0037081055343151,  0.0046312753111124 ]
  - [   0.0149835348129272,  0.0073674302548170,  0.0063916267827153 ]
  - [   0.0177827887237072,  0.0027237739413977,  0.0065095638856292 ]
  - [   0.0208923630416393,  0.0060359276831150,  0.0066774999722838 ]
  - [   0.0208888426423073,  0.0059779305011034,  0.0066621303558350 ]
  - [   0.0208196341991425,  0.0059779901057482,  0.0062041720375419 ]
  - [   0.0208836533129215,  0.0060040373355150,  0.0062512662261724 ]
  - [   0.0210144221782684,  0.0060457699000835,  0.0064009362831712 ]
  - [   0.0397470518946648,  0.0050069652497768, -0.0057005863636732 ]
  - [   0.0129072293639183,  0.0036133117973804, -0.0093954447656870 ]
  - [   0.0127722769975662,  0.0038144793361425, -0.0093821072950959 ]
  - [   0.0128005668520927,  0.0069205667823553, -0.0099250832572579 ]
  - [   0.0128902569413185,  0.0037875398993492, -0.0095691075548530 ]
  - [   0.0120545998215675,  0.0035939998924732, -0.0085366824641824 ]
  - [   0.0122403353452682,  0.0032993704080582, -0.0088255051523447 ]
  - [   0.0127085708081722,  0.0034449957311153, -0.0086907921358943 ]
  - [  -0.0126549750566483, -0.0036662817001343,  0.0094176968559623 ]
  - [  -0.0152034759521484, -0.0020240359008312,  0.0118549754843116 ]
  - [  -0.0129010602831841, -0.0056952405720949,  0.0106456503272057 ]
  - [  -0.0124720931053162, -0.0035905316472054,  0.0096607385203242 ]
  - [  -0.0136575475335121, -0.0039741564542055,  0.0119140017777681 ]
  - [  -0.0127171017229557, -0.0037690680474043,  0.0092886090278625 ]
  - [  -0.0128344073891640, -0.0035786908119917,  0.0092513849958777 ]
  - [  -0.0132660008966923, -0.0033642407506704,  0.0104065658524632 ]
- atom:   17
  displacement:
    [   0.0035306276826141,  0.0010163825082173,  0.0093006255038975 ]
  forces:
  - [  -0.0207040682435036, -0.0059602353721857, -0.0064557585865259 ]
  - [  -0.0171435624361038, -0.0086650084704161, -0.0004436243325472 ]
  - [  -0.0191248655319214, -0.0017769578844309, -0.0004432685673237 ]
  - [  -0.0210740305483341, -0.0060669966042042, -0.0065580294467509 ]
  - [  -0.0210075750946999, -0.0060477834194899, -0.0064362986013293 ]
  - [  -0.0189661458134651, -0.0017756707966328, -0.0004466497339308 ]
  - [  -0.0170060098171234, -0.0085812285542488, -0.0004463419318199 ]
  - [  -0.0210333019495010, -0.0060559697449207, -0.0065280208364129 ]
  - [   0.0253105275332928,  0.0072868801653385,  0.0076233325526118 ]
  - [   0.0235901847481728,  0.0054749418050051,  0.0061162803322077 ]
  - [   0.0228896141052246,  0.0079068522900343,  0.0061161434277892 ]
  - [   0.0209581777453423,  0.0060341544449329,  0.0064971270039678 ]
  - [   0.0207793936133385,  0.0059822294861078,  0.0067990552634001 ]
  - [   0.0208800956606865,  0.0059021394699812,  0.0064137242734432 ]
  - [   0.0208231434226036,  0.0061045773327351,  0.0064143724739552 ]
  - [   0.0208203531801701,  0.0059945434331894,  0.0063206003978848 ]
  - [  -0.0006575882434845, -0.0001902207732201, -0.0401570871472359 ]
  - [   0.0125512517988682,  0.0036362074315548, -0.0093836775049567 ]
  - [   0.0125639066100121,  0.0035944040864706, -0.0093842120841146 ]
  - [   0.0127467885613441,  0.0036706309765577, -0.0095100281760097 ]
  - [   0.0127023272216320,  0.0036565903574228, -0.0091659091413021 ]
  - [   0.0120606087148190,  0.0039075389504433, -0.0089763971045613 ]
  - [   0.0122913569211960,  0.0031035020947456, -0.0089763374999166 ]
  - [   0.0119850710034370,  0.0034513324499130, -0.0112128704786301 ]
  - [  -0.0126221589744091, -0.0036347936838865,  0.0091818757355213 ]
  - [  -0.0142129175364971, -0.0027812793850899,  0.0100464597344398 ]
  - [  -0.0135128013789654, -0.0052014328539371,  0.0100469738245010 ]
  - [  -0.0129425823688507, -0.0037255063652992,  0.0092781307175756 ]
  - [  -0.0145894624292850, -0.0041998811066151,  0.0141155701130629 ]
  - [  -0.0125131309032440, -0.0034944247454405,  0.0096389036625624 ]
  - [  -0.0124522447586060, -0.0036934334784746,  0.0096376203000546 ]
  - [  -0.0133904106914997, -0.0038556959480047,  0.0102783851325512 ]
- atom:   17
  displacement:
    [  -0.0035306276826141, -0.0010163825082173, -0.0093006255038975 ]
  forces:
  - [  -0.0211801752448082, -0.0060971286147833, -0.0065734600648284 ]
  - [  -0.0248493663966656, -0.0032617207616568, -0.0127722723409534 ]
  - [  -0.0227785147726536, -0.0104502383619547, -0.0127716530114412 ]
  - [  -0.0208190493285656, -0.0059934556484222, -0.0064697829075158 ]
  - [  -0.0208783969283104, -0.0060105808079243, -0.0065918825566769 ]
  - [  -0.0228988528251648, -0.0100945234298706, -0.0123953344300389 ]
  - [  -0.0247595384716988, -0.0036264806985855, -0.0123955206945539 ]
  - [  -0.0208548121154308, -0.0060045495629311, -0.0065026516094804 ]
  - [   0.0166566744446754,  0.0047953836619854,  0.0053813308477402 ]
  - [   0.0183278471231461,  0.0065861660987139,  0.0069425236433744 ]
  - [   0.0190231241285801,  0.0041675437241793,  0.0069423262029886 ]
  - [   0.0209299288690090,  0.0060258954763412,  0.0065321382135153 ]
  - [   0.0210995674133301,  0.0060744471848011,  0.0062321508303285 ]
  - [   0.0209981538355350,  0.0061559118330479,  0.0066129155457020 ]
  - [   0.0210582055151463,  0.0059524849057198,  0.0066138738766313 ]
  - [   0.0210666507482529,  0.0060652662068605,  0.0067110843956470 ]
  - [   0.0257612541317940,  0.0074137728661299,  0.0213002413511276 ]
  - [   0.0126650668680668,  0.0036245565861464, -0.0093126799911261 ]
  - [   0.0126536861062050,  0.0036644842475653, -0.0093131363391876 ]
  - [   0.0124850310385227,  0.0035955756902695, -0.0091897295787930 ]
  - [   0.0125291422009468,  0.0036067515611649, -0.0095372069627047 ]
  - [   0.0131661742925644,  0.0033512301743031, -0.0097144246101379 ]
  - [   0.0129320248961449,  0.0041620908305049, -0.0097145596519113 ]
  - [   0.0132369063794613,  0.0038115158677101, -0.0074866311624646 ]
  - [  -0.0125662460923195, -0.0036185551434755,  0.0095286658033729 ]
  - [  -0.0109990723431110, -0.0044934358447790,  0.0086553432047367 ]
  - [  -0.0117014124989510, -0.0020416527986526,  0.0086557399481535 ]
  - [  -0.0122656747698784, -0.0035305060446262,  0.0094211120158434 ]
  - [  -0.0106983259320259, -0.0030796229839325,  0.0046588303521276 ]
  - [  -0.0127223730087280, -0.0037696044892073,  0.0090598184615374 ]
  - [  -0.0127758383750916, -0.0035713557153940,  0.0090587269514799 ]
  - [  -0.0118417777121067, -0.0034096557646990,  0.0084341065958142 ]

force_constants:
  format: "full"
  shape: [ 32, 32 ]
  elements:
  - # (1, 1)
    - [     1.952957043687247,     0.167686189047666,     0.683635041329784 ]
    - [     0.167686189047666,     1.418734925096380,     0.196801978692313 ]
    - [     0.683635041329784,     0.196801978692313,     2.036752476512029 ]
  - # (1, 2)
    - [     0.166663765787832,    -0.006276670259329,    -0.002606754009092 ]
    - [    -0.006276666498587,    -0.023666765287132,    -0.000077392574842 ]
    - [    -0.002606751318140,    -0.000077391895908,    -0.007458338283877 ]
  - # (1, 3)
    - [     0.107205713774240,     0.088435398272677,    -0.002248914103434 ]
    - [     0.088435397959150,     0.035791290538070,    -0.001320436874182 ]
    - [    -0.002248913880463,    -0.001320435904979,    -0.007458338204050 ]
  - # (1, 4)
    - [    -0.037893597952241,     0.115332926317924,     0.000747894361369 ]
    - [     0.115332926317924,    -0.405326401129272,     0.000215311717866 ]
    - [     0.000747895288496,     0.000215311984763,     0.148801009711865 ]
  - # (1, 5)
    - [     0.017725916842365,     0.027633160346576,     0.025902568788970 ]
    - [     0.027633160346576,    -0.070309039379546,     0.007456722353999 ]
    - [     0.025902568788970,     0.007456722353999,     0.011936040227592 ]
  - # (1, 6)
    - [     0.005027520501431,    -0.002450996279425,    -0.012719453514752 ]
    - [    -0.002450997323921,    -0.004129807295746,     0.007031448255014 ]
    - [    -0.012719453454160,     0.007031449184411,     0.013149906395486 ]
  - # (1, 7)
    - [     0.000231395150697,     0.005188859210062,    -0.007034064071616 ]
    - [     0.005188858896535,     0.000666317939802,    -0.012718008070203 ]
    - [    -0.007034063848645,    -0.012718007101001,     0.013149907671077 ]
  - # (1, 8)
    - [     0.049988421627169,    -0.027881028198080,     0.122601808301432 ]
    - [    -0.027881028198080,     0.138813063112157,     0.035294092092590 ]
    - [     0.122601809228559,     0.035294092359488,     0.302969273327586 ]
  - # (1, 9)
    - [    -0.026257281859971,    -0.027382490674607,     0.097812743130528 ]
    - [    -0.027382490674607,     0.060979094431273,     0.028157911989041 ]
    - [     0.097812743130528,     0.028157911989041,    -0.183855275167952 ]
  - # (1, 10)
    - [    -0.008644480384818,     0.004516506426053,     0.015411165802203 ]
    - [     0.004516504119565,    -0.010441275244159,     0.022991064510403 ]
    - [     0.015411165480628,     0.022991064659420,     0.013071699688910 ]
  - # (1, 11)
    - [    -0.005084780369724,    -0.001153820570066,     0.025276425198330 ]
    - [    -0.001153820883593,    -0.014000976227261,    -0.011278091894118 ]
    - [     0.025276425421300,    -0.011278090924915,     0.013071701903495 ]
  - # (1, 12)
    - [     0.056242252715711,     0.036038532950972,     0.047032285204921 ]
    - [     0.036038532950972,    -0.058570914544198,     0.013539454448199 ]
    - [     0.047032286132049,     0.013539454715097,    -0.041488217451326 ]
  - # (1, 13)
    - [     0.038610080520057,     0.011392104010144,     0.040127542427081 ]
    - [     0.011392104010144,     0.002316610609923,     0.011551746155782 ]
    - [     0.040127542427081,     0.011551746155782,     0.020561191182561 ]
  - # (1, 14)
    - [    -0.082597449402363,     0.063910221326621,     0.084858168622556 ]
    - [     0.063910216110104,     0.001513720034912,     0.007054093429762 ]
    - [     0.084858167887490,     0.007054088351239,    -0.080041295191117 ]
  - # (1, 15)
    - [    -0.001261142407382,    -0.065652211463129,     0.075620328542284 ]
    - [    -0.065652211776656,    -0.079822591518756,     0.039143782245928 ]
    - [     0.075620328765254,     0.039143783215131,    -0.080041297264961 ]
  - # (1, 16)
    - [     0.011217649110441,    -0.001025593484977,     0.053752233478372 ]