4
Lattice="4.28114950157982 0.0003328543562906327 -0.00047637298092392935 -0.001010763477919723 4.281170695439123 -0.0006061328125639534 0.0002871154487058505 0.00036524968038288366 4.356970789340194" Properties=species:S:1:pos:R:3:forces:R:3 structure_index=0 total_energy=-12.158649444580078 stress="0.05606898292899132 -0.002003300469368696 -0.0009693659958429635 -0.0020033493638038635 0.0562063492834568 -0.0012336111394688487 -0.0009694197215139866 -0.0012336689978837967 0.05748970806598663" pbc="T T T"
Li       2.57642683       0.50506426       0.42331866      -0.00013919      -0.00074127       0.00022787
Ga       0.43617083       0.50394528       2.60244138      -0.00028146       0.00141727      -0.00003149
Ga       2.57596568       2.64519456       2.60179172      -0.00001430       0.00003827       0.00025701
Sn       0.43512967       2.64508745       0.42380270       0.00043494      -0.00071426      -0.00045339
4
Lattice="4.280896387591222 4.2657788247132905e-05 -0.00016361307531207782 -0.00012854351762834902 4.280835724089639 -0.0006231138163817687 9.944700537854942e-05 0.00037552529346255713 4.3586972841436324" Properties=species:S:1:pos:R:3:forces:R:3 structure_index=1 total_energy=-12.158638954162598 stress="0.06475500762462616 -0.0002556049730628729 -0.0003278283402323723 -0.0002555132086854428 0.06432300806045532 -0.001252504182048142 -0.0003277191426604986 -0.0012523900950327516 0.07929554581642151" pbc="T T T"
Li       1.25447685       0.20286372       2.62449680       0.00046738       0.00011057       0.00025522
Ga       1.25474638       2.34316807       0.44446024      -0.00020474      -0.00022389      -0.00197657
Ga       3.39518783       0.20253890       0.44479582      -0.00014566       0.00045802      -0.00225009
Sn       3.39511510       2.34333003       2.62234369      -0.00011698      -0.00034472       0.00397142
10
Lattice="4.268218996221685 -0.001998529627846663 0.9479288797541879 2.018482639281096 5.107589366854306 1.0016491457192933 -0.03471876600653064 -0.2337090745243316 10.238782006565591" Properties=species:S:1:pos:R:3:forces:R:3 structure_index=2 total_energy=-30.790048599243164 stress="-0.010619109496474266 -0.0006683118408545852 0.0006599726621061563 -0.0006682045059278607 -0.01055917888879776 0.0032366786617785692 0.0006599726621061563 0.003236507996916771 -0.01323778461664915" pbc="T T T"
Li       1.43120719       2.41844981       9.27565640       0.00559094       0.01823119      -0.02492072
Li       4.01090776       0.06346844       7.74231126      -0.00729767       0.03226927       0.03315740
Li       5.17853668       4.37516879       2.49260219      -0.00564384      -0.01923389       0.02487414
Li       4.84943954       1.61344327       3.96817861       0.00726928      -0.03132066      -0.03313982
Ga       3.95122418       2.99674780       8.01430492      -0.00019733       0.04938041       0.00164508
Ga       2.65845612       3.78984609       3.75411931       0.00059976      -0.04853546      -0.00341633
Sn       2.14312559       2.12935894       6.07110034      -0.00322653       0.00457861       0.01357400
Sn       3.16918902       2.20286443       1.44976454       0.00674779      -0.02348666      -0.02858743
Sn       4.46675330       4.65707735       5.69642000       0.00314375      -0.00314714      -0.01318294
Sn       3.44102321       4.58961019      10.31615051      -0.00698614       0.02126430       0.02999664
20
Lattice="6.9687455135821015 -0.001236789135096224 0.1938026769160754 0.0008015801793163893 6.400185853648815 -0.0010550287311915478 0.14934199248508692 0.0013867543344390125 7.140274697221806" Properties=species:S:1:pos:R:3:forces:R:3 structure_index=3 total_energy=-53.015220642089844 stress="-0.02290814369916916 -2.019512430706527e-05 -0.0002935322991106659 -2.028654307650868e-05 -0.012914284132421017 1.5849447663640603e-05 -0.000294062978355214 1.5782174159539863e-05 -0.024455653503537178" pbc="T T T"
Li       6.33591747       4.16590456       4.24846990       0.00032279      -0.00147635       0.01932837
Li       5.48602377       2.58121419       6.21046467      -0.00749213      -0.03919613      -0.00102210
Li       1.41976669       5.77206340       4.70871374      -0.00510541      -0.03149328      -0.01461596
Li       2.54446751       2.63260497       0.39366313      -0.02335664      -0.01241823       0.00890318
Li       4.18274383       5.76264359       3.46363595       0.03115917      -0.00004256      -0.00385946
Li       0.59727082       0.96349409       6.77714635      -0.01810464       0.00278729      -0.01264038
Li       4.73034740       4.16548938       1.23821084      -0.00754937      -0.00167204      -0.02279389
Li       5.48372206       5.74879755       6.20870145      -0.00305143       0.03790142      -0.00027734
Li       4.18367894       2.56706031       3.46203401       0.02854110      -0.00126552      -0.00090449
Li       2.07923972       0.96235609       2.59747936       0.01457442       0.00205446       0.01570774
Li       1.41686654       2.55782582       4.70725915      -0.00013103       0.03278179      -0.01202120
Li       2.54575837       5.69542771       0.39051917      -0.02451683       0.01259461       0.01302616
Ga       6.31989003       0.96317116       4.18373462       0.01164171       0.00144962       0.00238602
Ga       6.96936551       5.68606828       2.07161761      -0.00119335       0.01247767      -0.00400914
Ga       3.44938226       4.16419382       5.48149818      -0.00675511      -0.00141714      -0.01087994
Ga       6.96958289       2.64124743       2.07260124      -0.00187408      -0.01240552      -0.00504775
Ga       3.42944669       0.96579062       5.44773342      -0.00776622       0.00085919       0.03009227
Ga       2.10987608       4.16637256       2.63789563       0.04429780      -0.00334153      -0.02057172
Ga       0.59196770       4.16673902       6.77667297      -0.01983713      -0.00233925       0.01044015
Sn       4.70158444       0.96262192       1.22361477      -0.00380365       0.00416148       0.00875951
9
Lattice="4.322394340950029 -0.0014959617205014463 1.4768910311231882 2.1493811875598565 4.861123228514137 0.776576630252954 -0.05270853678861431 0.0874315777811618 7.219064444030424" Properties=species:S:1:pos:R:3:forces:R:3 structure_index=4 total_energy=-22.450973510742188 stress="0.020777560770511627 0.006688406225293875 0.012613747268915176 0.006688171066343784 -0.02417520433664322 -0.019405072554945946 0.01261367741972208 -0.019404835999011993 -0.011031058616936207" pbc="T T T"
Li       2.78180061       2.54293465       2.15801087      -0.00626831      -0.01926699       0.02318396
Li       4.59095460       1.68299116       3.92797890      -0.00633872       0.00342487       0.01773477
Li       3.52464763       1.05112490       7.04416009       0.00967102       0.02191328      -0.02492936
Li       3.88611846       3.37167417       6.00019097       0.00090007       0.02646059      -0.00521698
Li       2.02176524       4.22776231       4.39473881       0.00096157      -0.02505148      -0.01055413
Li       4.76284948       4.57839190       3.42447143       0.01126791      -0.01482607      -0.02708927
Li       1.03594735       0.11958052       7.26267666      -0.00418887       0.01343241       0.01804251
Ga       1.95204426       1.34829498       4.59046335      -0.01407561       0.02409596       0.03666017
Sn       5.44353065       3.00376754       8.49902509       0.00807092      -0.03018254      -0.02783168
10
Lattice="4.212919955577635 -0.039606758876043 0.02611745559899794 0.046530677345291614 4.164207506427839 -0.8838895207492887 -0.049334320800829064 0.030990351736692665 10.35802131413084" Properties=species:S:1:pos:R:3:forces:R:3 structure_index=5 total_energy=-28.88437271118164 stress="0.006544025614857674 0.01432205643504858 0.03128344938158989 0.014322073198854923 0.006132661830633879 0.007783937267959118 0.03128363937139511 0.007784022483974695 -0.013152467086911201" pbc="T T T"
Li       2.68936938       0.48102311       3.71984031       0.00202091      -0.00301392      -0.00812449
Li       2.70825172       2.98246590       5.24199041       0.00050496       0.00057166       0.01907804
Li       0.58828124       0.04178983       1.56324095       0.00036387      -0.00162881      -0.00172491
Li       0.56794177       1.73020118       9.49006259       0.00079461      -0.00440883      -0.01137687
Li       0.59738921       3.40181418       7.12842984       0.00001438       0.00807024       0.01929722
Ga       0.57981647       0.93560842       5.75276989       0.00106183       0.00272963       0.01417808
Ga       2.68169694       1.26494431       7.40893076      -0.00361102       0.00534905       0.02617397
Ga       2.72016865       2.12756174       1.25958857      -0.00025637      -0.00407411      -0.04162986
Sn       2.69760317       3.79803712       9.09297606       0.00082181       0.00370041       0.00926208
Sn       0.60761675       2.57325066       3.22154017      -0.00171497      -0.00729533      -0.02513329
5
Lattice="3.8307415589102316 -0.0003608480289798835 -1.2801589395529664 -0.42767764485124055 3.8015532103237115 -1.2805949881320093 0.14192272795327365 0.15945285056865713 6.788407228037183" Properties=species:S:1:pos:R:3:forces:R:3 structure_index=6 total_energy=-14.727460861206055 stress="-0.06882330030202866 0.007223059423267841 0.020631643012166023 0.007223084103316069 -0.06808630377054214 0.023005487397313118 0.020631730556488037 0.02300546132028103 -0.014135285280644894" pbc="T T T"
Li       1.47126505       1.65169580       0.02207737       0.00144488       0.00148378      -0.00055543
Ga       0.09459163       2.25765590       2.27500310       0.00432707       0.00280863       0.01368973
Ga       3.17349539       3.55265788      -1.26115256      -0.00251192      -0.00136808      -0.00107356
Ga       0.86086299       3.10704495       4.55370595      -0.00706699      -0.00465721      -0.01248106
Sn       2.60394864       0.77983551       3.41354197       0.00380694       0.00173287       0.00042030
10
Lattice="4.205459325145347 0.004732714030713739 -0.0032546671309216287 -0.00418486793918709 4.141117518468104 -0.8319210006534637 0.010866902440227644 0.02667201998914565 10.889832398886032" Properties=species:S:1:pos:R:3:forces:R:3 structure_index=7 total_energy=-29.776533126831055 stress="0.028225461021065712 0.00527045875787735 0.0054836212657392025 0.005270503461360931 -0.01335801463574171 -0.002588806441053748 0.0054838405922055244 -0.002588699571788311 0.04164063185453415" pbc="T T T"
Li       2.86834976       2.96283429       8.69767581      -0.00033521       0.00181260       0.00124513
Li       2.86705196       0.43620192       6.82899403       0.00059582       0.00287684       0.01562552
Li       2.85959101       3.77877081       2.01247776       0.00030052      -0.00005483      -0.00346247
Ga       2.86343458       2.14990694       4.63139209       0.00014614      -0.01078688      -0.04702104
Ga       2.86088561       1.26506358       0.20787765       0.00002481       0.00336798       0.02290385
Ga       0.76216895       0.06133370       4.97481779       0.00112353       0.00223673       0.00339008
Ga       0.76270084       2.51787881       6.48509132      -0.00084722      -0.00396738      -0.01427467
Ga       0.75701175       3.34124470      -0.16477543      -0.00137713      -0.00063484       0.00607590
Sn       0.75902723       1.70169451       2.40915502       0.00025691      -0.00024326      -0.00382158
Sn       0.76714780       0.86011280       8.96530281       0.00011183       0.00539303       0.01933923
4
Lattice="4.285584779800441 0.0005884235572580314 -0.0007587227498460988 -0.0018296005553977658 4.285417881259334 -0.0011601703049429761 0.00045683105463164463 0.0007003021674451928 4.349716495281128" Properties=species:S:1:pos:R:3:forces:R:3 structure_index=8 total_energy=-12.158613204956055 stress="0.07452839612960815 -0.0036183560732752085 -0.0015343136619776487 -0.003618295304477215 0.07330191135406494 -0.0023613274097442627 -0.0015342817641794682 -0.0023613041266798973 0.015214180573821068" pbc="T T T"
Li       2.48560493       0.38454834       0.94479706       0.00020161      -0.00036635      -0.00048178
Ga       0.34328866       0.38487690       3.11871545      -0.00039683      -0.00097034       0.00194178
Ga       2.48482331       2.52726252       3.11919629       0.00042388       0.00065215      -0.00160608
Sn       0.34191474       2.52689338       0.94386442      -0.00022865       0.00068454       0.00014608
9
Lattice="3.136524974835845 0.006540975987150204 -0.0018650840011041685 -1.5714960976069436 2.720361942879714 -0.0020328446995792723 -0.0037302883323398813 -0.004604997620531974 20.3750633037275" Properties=species:S:1:pos:R:3:forces:R:3 structure_index=9 total_energy=-25.06151008605957 stress="0.0026526052970439196 -0.001204612199217081 -5.280903496895917e-05 -0.0012047633063048124 0.0003611867723520845 0.0006205820245668292 -5.264615538180806e-05 0.0006205032113939524 0.0058428216725587845" pbc="T T T"
Li       2.23345405       0.92327454       0.37243073      -0.00138357      -0.00406537      -0.02401473
Li       2.23580178       0.92597613       4.92418504      -0.00051573       0.00048555      -0.00711712
Li       2.23757345       0.92847805       9.18014532      -0.00071807       0.00065026       0.02456075
Ga       2.23100217       0.93094370      13.60596199       0.00009685      -0.00065166       0.00239133
Ga       2.23270581       0.93062511      18.08699992       0.00067950       0.00433398      -0.03300042
Ga       0.66602967       1.83366230       7.04664863       0.00060140       0.00042562       0.00870847
Ga       0.66611262       1.83633359      11.39008608       0.00016085      -0.00002098       0.04785450
Ga       0.65851418       1.83570319      15.81556467       0.00087511       0.00013040       0.01544769
Sn       0.66441969       1.83265877       2.63469415       0.00020367      -0.00128779      -0.03483044
12
Lattice="3.913207051941832 0.0037099630388342767 1.0619222546709737 1.2413302565082966 6.904146132272288 3.144579031406414 -0.027464523384365964 0.06821876182410944 7.846435780002594" Properties=species:S:1:pos:R:3:forces:R:3 structure_index=10 total_energy=-34.33161544799805 stress="0.028575213626027107 -2.6152085411013104e-05 0.013271722942590714 -2.617184873088263e-05 0.002688105683773756 0.008374110795557499 0.01327174250036478 0.00837403442710638 -0.0032830226700752974" pbc="T T T"
Li       1.17306533       1.44770067       4.01091924       0.00527863       0.01194729      -0.01331306
Li       2.62776657       2.68239773       6.39008285       0.00089908      -0.01108197      -0.00144246
Li       4.10583008       3.84333210       8.68605519      -0.00137355      -0.00690717       0.00006788
Li       3.25587148       6.04856219       4.06719710       0.00244984       0.01749090      -0.01202010
Ga       2.53203476       5.43617415       6.73462492       0.00384307       0.02638765      -0.01258501
Ga       1.68928344       4.84091530       9.84311688       0.00225145      -0.00509771      -0.00379211
Ga       1.87463718       2.11677051       9.17391736      -0.00021351      -0.01235487      -0.00531785
Ga       3.56485886       0.33144030       2.94736753      -0.01023044       0.00363505       0.03366628
Ga       0.33322663       1.07206747       7.11330647       0.00095517      -0.03997844      -0.00326058
Ga       0.98421353       4.30254797       4.70006413       0.00379832       0.01125275      -0.01371016
Ga       3.38217481       3.15145875       3.60565120      -0.00215176       0.00518909       0.01147746
Sn       4.00290821       6.69042265       9.05153295      -0.00550629      -0.00048257       0.02022969
6
Lattice="4.293019651640088 0.08743905469909562 1.8007031308694146 1.2790307804841419 4.976435388700854 2.790555468321781 0.11266401539713664 0.09578578822215829 5.833309931213919" Properties=species:S:1:pos:R:3:forces:R:3 structure_index=11 total_energy=-18.437599182128906 stress="-0.0572657510638237 -0.0037112992722541094 0.016323894262313843 -0.003711152356117964 -0.0405392125248909 -0.007828326895833015 0.016323981806635857 -0.007828239351511002 -0.05924578756093979" pbc="T T T"
Li       3.29011899       0.69061695       5.77548940      -0.00006696      -0.01296379       0.00459939
Li       3.88400304       3.13507820       4.23834820      -0.00052338       0.01283705      -0.00365917
Ga       0.32677473       0.08282608       0.84058239      -0.00923050      -0.01144776      -0.03200553
Ga       2.55377425       3.65412943       7.37386035       0.00926804       0.01555625       0.03056003
Sn       1.94277515       1.02799862       2.95706548       0.00843847      -0.00751511      -0.01318765
Sn       0.93766697       2.71086749       5.25707645      -0.00788565       0.00353337       0.01369295
6
Lattice="4.537172450709022 0.0036683198526470456 -0.00040524247437383063 -2.265618869031247 3.930081199426473 0.0010525849110969107 -0.0002801089539832824 -0.0019469233108897772 7.301338816118553" Properties=species:S:1:pos:R:3:forces:R:3 structure_index=12 total_energy=-18.394859313964844 stress="0.016449881717562675 -0.002218701411038637 -0.00083969283150509 -0.002218683948740363 0.014389759860932827 -0.0003246408887207508 -0.0008397008641622961 -0.0003247017157264054 -0.03352527692914009" pbc="T T T"
Li      -0.46645061       1.89697960       7.23266636       0.00130798      -0.00072023      -0.00088503
Li      -0.47439255       1.90112100       3.58431749       0.00001295       0.00007096       0.00294701
Ga       1.80141043       3.21011470       5.91118212      -0.00015233       0.00065203      -0.02609269
Ga       1.80191408       3.21167809       1.23353169      -0.00037308       0.00023018       0.02677923
Sn       1.79805953       0.59106241       2.06497361      -0.00060144      -0.00023212      -0.02078009
Sn       1.79745782       0.58992634       5.08054880      -0.00019409      -0.00000081       0.01803158
6
Lattice="2.9963275891985264 0.0012490324518155216 -0.40768710287776416 -0.05667735255526413 2.99582243862991 -0.4074675573367184 0.3263687711472885 0.3316176865588815 13.617549351132677" Properties=species:S:1:pos:R:3:forces:R:3 structure_index=13 total_energy=-18.676177978515625 stress="0.013543516397476196 -0.00041738589061424136 -0.003746547969058156 -0.00041746030910871923 0.013524183072149754 -0.003914262633770704 -0.003746557515114546 -0.003914123401045799 -0.01592417247593403" pbc="T T T"
Li       2.22943108       1.47911205       7.31483280      -0.00095484      -0.00086119      -0.00936424
Li       2.92264074       2.18661801       1.18256462       0.00081113       0.00076608       0.00916449
Ga       0.43794046       2.70611059       5.36111009      -0.00073983      -0.00055223      -0.00764099
Ga       1.71817536       0.95800828       3.54386745       0.00059058       0.00072229       0.00773877
Sn       1.05754789       0.28470774       9.91290582       0.00190289       0.00170796       0.01138609
Sn       1.48059273       0.71578028      13.01714644      -0.00160991      -0.00178290      -0.01128411
4
Lattice="4.363521975064312 -4.472081349780537e-05 -0.00020433753724650964 3.4619848046693384e-05 4.5388407437126865 -0.0003828174998702902 0.00030129980090658204 0.0004155353951317448 4.538156441416509" Properties=species:S:1:pos:R:3:forces:R:3 structure_index=14 total_energy=-13.074080467224121 stress="0.04958635941147804 -4.266606629244052e-05 0.0003058510774280876 -4.258235640008934e-05 -0.061140917241573334 0.0001267417101189494 0.0003058744769077748 0.00012649144628085196 -0.06358906626701355" pbc="T T T"
Li       0.36045613       3.02135000       2.18140824       0.00102884      -0.00076031       0.00074469
Ga       0.36083288       0.75180697       4.45126347       0.00120053       0.00069731      -0.00068529
Sn       2.54298512       3.02168410       4.45111176      -0.00102523      -0.00181348      -0.00140606
Sn       2.54293989       0.75116726       2.18166489      -0.00120414       0.00187646       0.00134668
4
Lattice="4.2833188906471085 6.341764624824558e-05 -0.0009394545924410898 -0.00019522182231228793 4.283588664156182 -9.451699880799061e-05 0.0005694180629243656 5.9126253588333935e-05 4.354004075193502" Properties=species:S:1:pos:R:3:forces:R:3 structure_index=15 total_energy=-12.158632278442383 stress="0.07134494930505753 -0.00038734739064238966 -0.001896180328913033 -0.0003872918023262173 0.07331684976816177 -0.00019371326197870076 -0.0018960762536153197 -0.0001937494525918737 0.04838656634092331" pbc="T T T"
Li       3.54759155       0.00517113       0.83143389       0.00097419       0.00024927      -0.00058243
Ga       3.54827966       2.14733925       3.00786921       0.00020331      -0.00097778       0.00177528
Ga       1.40668197       0.00442749       3.00871879      -0.00030059       0.00176792       0.00095712
Sn       1.40642483       2.14685294       0.83220691      -0.00087690      -0.00103940      -0.00214999
4
Lattice="4.032263176434582 6.95044031553636e-05 2.3281350993555514 1.3428449178491129 3.8021456510005516 2.328539782887946 8.532560006340123e-05 5.225788970011258e-05 4.656944549218205" Properties=species:S:1:pos:R:3:forces:R:3 structure_index=16 total_energy=-11.746590614318848 stress="0.06355293840169907 -0.0007315443945117295 -0.0005587346386164427 -0.0007315028342418373 0.06545786559581757 -0.00020432742894627154 -0.0005586823681369424 -0.00020433917234186083 0.06392913311719894" pbc="T T T"
Li       4.53395877       3.38200049       5.68814817       0.00002162       0.00019331      -0.00034629
Li       1.84627566       1.48095254       5.68829591       0.00039252       0.00005158      -0.00041348
Ga       0.50276722       0.53035803       3.35963379      -0.00039019       0.00006661       0.00043305
Sn       3.19011277       2.43155413       3.35960219      -0.00002394      -0.00031150       0.00032672
4
Lattice="4.337494302908489 0.0015082829939651458 -0.003481212576341745 -0.0016467242942582896 4.291045117829564 -0.0017251378657114208 0.0031230494929274004 0.0010037278547981342 4.290477538444469" Properties=species:S:1:pos:R:3:forces:R:3 structure_index=17 total_energy=-12.158475875854492 stress="-0.08814579993486404 -0.0008292377460747957 -0.0014969949843361974 -0.0008292224374599755 0.07015304267406464 -0.002080861944705248 -0.0014970789197832346 -0.0020809543784707785 0.06588830053806305" pbc="T T T"
Li       3.11685999       0.14842558       3.01283452       0.00008049       0.00114401       0.00190897
Ga       0.94642716       0.14789680       0.87028178       0.00039403      -0.00000139      -0.00084476
Ga       0.94755184       2.29369816       3.01440668      -0.00063437      -0.00019953       0.00104633
Sn       3.11449995       2.29419833       0.86785916       0.00015986      -0.00094309      -0.00211053
13
Lattice="5.284437019828478 0.026624281619232106 0.5589556594268122 -2.66334122541319 4.711523730174976 -0.29974883756874493 -0.06839380060176138 0.044123384606013956 9.856624153712849" Properties=species:S:1:pos:R:3:forces:R:3 structure_index=18 total_energy=-37.36309814453125 stress="0.014001690782606602 0.0006319560343399644 0.0030628694221377373 0.0006317500956356525 0.004297357052564621 8.152482041623443e-05 0.0030630414839833975 8.144485036609694e-05 0.004885144531726837" pbc="T T T"
Li       2.18267351       4.00863274       3.75876346       0.01512107       0.00361940      -0.00874821
Li       2.68214739       2.61054814       8.33264518      -0.00812038      -0.00824681       0.01347673
Li      -0.22906130       0.91601602       1.35104741      -0.00230050       0.00060220      -0.04825915
Li       2.52106798       0.92573851       0.62118329       0.00257401       0.00168565       0.04809596
Li       0.01218749       4.01766542       8.04726256      -0.01764803       0.00323325       0.00954188
Li      -0.47500946       2.56346433       3.48583068       0.00851129       0.00393241      -0.00967644
Ga       3.75033145       0.94484479       6.19706845       0.00321635       0.00156226      -0.00024885
Ga       1.10519273       2.61703695       5.90999263      -0.00275573       0.03716017      -0.00233965
Ga      -1.54382419       3.97147986       5.62172253      -0.00005540      -0.03339584       0.00433414
Ga      -1.50747627       3.27657744       0.70303034       0.00004132      -0.00927215      -0.00195607
Sn       2.17930616       0.93397743       3.68634132      -0.00962217      -0.00413195      -0.01051569
Sn       1.13518586       3.28074053       0.97768802      -0.00033758       0.00036282      -0.00043293
Sn       0.04199523       0.94428049       8.14556653       0.01137568       0.00288860       0.00672823
10
Lattice="3.012371967420293 -0.0003144227920980203 0.00039448296948734434 0.0008388777899914153 7.910027278590972 0.00016171536229007779 -0.0012154797697844463 -5.924087839405996e-05 7.908854007255655" Properties=species:S:1:pos:R:3:forces:R:3 structure_index=19 total_energy=-28.908279418945312 stress="-0.016127727925777435 -0.0001663187867961824 -0.0001942922972375527 -0.0001664347801124677 0.009931056760251522 2.090762609441299e-05 -0.00019436627917457372 2.0567553292494267e-05 0.009687704034149647" pbc="T T T"
Li       1.65440399       0.85566877       4.53727000       0.00048968      -0.03115750      -0.03061583
Li       1.65429421       3.67293453       7.35472609       0.00053715       0.03203270       0.03197991
Li       1.65559629       7.62760885       0.58514754       0.00066241       0.03261361      -0.03303253
Li       1.65623880       4.80905596       3.40029876      -0.00134097      -0.03046830       0.03198294
Ga       0.14965752       7.14743375       2.92158015      -0.00054539      -0.00782052      -0.00646015
Ga       0.14894012       3.19306725       5.01753763      -0.00033053      -0.00732340       0.00771065
Ga       0.14988485       5.29014842       1.06363132      -0.00078104       0.00679195       0.00598162
Ga       0.14777018       1.33545499       6.87522230       0.00008983       0.00587883      -0.00647163
Sn       0.14887167       6.22012084       5.94675915       0.00004740      -0.00085803      -0.00032549
Sn       0.14799874       2.26386601       1.99187462       0.00117142       0.00031065      -0.00074941
4
Lattice="4.283935967325174 0.00039766921134066097 -0.0008103277257770668 -0.0012193121094225547 4.2839047363567495 2.7671839750279936e-05 0.0004913839955286416 -1.6226981087983515e-05 4.353427407938335" Properties=species:S:1:pos:R:3:forces:R:3 structure_index=20 total_energy=-12.158628463745117 stress="0.07593689858913422 -0.0024180631153285503 -0.0016351290978491306 -0.002418148098513484 0.07571512460708618 4.8614569095661864e-05 -0.0016352292150259018 4.87168254039716e-05 0.04697900637984276" pbc="T T T"
Li       1.73609517       2.83002671       3.74477913       0.00078208       0.00108088       0.00014414
Ga       1.73683916       0.68852053       1.56798567       0.00018293       0.00001858      -0.00075491
Ga       3.87836306       2.83112762       1.56761042      -0.00048066      -0.00045738      -0.00081036
Sn       3.87905014       0.68901809       3.74380120      -0.00048436      -0.00064207       0.00142112
4
Lattice="4.43759300388824 0.0017501222998211358 -0.0010255412939739548 -0.0012655246589313494 4.051944397062244 -0.0016317614629568016 0.0011998796064084385 0.0029026517383139647 4.0523928609382756" Properties=species:S:1:pos:R:3:forces:R:3 structure_index=21 total_energy=-11.800243377685547 stress="-0.07771438360214233 0.001149713876657188 0.0008914456120692194 0.0011498958338052034 -0.09788423776626587 0.012014352716505527 0.000891487579792738 0.012014268897473812 -0.09558094292879105" pbc="T T T"
Li       3.52293720       3.31690336       2.60756957       0.00036191      -0.00002291       0.00028748
Li       3.52282078       1.28958752       0.58223691       0.00063084      -0.00034659       0.00007138
Ga       1.30460597       1.28984673       2.60911820       0.00014665       0.00052539      -0.00017899
Sn       1.30384380       3.31448795       0.58208682      -0.00113939      -0.00015589      -0.00017986
16
Lattice="5.149748723597028 -0.009551628000583592 0.018567378429925382 0.04883229740565095 6.1078573411731805 0.10319466891784143 0.03455445005194495 0.057194579288716386 9.570270099046876" Properties=species:S:1:pos:R:3:forces:R:3 structure_index=22 total_energy=-45.8351936340332 stress="-0.015293297357857227 -0.004188762046396732 -0.001231970963999629 -0.004188702441751957 -0.01197818759828806 0.004297174513339996 -0.0012319947127252817 0.004297198262065649 -0.02207884192466736" pbc="T T T"
Li       1.30904219       5.62672521       5.84968211      -0.00226763      -0.01890375       0.00271307
Li       4.75972154       5.63308781       8.26284530      -0.01765956      -0.00639269       0.00715553
Li       1.18059678       2.67449130       5.81223258      -0.02804741      -0.00668650       0.00126714
Li       2.10886041       1.19403405       8.24389599       0.02890227       0.01354661      -0.00539390
Li       4.72947427       5.70662509       3.49019163       0.00606222      -0.00578403      -0.01390480
Li       3.07953989       2.61181199       1.03109263       0.02403551       0.03877326      -0.00079685
Li       2.19446110       4.12624012       3.43326377       0.00427308      -0.02423283      -0.01207646
Ga       0.40503034       1.13483854       0.97844699      -0.02734745       0.00606941      -0.00890079
Ga       2.16893187       4.11596734       8.09456985       0.01979390      -0.03137807      -0.02014536
Ga       4.65887250       2.63622588       3.48953798      -0.00222446      -0.00297894       0.00594158
Ga       1.98196749       1.18744997       3.39902016      -0.01707675       0.02336881       0.01261820
Ga       4.71260181       2.68315258       8.17426662      -0.01878630      -0.01597374      -0.02369832