# Thermal properties / unit cell (natom)

unit:
  temperature:   K
  free_energy:   kJ/mol
  entropy:       J/K/mol
  heat_capacity: J/K/mol

natom: 18   
cutoff_frequency: 0.00000
num_modes: 157950
num_integrated_modes: 157948

zero_point_energy:      57.0492331

thermal_properties:
- temperature:         0.0000000
  free_energy:        57.0492331
  entropy:             0.0000000
  heat_capacity:       0.0000000
  energy:             57.0492331

- temperature:        10.0000000
  free_energy:        57.0429400
  entropy:             2.5723884
  heat_capacity:       8.2253270
  energy:             57.0686638

- temperature:        20.0000000
  free_energy:        56.9452225
  entropy:            19.9149981
  heat_capacity:      50.9171070
  energy:             57.3435224

- temperature:        30.0000000
  free_energy:        56.6027809
  entropy:            49.7273233
  heat_capacity:      97.5268618
  energy:             58.0946006

- temperature:        40.0000000
  free_energy:        55.9404356
  entropy:            82.8378335
  heat_capacity:     132.6484635
  energy:             59.2539490

- temperature:        50.0000000
  free_energy:        54.9477570
  entropy:           115.5183841
  heat_capacity:     160.5363248
  energy:             60.7236762

- temperature:        60.0000000
  free_energy:        53.6340807
  entropy:           147.0162971
  heat_capacity:     185.4434255
  energy:             62.4550586

- temperature:        70.0000000
  free_energy:        52.0111972
  entropy:           177.3854342
  heat_capacity:     208.9947158
  energy:             64.4281776

- temperature:        80.0000000
  free_energy:        50.0896521
  entropy:           206.7680676
  heat_capacity:     231.3769362
  energy:             66.6310975

- temperature:        90.0000000
  free_energy:        47.8788463
  entropy:           235.2456802
  heat_capacity:     252.3327945
  energy:             69.0509575

- temperature:       100.0000000
  free_energy:        45.3876644
  entropy:           262.8446777
  heat_capacity:     271.6070582
  energy:             71.6721322

- temperature:       110.0000000
  free_energy:        42.6248803
  entropy:           289.5652589
  heat_capacity:     289.0736837
  energy:             74.4770588

- temperature:       120.0000000
  free_energy:        39.5993053
  entropy:           315.4022197
  heat_capacity:     304.7329475
  energy:             77.4475717

- temperature:       130.0000000
  free_energy:        36.3197830
  entropy:           340.3553660
  heat_capacity:     318.6726416
  energy:             80.5659806

- temperature:       140.0000000
  free_energy:        32.7951171
  entropy:           364.4330658
  heat_capacity:     331.0295270
  energy:             83.8157463

- temperature:       150.0000000
  free_energy:        29.0339842
  entropy:           387.6522341
  heat_capacity:     341.9609346
  energy:             87.1818193

- temperature:       160.0000000
  free_energy:        25.0448549
  entropy:           410.0368257
  heat_capacity:     351.6266637
  energy:             90.6507470

- temperature:       170.0000000
  free_energy:        20.8359330
  entropy:           431.6159334
  heat_capacity:     360.1786753
  energy:             94.2106417

- temperature:       180.0000000
  free_energy:        16.4151133
  entropy:           452.4219996
  heat_capacity:     367.7559804
  energy:             97.8510732

- temperature:       190.0000000
  free_energy:        11.7899556
  entropy:           472.4893274
  heat_capacity:     374.4827238
  energy:            101.5629278

- temperature:       200.0000000
  free_energy:         6.9676725
  entropy:           491.8529278
  heat_capacity:     380.4681007
  energy:            105.3382580

- temperature:       210.0000000
  free_energy:         1.9551265
  entropy:           510.5476697
  heat_capacity:     385.8072408
  energy:            109.1701371

- temperature:       220.0000000
  free_energy:        -3.2411653
  entropy:           528.6076814
  heat_capacity:     390.5825366
  energy:            113.0525246

- temperature:       230.0000000
  free_energy:        -8.6150215
  entropy:           546.0659479
  heat_capacity:     394.8651129
  energy:            116.9801465

- temperature:       240.0000000
  free_energy:       -14.1605839
  entropy:           562.9540569
  heat_capacity:     398.7162744
  energy:            120.9483897

- temperature:       250.0000000
  free_energy:       -19.8723025
  entropy:           579.3020532
  heat_capacity:     402.1888459
  energy:            124.9532108

- temperature:       260.0000000
  free_energy:       -25.7449196
  entropy:           595.1383722
  heat_capacity:     405.3283737
  energy:            128.9910572

- temperature:       270.0000000
  free_energy:       -31.7734539
  entropy:           610.4898285
  heat_capacity:     408.1741770
  energy:            133.0587998

- temperature:       280.0000000
  free_energy:       -37.9531842
  entropy:           625.3816417
  heat_capacity:     410.7602564
  energy:            137.1536755

- temperature:       290.0000000
  free_energy:       -44.2796336
  entropy:           639.8374878
  heat_capacity:     413.1160729
  energy:            141.2732378

- temperature:       300.0000000
  free_energy:       -50.7485548
  entropy:           653.8795664
  heat_capacity:     415.2672102
  energy:            145.4153151

- temperature:       310.0000000
  free_energy:       -57.3559152
  entropy:           667.5286759
  heat_capacity:     417.2359381
  energy:            149.5779743

- temperature:       320.0000000
  free_energy:       -64.0978835
  entropy:           680.8042949
  heat_capacity:     419.0416888
  energy:            153.7594908

- temperature:       330.0000000
  free_energy:       -70.9708171
  entropy:           693.7246631
  heat_capacity:     420.7014616
  energy:            157.9583217

- temperature:       340.0000000
  free_energy:       -77.9712497
  entropy:           706.3068619
  heat_capacity:     422.2301642
  energy:            162.1730834

- temperature:       350.0000000
  free_energy:       -85.0958805
  entropy:           718.5668929
  heat_capacity:     423.6409037
  energy:            166.4025320

- temperature:       360.0000000
  free_energy:       -92.3415637
  entropy:           730.5197518
  heat_capacity:     424.9452324
  energy:            170.6455469

- temperature:       370.0000000
  free_energy:       -99.7052986
  entropy:           742.1794992
  heat_capacity:     426.1533575
  energy:            174.9011161

- temperature:       380.0000000
  free_energy:      -107.1842207
  entropy:           753.5593273
  heat_capacity:     427.2743193
  energy:            179.1683236

- temperature:       390.0000000
  free_energy:      -114.7755935
  entropy:           764.6716212
  heat_capacity:     428.3161439
  energy:            183.4463388

- temperature:       400.0000000
  free_energy:      -122.4768003
  entropy:           775.5280171
  heat_capacity:     429.2859731
  energy:            187.7344066

- temperature:       410.0000000
  free_energy:      -130.2853374
  entropy:           786.1394559
  heat_capacity:     430.1901765
  energy:            192.0318396

- temperature:       420.0000000
  free_energy:      -138.1988072
  entropy:           796.5162325
  heat_capacity:     431.0344473
  energy:            196.3380104

- temperature:       430.0000000
  free_energy:      -146.2149122
  entropy:           806.6680418
  heat_capacity:     431.8238848
  energy:            200.6523458

- temperature:       440.0000000
  free_energy:      -154.3314487
  entropy:           816.6040212
  heat_capacity:     432.5630665
  energy:            204.9743206

- temperature:       450.0000000
  free_energy:      -162.5463020
  entropy:           826.3327896
  heat_capacity:     433.2561090
  energy:            209.3034534

- temperature:       460.0000000
  free_energy:      -170.8574410
  entropy:           835.8624834
  heat_capacity:     433.9067223
  energy:            213.6393014

- temperature:       470.0000000
  free_energy:      -179.2629137
  entropy:           845.2007900
  heat_capacity:     434.5182558
  energy:            217.9814576

- temperature:       480.0000000
  free_energy:      -187.7608431
  entropy:           854.3549781
  heat_capacity:     435.0937394
  energy:            222.3295464

- temperature:       490.0000000
  free_energy:      -196.3494225
  entropy:           863.3319263
  heat_capacity:     435.6359186
  energy:            226.6832214

- temperature:       500.0000000
  free_energy:      -205.0269125
  entropy:           872.1381493
  heat_capacity:     436.1472856
  energy:            231.0421621

- temperature:       510.0000000
  free_energy:      -213.7916370
  entropy:           880.7798216
  heat_capacity:     436.6301063
  energy:            235.4060720

- temperature:       520.0000000
  free_energy:      -222.6419800
  entropy:           889.2628000
  heat_capacity:     437.0864445
  energy:            239.7746760

- temperature:       530.0000000
  free_energy:      -231.5763826
  entropy:           897.5926443
  heat_capacity:     437.5181830
  energy:            244.1477189

- temperature:       540.0000000
  free_energy:      -240.5933401
  entropy:           905.7746361
  heat_capacity:     437.9270415
  energy:            248.5249634

- temperature:       550.0000000
  free_energy:      -249.6913993
  entropy:           913.8137963
  heat_capacity:     438.3145937
  energy:            252.9061887

- temperature:       560.0000000
  free_energy:      -258.8691559
  entropy:           921.7149017
  heat_capacity:     438.6822816
  energy:            257.2911891

- temperature:       570.0000000
  free_energy:      -268.1252523
  entropy:           929.4824997
  heat_capacity:     439.0314283
  energy:            261.6797725

- temperature:       580.0000000
  free_energy:      -277.4583753
  entropy:           937.1209227
  heat_capacity:     439.3632494
  energy:            266.0717599

- temperature:       590.0000000
  free_energy:      -286.8672540
  entropy:           944.6343008
  heat_capacity:     439.6788634
  energy:            270.4669835

- temperature:       600.0000000
  free_energy:      -296.3506577
  entropy:           952.0265737
  heat_capacity:     439.9793007
  energy:            274.8652866

- temperature:       610.0000000
  free_energy:      -305.9073943
  entropy:           959.3015023
  heat_capacity:     440.2655118
  energy:            279.2665221

- temperature:       620.0000000
  free_energy:      -315.5363086
  entropy:           966.4626788
  heat_capacity:     440.5383744
  energy:            283.6705523

- temperature:       630.0000000
  free_energy:      -325.2362802
  entropy:           973.5135365
  heat_capacity:     440.7987001
  energy:            288.0772478

- temperature:       640.0000000
  free_energy:      -335.0062225
  entropy:           980.4573587
  heat_capacity:     441.0472400
  energy:            292.4864870

- temperature:       650.0000000
  free_energy:      -344.8450810
  entropy:           987.2972872
  heat_capacity:     441.2846905
  energy:            296.8981557

- temperature:       660.0000000
  free_energy:      -354.7518320
  entropy:           994.0363303
  heat_capacity:     441.5116973
  energy:            301.3121460

- temperature:       670.0000000
  free_energy:      -364.7254810
  entropy:          1000.6773698
  heat_capacity:     441.7288604
  energy:            305.7283568

- temperature:       680.0000000
  free_energy:      -374.7650619
  entropy:          1007.2231680
  heat_capacity:     441.9367373
  energy:            310.1466923

- temperature:       690.0000000
  free_energy:      -384.8696357
  entropy:          1013.6763740
  heat_capacity:     442.1358469
  energy:            314.5670623

- temperature:       700.0000000
  free_energy:      -395.0382892
  entropy:          1020.0395298
  heat_capacity:     442.3266728
  energy:            318.9893816

- temperature:       710.0000000
  free_energy:      -405.2701343
  entropy:          1026.3150760
  heat_capacity:     442.5096655
  energy:            323.4135697

- temperature:       720.0000000
  free_energy:      -415.5643066
  entropy:          1032.5053567
  heat_capacity:     442.6852458
  energy:            327.8395502

- temperature:       730.0000000
  free_energy:      -425.9199647
  entropy:          1038.6126245
  heat_capacity:     442.8538066
  energy:            332.2672512

- temperature:       740.0000000
  free_energy:      -436.3362896
  entropy:          1044.6390456
  heat_capacity:     443.0157152
  energy:            336.6966042

- temperature:       750.0000000
  free_energy:      -446.8124831
  entropy:          1050.5867034
  heat_capacity:     443.1713155
  energy:            341.1275445

- temperature:       760.0000000
  free_energy:      -457.3477678
  entropy:          1056.4576031
  heat_capacity:     443.3209294
  energy:            345.5600106

- temperature:       770.0000000
  free_energy:      -467.9413857
  entropy:          1062.2536751
  heat_capacity:     443.4648586
  energy:            349.9939441

- temperature:       780.0000000
  free_energy:      -478.5925981
  entropy:          1067.9767792
  heat_capacity:     443.6033863
  energy:            354.4292897

- temperature:       790.0000000
  free_energy:      -489.3006841
  entropy:          1073.6287073
  heat_capacity:     443.7367782
  energy:            358.8659947

- temperature:       800.0000000
  free_energy:      -500.0649407
  entropy:          1079.2111872
  heat_capacity:     443.8652840
  energy:            363.3040090

- temperature:       810.0000000
  free_energy:      -510.8846819
  entropy:          1084.7258849
  heat_capacity:     443.9891385
  energy:            367.7432849

- temperature:       820.0000000
  free_energy:      -521.7592379
  entropy:          1090.1744084
  heat_capacity:     444.1085625
  energy:            372.1837770

- temperature:       830.0000000
  free_energy:      -532.6879547
  entropy:          1095.5583093
  heat_capacity:     444.2237640
  energy:            376.6254421

- temperature:       840.0000000
  free_energy:      -543.6701936
  entropy:          1100.8790863
  heat_capacity:     444.3349390
  energy:            381.0682389

- temperature:       850.0000000
  free_energy:      -554.7053308
  entropy:          1106.1381869
  heat_capacity:     444.4422722
  energy:            385.5121280

- temperature:       860.0000000
  free_energy:      -565.7927564
  entropy:          1111.3370099
  heat_capacity:     444.5459381
  energy:            389.9570721

- temperature:       870.0000000
  free_energy:      -576.9318746
  entropy:          1116.4769077
  heat_capacity:     444.6461011
  energy:            394.4030351

- temperature:       880.0000000
  free_energy:      -588.1221025
  entropy:          1121.5591881
  heat_capacity:     444.7429169
  energy:            398.8499830

- temperature:       890.0000000
  free_energy:      -599.3628705
  entropy:          1126.5851161
  heat_capacity:     444.8365322
  energy:            403.2978828

- temperature:       900.0000000
  free_energy:      -610.6536211
  entropy:          1131.5559161
  heat_capacity:     444.9270864
  energy:            407.7467034

- temperature:       910.0000000
  free_energy:      -621.9938090
  entropy:          1136.4727734
  heat_capacity:     445.0147108
  energy:            412.1964148

- temperature:       920.0000000
  free_energy:      -633.3829006
  entropy:          1141.3368357
  heat_capacity:     445.0995301
  energy:            416.6469883

- temperature:       930.0000000
  free_energy:      -644.8203735
  entropy:          1146.1492149
  heat_capacity:     445.1816625
  energy:            421.0983964

- temperature:       940.0000000
  free_energy:      -656.3057162
  entropy:          1150.9109885
  heat_capacity:     445.2612198
  energy:            425.5506129

- temperature:       950.0000000
  free_energy:      -667.8384280
  entropy:          1155.6232007
  heat_capacity:     445.3383083
  energy:            430.0036126

- temperature:       960.0000000
  free_energy:      -679.4180184
  entropy:          1160.2868642
  heat_capacity:     445.4130288
  energy:            434.4573712

- temperature:       970.0000000
  free_energy:      -691.0440068
  entropy:          1164.9029612
  heat_capacity:     445.4854770
  energy:            438.9118656

- temperature:       980.0000000
  free_energy:      -702.7159223
  entropy:          1169.4724446
  heat_capacity:     445.5557438
  energy:            443.3670735

- temperature:       990.0000000
  free_energy:      -714.4333034
  entropy:          1173.9962392
  heat_capacity:     445.6239157
  energy:            447.8229735

- temperature:      1000.0000000
  free_energy:      -726.1956977
  entropy:          1178.4752428
  heat_capacity:     445.6900750
  energy:            452.2795451
