# Thermal properties / unit cell (natom)

unit:
  temperature:   K
  free_energy:   kJ/mol
  entropy:       J/K/mol
  heat_capacity: J/K/mol

natom: 10   
cutoff_frequency: 0.00000
num_modes: 187500
num_integrated_modes: 187497

zero_point_energy:      40.5572851

thermal_properties:
- temperature:         0.0000000
  free_energy:        40.5572851
  entropy:             0.0000000
  heat_capacity:       0.0000000
  energy:             40.5572851

- temperature:        10.0000000
  free_energy:        40.5565139
  entropy:             0.3507242
  heat_capacity:       1.2451492
  energy:             40.5600211

- temperature:        20.0000000
  free_energy:        40.5409593
  entropy:             3.3606477
  heat_capacity:       9.5422331
  energy:             40.6081723

- temperature:        30.0000000
  free_energy:        40.4787105
  entropy:             9.5136311
  heat_capacity:      21.9807426
  energy:             40.7641194

- temperature:        40.0000000
  free_energy:        40.3439918
  entropy:            17.6939213
  heat_capacity:      35.6688658
  energy:             41.0517487

- temperature:        50.0000000
  free_energy:        40.1205285
  entropy:            27.1757201
  heat_capacity:      49.9124410
  energy:             41.4793145

- temperature:        60.0000000
  free_energy:        39.7974907
  entropy:            37.5580347
  heat_capacity:      64.4467548
  energy:             42.0509728

- temperature:        70.0000000
  free_energy:        39.3672190
  entropy:            48.5867964
  heat_capacity:      78.9925464
  energy:             42.7682948

- temperature:        80.0000000
  free_energy:        38.8242468
  entropy:            60.0688613
  heat_capacity:      93.2187852
  energy:             43.6297557

- temperature:        90.0000000
  free_energy:        38.1648775
  entropy:            71.8409701
  heat_capacity:     106.8161579
  energy:             44.6305648

- temperature:       100.0000000
  free_energy:        37.3869311
  entropy:            83.7627531
  heat_capacity:     119.5550712
  energy:             45.7632064

- temperature:       110.0000000
  free_energy:        36.4895179
  entropy:            95.7166445
  heat_capacity:     131.3015959
  energy:             47.0183488

- temperature:       120.0000000
  free_energy:        35.4728094
  entropy:           107.6078894
  heat_capacity:     142.0055099
  energy:             48.3857561

- temperature:       130.0000000
  free_energy:        34.3378157
  entropy:           119.3630856
  heat_capacity:     151.6780723
  energy:             49.8550169

- temperature:       140.0000000
  free_energy:        33.0861851
  entropy:           130.9275824
  heat_capacity:     160.3700648
  energy:             51.4160466

- temperature:       150.0000000
  free_energy:        31.7200311
  entropy:           142.2624011
  heat_capacity:     168.1542874
  energy:             53.0593912

- temperature:       160.0000000
  free_energy:        30.2417916
  entropy:           153.3411845
  heat_capacity:     175.1131761
  energy:             54.7763811

- temperature:       170.0000000
  free_energy:        28.6541166
  entropy:           164.1474563
  heat_capacity:     181.3307715
  energy:             56.5591842

- temperature:       180.0000000
  free_energy:        26.9597812
  entropy:           174.6723029
  heat_capacity:     186.8879178
  energy:             58.4007957

- temperature:       190.0000000
  free_energy:        25.1616199
  entropy:           184.9124850
  heat_capacity:     191.8596767
  energy:             60.2949920

- temperature:       200.0000000
  free_energy:        23.2624776
  entropy:           194.8689414
  heat_capacity:     196.3141721
  energy:             62.2362658

- temperature:       210.0000000
  free_energy:        21.2651739
  entropy:           204.5456247
  heat_capacity:     200.3123113
  energy:             64.2197551

- temperature:       220.0000000
  free_energy:        19.1724776
  entropy:           213.9486080
  heat_capacity:     203.9080128
  energy:             66.2411713

- temperature:       230.0000000
  free_energy:        16.9870891
  entropy:           223.0854065
  heat_capacity:     207.1486999
  energy:             68.2967326

- temperature:       240.0000000
  free_energy:        14.7116286
  entropy:           231.9644683
  heat_capacity:     210.0759143
  energy:             70.3831010

- temperature:       250.0000000
  free_energy:        12.3486289
  entropy:           240.5947945
  heat_capacity:     212.7259607
  energy:             72.4973275

- temperature:       260.0000000
  free_energy:         9.9005309
  entropy:           248.9856595
  heat_capacity:     215.1305316
  energy:             74.6368024

- temperature:       270.0000000
  free_energy:         7.3696827
  entropy:           257.1464064
  heat_capacity:     217.3172886
  energy:             76.7992125

- temperature:       280.0000000
  free_energy:         4.7583390
  entropy:           265.0863001
  heat_capacity:     219.3103861
  energy:             78.9825030

- temperature:       290.0000000
  free_energy:         2.0686626
  entropy:           272.8144232
  heat_capacity:     221.1309371
  energy:             81.1848453

- temperature:       300.0000000
  free_energy:        -0.6972731
  entropy:           280.3396049
  heat_capacity:     222.7974199
  energy:             83.4046084

- temperature:       310.0000000
  free_energy:        -3.5374815
  entropy:           287.6703738
  heat_capacity:     224.3260333
  energy:             85.6403344

- temperature:       320.0000000
  free_energy:        -6.4500599
  entropy:           294.8149281
  heat_capacity:     225.7310030
  energy:             87.8907171

- temperature:       330.0000000
  free_energy:        -9.4331856
  entropy:           301.7811204
  heat_capacity:     227.0248457
  energy:             90.1545842

- temperature:       340.0000000
  free_energy:       -12.4851128
  entropy:           308.5764509
  heat_capacity:     228.2185963
  energy:             92.4308805

- temperature:       350.0000000
  free_energy:       -15.6041689
  entropy:           315.2080685
  heat_capacity:     229.3220039
  energy:             94.7186551

- temperature:       360.0000000
  free_energy:       -18.7887511
  entropy:           321.6827764
  heat_capacity:     230.3436991
  energy:             97.0170484

- temperature:       370.0000000
  free_energy:       -22.0373230
  entropy:           328.0070413
  heat_capacity:     231.2913386
  energy:             99.3252823

- temperature:       380.0000000
  free_energy:       -25.3484110
  entropy:           334.1870054
  heat_capacity:     232.1717292
  energy:            101.6426510

- temperature:       390.0000000
  free_energy:       -28.7206016
  entropy:           340.2284989
  heat_capacity:     232.9909349
  energy:            103.9685130

- temperature:       400.0000000
  free_energy:       -32.1525379
  entropy:           346.1370545
  heat_capacity:     233.7543688
  energy:            106.3022839

- temperature:       410.0000000
  free_energy:       -35.6429171
  entropy:           351.9179213
  heat_capacity:     234.4668730
  energy:            108.6434307

- temperature:       420.0000000
  free_energy:       -39.1904873
  entropy:           357.5760796
  heat_capacity:     235.1327872
  energy:            110.9914661

- temperature:       430.0000000
  free_energy:       -42.7940454
  entropy:           363.1162547
  heat_capacity:     235.7560084
  energy:            113.3459441

- temperature:       440.0000000
  free_energy:       -46.4524341
  entropy:           368.5429314
  heat_capacity:     236.3400431
  energy:            115.7064557

- temperature:       450.0000000
  free_energy:       -50.1645399
  entropy:           373.8603664
  heat_capacity:     236.8880517
  energy:            118.0726250

- temperature:       460.0000000
  free_energy:       -53.9292908
  entropy:           379.0726021
  heat_capacity:     237.4028882
  energy:            120.4441062

- temperature:       470.0000000
  free_energy:       -57.7456541
  entropy:           384.1834785
  heat_capacity:     237.8871346
  energy:            122.8205808

- temperature:       480.0000000
  free_energy:       -61.6126347
  entropy:           389.1966446
  heat_capacity:     238.3431304
  energy:            125.2017547

- temperature:       490.0000000
  free_energy:       -65.5292729
  entropy:           394.1155698
  heat_capacity:     238.7729992
  energy:            127.5873563

- temperature:       500.0000000
  free_energy:       -69.4946430
  entropy:           398.9435541
  heat_capacity:     239.1786719
  energy:            129.9771341

- temperature:       510.0000000
  free_energy:       -73.5078513
  entropy:           403.6837378
  heat_capacity:     239.5619068
  energy:            132.3708550

- temperature:       520.0000000
  free_energy:       -77.5680350
  entropy:           408.3391112
  heat_capacity:     239.9243074
  energy:            134.7683028

- temperature:       530.0000000
  free_energy:       -81.6743603
  entropy:           412.9125225
  heat_capacity:     240.2673384
  energy:            137.1692766

- temperature:       540.0000000
  free_energy:       -85.8260213
  entropy:           417.4066867
  heat_capacity:     240.5923398
  energy:            139.5735895

- temperature:       550.0000000
  free_energy:       -90.0222386
  entropy:           421.8241926
  heat_capacity:     240.9005389
  energy:            141.9810674

- temperature:       560.0000000
  free_energy:       -94.2622579
  entropy:           426.1675105
  heat_capacity:     241.1930616
  energy:            144.3915480

- temperature:       570.0000000
  free_energy:       -98.5453493
  entropy:           430.4389985
  heat_capacity:     241.4709422
  energy:            146.8048798

- temperature:       580.0000000
  free_energy:      -102.8708060
  entropy:           434.6409089
  heat_capacity:     241.7351319
  energy:            149.2209212

- temperature:       590.0000000
  free_energy:      -107.2379428
  entropy:           438.7753941
  heat_capacity:     241.9865067
  energy:            151.6395397

- temperature:       600.0000000
  free_energy:      -111.6460960
  entropy:           442.8445122
  heat_capacity:     242.2258744
  energy:            154.0606113

- temperature:       610.0000000
  free_energy:      -116.0946217
  entropy:           446.8502318
  heat_capacity:     242.4539806
  energy:            156.4840197

- temperature:       620.0000000
  free_energy:      -120.5828956
  entropy:           450.7944375
  heat_capacity:     242.6715147
  energy:            158.9096557

- temperature:       630.0000000
  free_energy:      -125.1103114
  entropy:           454.6789338
  heat_capacity:     242.8791144
  energy:            161.3374169

- temperature:       640.0000000
  free_energy:      -129.6762810
  entropy:           458.5054497
  heat_capacity:     243.0773706
  energy:            163.7672069

- temperature:       650.0000000
  free_energy:      -134.2802327
  entropy:           462.2756426
  heat_capacity:     243.2668311
  energy:            166.1989350

- temperature:       660.0000000
  free_energy:      -138.9216114
  entropy:           465.9911019
  heat_capacity:     243.4480047
  energy:            168.6325159

- temperature:       670.0000000
  free_energy:      -143.5998774
  entropy:           469.6533529
  heat_capacity:     243.6213639
  energy:            171.0678690

- temperature:       680.0000000
  free_energy:      -148.3145060
  entropy:           473.2638596
  heat_capacity:     243.7873487
  energy:            173.5049186

- temperature:       690.0000000
  free_energy:      -153.0649868
  entropy:           476.8240284
  heat_capacity:     243.9463683
  energy:            175.9435928

- temperature:       700.0000000
  free_energy:      -157.8508233
  entropy:           480.3352103
  heat_capacity:     244.0988045
  energy:            178.3838240

- temperature:       710.0000000
  free_energy:      -162.6715320
  entropy:           483.7987045
  heat_capacity:     244.2450133
  energy:            180.8255481

- temperature:       720.0000000
  free_energy:      -167.5266426
  entropy:           487.2157599
  heat_capacity:     244.3853271
  energy:            183.2687046

- temperature:       730.0000000
  free_energy:      -172.4156965
  entropy:           490.5875788
  heat_capacity:     244.5200566
  energy:            185.7132361

- temperature:       740.0000000
  free_energy:      -177.3382472
  entropy:           493.9153180
  heat_capacity:     244.6494924
  energy:            188.1590881

- temperature:       750.0000000
  free_energy:      -182.2938596
  entropy:           497.2000917
  heat_capacity:     244.7739067
  energy:            190.6062092

- temperature:       760.0000000
  free_energy:      -187.2821094
  entropy:           500.4429733
  heat_capacity:     244.8935543
  energy:            193.0545503

- temperature:       770.0000000
  free_energy:      -192.3025829
  entropy:           503.6449975
  heat_capacity:     245.0086743
  energy:            195.5040652

- temperature:       780.0000000
  free_energy:      -197.3548765
  entropy:           506.8071615
  heat_capacity:     245.1194910
  energy:            197.9547095

- temperature:       790.0000000
  free_energy:      -202.4385965
  entropy:           509.9304276
  heat_capacity:     245.2262152
  energy:            200.4064413

- temperature:       800.0000000
  free_energy:      -207.5533585
  entropy:           513.0157241
  heat_capacity:     245.3290447
  energy:            202.8592208

- temperature:       810.0000000
  free_energy:      -212.6987874
  entropy:           516.0639472
  heat_capacity:     245.4281659
  energy:            205.3130099

- temperature:       820.0000000
  free_energy:      -217.8745167
  entropy:           519.0759623
  heat_capacity:     245.5237541
  energy:            207.7677724

- temperature:       830.0000000
  free_energy:      -223.0801887
  entropy:           522.0526053
  heat_capacity:     245.6159744
  energy:            210.2234737

- temperature:       840.0000000
  free_energy:      -228.3154536
  entropy:           524.9946842
  heat_capacity:     245.7049824
  energy:            212.6800811

- temperature:       850.0000000
  free_energy:      -233.5799698
  entropy:           527.9029799
  heat_capacity:     245.7909250
  energy:            215.1375632

- temperature:       860.0000000
  free_energy:      -238.8734031
  entropy:           530.7782477
  heat_capacity:     245.8739405
  energy:            217.5958899

- temperature:       870.0000000
  free_energy:      -244.1954271
  entropy:           533.6212181
  heat_capacity:     245.9541599
  energy:            220.0550327

- temperature:       880.0000000
  free_energy:      -249.5457222
  entropy:           536.4325981
  heat_capacity:     246.0317069
  energy:            222.5149642

- temperature:       890.0000000
  free_energy:      -254.9239760
  entropy:           539.2130722
  heat_capacity:     246.1066982
  energy:            224.9756583

- temperature:       900.0000000
  free_energy:      -260.3298828
  entropy:           541.9633031
  heat_capacity:     246.1792446
  energy:            227.4370900

- temperature:       910.0000000
  free_energy:      -265.7631434
  entropy:           544.6839327
  heat_capacity:     246.2494507
  energy:            229.8992354

- temperature:       920.0000000
  free_energy:      -271.2234649
  entropy:           547.3755831
  heat_capacity:     246.3174157
  energy:            232.3620715

- temperature:       930.0000000
  free_energy:      -276.7105605
  entropy:           550.0388570
  heat_capacity:     246.3832337
  energy:            234.8255765

- temperature:       940.0000000
  free_energy:      -282.2241494
  entropy:           552.6743391
  heat_capacity:     246.4469938
  energy:            237.2897293

- temperature:       950.0000000
  free_energy:      -287.7639565
  entropy:           555.2825962
  heat_capacity:     246.5087805
  energy:            239.7545098

- temperature:       960.0000000
  free_energy:      -293.3297124
  entropy:           557.8641782
  heat_capacity:     246.5686742
  energy:            242.2198986

- temperature:       970.0000000
  free_energy:      -298.9211530
  entropy:           560.4196188
  heat_capacity:     246.6267512
  energy:            244.6858773

- temperature:       980.0000000
  free_energy:      -304.5380194
  entropy:           562.9494359
  heat_capacity:     246.6830839
  energy:            247.1524279

- temperature:       990.0000000
  free_energy:      -310.1800579
  entropy:           565.4541326
  heat_capacity:     246.7377413
  energy:            249.6195333

- temperature:      1000.0000000
  free_energy:      -315.8470199
  entropy:           567.9341972
  heat_capacity:     246.7907889
  energy:            252.0871773
