phonopy:
  version: "2.37.1"
  frequency_unit_conversion_factor: 15.633302
  symmetry_tolerance: 1.00000e-05

space_group:
  type: "Immm"
  number: 71
  Hall_symbol: "-I 2 2"

primitive_matrix:
- [  0.000000000000000, -1.000000000000000,  1.000000000000000 ]
- [  0.000000000000000, -1.000000000000000,  0.000000000000000 ]
- [  1.000000000000000, -1.000000000000000,  0.000000000000000 ]

supercell_matrix:
- [   2,   0,   0 ]
- [   0,   2,   0 ]
- [   0,   0,   2 ]

primitive_cell:
  lattice:
  - [    -3.258625446953435,    -2.977082569531162,     2.530114587475615 ] # a
  - [    -4.128518228049865,    -1.561088726513468,    -2.530114587475615 ] # b
  - [     5.087547558313224,     0.000000000000000,     0.000000000000000 ] # c
  points:
  - symbol: Li # 1
    coordinates: [  0.335710824097071,  0.335710822868833,  0.999999996473019 ]
    mass: 6.940000
  - symbol: Li # 2
    coordinates: [  0.664289174243651,  0.664289180226199,  0.999999998445969 ]
    mass: 6.940000
  - symbol: Sn # 3
    coordinates: [  0.000000001592582,  0.999999996694942,  0.000000004866138 ]
    mass: 118.710000
  reciprocal_lattice: # without 2pi
  - [     0.000000000000000,    -0.220353075008777,     0.135958546285443 ] # a*
  - [     0.000000000000000,    -0.220353075008777,    -0.259280469745738 ] # b*
  - [     0.196558359118622,    -0.319953731274466,    -0.123321926660099 ] # c*

unit_cell:
  lattice:
  - [     5.087547558313224,     0.000000000000000,     0.000000000000000 ] # a
  - [     2.299596116690076,     4.538171296044630,     0.000000000000000 ] # b
  - [    -3.258625446953435,    -2.977082569531162,     2.530114587475615 ] # c
  points:
  - symbol: Li # 1
    coordinates: [  0.664289173604186,  0.664289177131167,  0.000000001228238 ]
    mass: 6.940000
    reduced_to: 1
  - symbol: Li # 2
    coordinates: [  0.335710818219770,  0.335710819773802,  0.999999994017452 ]
    mass: 6.940000
    reduced_to: 2
  - symbol: Sn # 3
    coordinates: [  0.000000008171196,  0.000000003305058,  0.000000004897640 ]
    mass: 118.710000
    reduced_to: 3

supercell:
  lattice:
  - [    10.175095116626448,     0.000000000000000,     0.000000000000000 ] # a
  - [     4.599192233380152,     9.076342592089260,     0.000000000000000 ] # b
  - [    -6.517250893906871,    -5.954165139062324,     5.060229174951229 ] # c
  points:
  - symbol: Li # 1
    coordinates: [  0.332144586802093,  0.332144588565584,  0.000000000614119 ]
    mass: 6.940000
    reduced_to: 1
  - symbol: Li # 2
    coordinates: [  0.832144586802093,  0.332144588565584,  0.000000000614119 ]
    mass: 6.940000
    reduced_to: 1
  - symbol: Li # 3
    coordinates: [  0.332144586802093,  0.832144588565584,  0.000000000614119 ]
    mass: 6.940000
    reduced_to: 1
  - symbol: Li # 4
    coordinates: [  0.832144586802093,  0.832144588565584,  0.000000000614119 ]
    mass: 6.940000
    reduced_to: 1
  - symbol: Li # 5
    coordinates: [  0.332144586802093,  0.332144588565584,  0.500000000614119 ]
    mass: 6.940000
    reduced_to: 1
  - symbol: Li # 6
    coordinates: [  0.832144586802093,  0.332144588565584,  0.500000000614119 ]
    mass: 6.940000
    reduced_to: 1
  - symbol: Li # 7
    coordinates: [  0.332144586802093,  0.832144588565584,  0.500000000614119 ]
    mass: 6.940000
    reduced_to: 1
  - symbol: Li # 8
    coordinates: [  0.832144586802093,  0.832144588565584,  0.500000000614119 ]
    mass: 6.940000
    reduced_to: 1
  - symbol: Li # 9
    coordinates: [  0.167855409109885,  0.167855409886901,  0.499999997008726 ]
    mass: 6.940000
    reduced_to: 9
  - symbol: Li # 10
    coordinates: [  0.667855409109885,  0.167855409886901,  0.499999997008726 ]
    mass: 6.940000
    reduced_to: 9
  - symbol: Li # 11
    coordinates: [  0.167855409109885,  0.667855409886901,  0.499999997008726 ]
    mass: 6.940000
    reduced_to: 9
  - symbol: Li # 12
    coordinates: [  0.667855409109885,  0.667855409886901,  0.499999997008726 ]
    mass: 6.940000
    reduced_to: 9
  - symbol: Li # 13
    coordinates: [  0.167855409109885,  0.167855409886901,  0.999999997008726 ]
    mass: 6.940000
    reduced_to: 9
  - symbol: Li # 14
    coordinates: [  0.667855409109885,  0.167855409886901,  0.999999997008726 ]
    mass: 6.940000
    reduced_to: 9
  - symbol: Li # 15
    coordinates: [  0.167855409109885,  0.667855409886901,  0.999999997008726 ]
    mass: 6.940000
    reduced_to: 9
  - symbol: Li # 16
    coordinates: [  0.667855409109885,  0.667855409886901,  0.999999997008726 ]
    mass: 6.940000
    reduced_to: 9
  - symbol: Sn # 17
    coordinates: [  0.000000004085598,  0.000000001652529,  0.000000002448820 ]
    mass: 118.710000
    reduced_to: 17
  - symbol: Sn # 18
    coordinates: [  0.500000004085598,  0.000000001652529,  0.000000002448820 ]
    mass: 118.710000
    reduced_to: 17
  - symbol: Sn # 19
    coordinates: [  0.000000004085598,  0.500000001652529,  0.000000002448820 ]
    mass: 118.710000
    reduced_to: 17
  - symbol: Sn # 20
    coordinates: [  0.500000004085598,  0.500000001652529,  0.000000002448820 ]
    mass: 118.710000
    reduced_to: 17
  - symbol: Sn # 21
    coordinates: [  0.000000004085598,  0.000000001652529,  0.500000002448820 ]
    mass: 118.710000
    reduced_to: 17
  - symbol: Sn # 22
    coordinates: [  0.500000004085598,  0.000000001652529,  0.500000002448820 ]
    mass: 118.710000
    reduced_to: 17
  - symbol: Sn # 23
    coordinates: [  0.000000004085598,  0.500000001652529,  0.500000002448820 ]
    mass: 118.710000
    reduced_to: 17
  - symbol: Sn # 24
    coordinates: [  0.500000004085598,  0.500000001652529,  0.500000002448820 ]
    mass: 118.710000
    reduced_to: 17

displacements:
- atom:    1
  displacement:
    [   0.0100000000000000,  0.0000000000000000,  0.0000000000000000 ]
  forces:
  - [  -0.0516616255044937, -0.0200106650590897, -0.0019504807423800 ]
  - [  -0.0262366607785225, -0.0161483325064182, -0.0000057106371969 ]
  - [  -0.0256587844341993, -0.0164435487240553,  0.0000409079584642 ]
  - [  -0.0251921415328979, -0.0155721278861165,  0.0000682113895891 ]
  - [  -0.0259938016533852, -0.0160993002355099,  0.0003721215762198 ]
  - [  -0.0259877294301987, -0.0155744142830372, -0.0001669651828706 ]
  - [  -0.0263655837625265, -0.0171117652207613, -0.0019105789251626 ]
  - [  -0.0262175276875496, -0.0159826371818781, -0.0001389166864101 ]
  - [   0.0261997319757938,  0.0166219361126423, -0.0010460987687111 ]
  - [   0.0258158594369888,  0.0159864909946918, -0.0004483452066779 ]
  - [   0.0260146930813789,  0.0162778608500957, -0.0001438432373106 ]
  - [   0.0273623503744602,  0.0160387922078371,  0.0020104902796447 ]
  - [   0.0305672939866781,  0.0187241509556770,  0.0001860326156020 ]
  - [   0.0291973426938057,  0.0143286203965545,  0.0000943597115111 ]
  - [   0.0257780384272337,  0.0160613432526588, -0.0000056857243180 ]
  - [   0.0237653590738773,  0.0162190813571215, -0.0002916334196925 ]
  - [  -0.0008269324898720, -0.0000011157244444, -0.0000944373168750 ]
  - [   0.0003580078482628, -0.0003467407077551, -0.0003514283162076 ]
  - [   0.0060307951644063, -0.0026882551610470,  0.0018335897475481 ]
  - [   0.0094166975468397,  0.0054526459425688,  0.0000128370011225 ]
  - [   0.0038921255618334, -0.0008714096620679,  0.0029285103082657 ]
  - [  -0.0006376476958394, -0.0000831214711070,  0.0002647899091244 ]
  - [  -0.0000440892763436, -0.0000619227139396, -0.0000945327337831 ]
  - [   0.0004241925198585,  0.0012844122247770, -0.0011631748639047 ]
- atom:    1
  displacement:
    [  -0.0100000000000000,  0.0000000000000000,  0.0000000000000000 ]
  forces:
  - [  -0.0005330480635166, -0.0123476777225733,  0.0020258093718439 ]
  - [  -0.0259323567152023, -0.0159039981663227,  0.0000043355394155 ]
  - [  -0.0265122465789318, -0.0156127437949181, -0.0000412939116359 ]
  - [  -0.0269703976809978, -0.0164841413497925, -0.0000672121750540 ]
  - [  -0.0261831935495138, -0.0159543231129646, -0.0003703620750457 ]
  - [  -0.0261845961213112, -0.0164786912500858,  0.0001717708073556 ]
  - [  -0.0258070081472397, -0.0149448253214359,  0.0019122384255752 ]
  - [  -0.0259538330137730, -0.0160671845078468,  0.0001401334156981 ]
  - [   0.0259618815034628,  0.0154253542423248,  0.0010432335548103 ]
  - [   0.0263615548610687,  0.0160620566457510,  0.0004553576000035 ]
  - [   0.0261618085205555,  0.0157742332667112,  0.0001377062872052 ]
  - [   0.0248066820204258,  0.0160166919231415, -0.0019851292017847 ]
  - [   0.0215290356427431,  0.0132581591606140, -0.0001873862056527 ]
  - [   0.0230351760983467,  0.0176782198250294, -0.0000970739056356 ]
  - [   0.0263913441449404,  0.0159774981439114,  0.0000077970325947 ]
  - [   0.0284069962799549,  0.0158446207642555,  0.0002892711199820 ]
  - [   0.0008197631686926, -0.0000012516975403,  0.0000966405059444 ]
  - [  -0.0003615580499172,  0.0004014503210783,  0.0003457003913354 ]
  - [  -0.0062458654865623,  0.0028345845639706, -0.0018587950617075 ]
  - [  -0.0091147460043430, -0.0052273944020271, -0.0000089393361122 ]
  - [  -0.0039288839325309,  0.0008783666417003, -0.0030034556984901 ]
  - [   0.0006164005026221,  0.0000791689381003, -0.0002461820840836 ]
  - [   0.0000413316302001,  0.0000611746872892,  0.0000896067358553 ]
  - [  -0.0004042342770845, -0.0012693640310317,  0.0011462208349258 ]
- atom:   17
  displacement:
    [   0.0100000000000000,  0.0000000000000000,  0.0000000000000000 ]
  forces:
  - [  -0.0269052144140005, -0.0160262249410152, -0.0000951571855694 ]
  - [  -0.0257238820195198, -0.0158932693302631, -0.0003744568675756 ]
  - [  -0.0198400188237429, -0.0194155238568783,  0.0008271819096990 ]
  - [  -0.0169670525938272, -0.0108051877468824,  0.0000121222401503 ]
  - [  -0.0221636779606342, -0.0165204815566540,  0.0041352408006787 ]
  - [  -0.0266971103847027, -0.0161033477634192,  0.0002462683478370 ]
  - [  -0.0261295326054096, -0.0160870868712664, -0.0000914363336051 ]
  - [  -0.0256827324628830, -0.0151420161128044, -0.0012092760298401 ]
  - [   0.0265117175877094,  0.0169353336095810, -0.0012341844849288 ]
  - [   0.0260454230010509,  0.0159642901271582, -0.0000917566940188 ]
  - [   0.0254434570670128,  0.0159420073032379,  0.0002643889747560 ]
  - [   0.0299845933914185,  0.0155324246734381,  0.0040284804999828 ]
  - [   0.0354990698397160,  0.0214864350855350,  0.0000087445951067 ]
  - [   0.0321164317429066,  0.0128123853355646,  0.0008298643515445 ]
  - [   0.0264435168355703,  0.0162284616380930, -0.0003877086564898 ]
  - [   0.0252580940723419,  0.0160258971154690, -0.0000959797762334 ]
  - [  -0.0393420271575451,  0.0005255639553070, -0.0006931798998266 ]
  - [   0.0012644417583942,  0.0001289378851652,  0.0004915734753013 ]
  - [   0.0004637688398361,  0.0005334541201591, -0.0004819855093956 ]
  - [   0.0003408044576645, -0.0000565834343433,  0.0000348055655195 ]
  - [   0.0001604668796062,  0.0007919948548079, -0.0001475941389799 ]
  - [   0.0001890687271953, -0.0011496236547828,  0.0011458657681942 ]
  - [  -0.0016490793786943, -0.0058847968466580, -0.0073964353650808 ]
  - [   0.0013794556725770,  0.0001769430527929,  0.0002745848614722 ]

force_constants:
  format: "full"
  shape: [ 24, 24 ]
  elements:
  - # (1, 1)
    - [     2.556433238579400,     0.383162564366271,     0.198808318455418 ]
    - [     0.383162564366271,     2.168118596049408,    -0.323616192040553 ]
    - [     0.198808318455418,    -0.323616192040553,     1.683261790426497 ]
  - # (1, 2)
    - [     0.015219209087001,     0.012226121715336,     0.000496252686999 ]
    - [     0.012226122878349,    -0.069920529785361,     0.004367623934005 ]
    - [     0.000496253382782,     0.004367623243389,     0.007789829371319 ]
  - # (1, 3)
    - [    -0.042666738723500,     0.041558268955918,    -0.004120296288297 ]
    - [     0.041558267200589,    -0.012034583212650,     0.001531521916692 ]
    - [    -0.004120296385697,     0.001531520151680,     0.007789829484045 ]
  - # (1, 4)
    - [    -0.088908442193337,    -0.045587464459305,    -0.006777357706696 ]
    - [    -0.045587464459305,    -0.042708003074368,     0.011032046878441 ]
    - [    -0.006777357706696,     0.011032046878441,    -0.006197773035925 ]
  - # (1, 5)
    - [    -0.009465515044796,     0.007262910123892,    -0.037136098948403 ]
    - [     0.007262910584296,     0.011643806237418,     0.003172295061854 ]
    - [    -0.037136098096829,     0.003172294797399,    -0.049089783607560 ]
  - # (1, 6)
    - [    -0.009838968759375,    -0.045200639274174,     0.016930619567659 ]
    - [    -0.045200639274174,     0.035969443152128,    -0.027559321409968 ]
    - [     0.016930619567659,    -0.027559321409968,     0.042492971044683 ]
  - # (1, 7)
    - [     0.027933146293758,     0.108360198308317,     0.191134684126907 ]
    - [     0.108360198308317,    -0.081884090016774,    -0.311125196351348 ]
    - [     0.191134684126907,    -0.311125196351348,    -0.388291569609251 ]
  - # (1, 8)
    - [     0.013187738400582,    -0.004216015813686,     0.013955960324198 ]
    - [    -0.004216015555195,    -0.011009446322477,     0.034559867709588 ]
    - [     0.013955958753872,     0.034559866814945,    -0.049089784855082 ]
  - # (1, 9)
    - [    -0.011891029837841,    -0.059818774008638,     0.104456667934609 ]
    - [    -0.059818771550056,    -0.096917868368444,     0.171043496692626 ]
    - [     0.104456665229628,     0.171043499533843,    -0.238937541612651 ]
  - # (1, 10)
    - [     0.027289136733412,     0.003791489996984,     0.045178959776312 ]
    - [     0.003791489996983,     0.023446661928221,    -0.073541402550544 ]
    - [     0.045178959776312,    -0.073541402550544,    -0.035573692175295 ]
  - # (1, 11)
    - [     0.007360137755079,    -0.025168170468440,     0.014071296045454 ]
    - [    -0.025168170468440,     0.032866720920740,    -0.022904972720380 ]
    - [     0.014071296045453,    -0.022904972720380,     0.030671542516227 ]
  - # (1, 12)
    - [    -0.127783475612520,    -0.001093397896548,    -0.199788368298543 ]
    - [    -0.001093397354247,     0.018974572526834,    -0.015864475007649 ]
    - [    -0.199788368526941,    -0.015864475577803,    -0.238937534183332 ]
  - # (1, 13)
    - [    -0.451908551985092,    -0.273286376149843,    -0.018677117400810 ]
    - [    -0.273286376149843,    -0.174947522046929,     0.030402242986419 ]
    - [    -0.018677117400810,     0.030402242986419,     0.016377788751417 ]
  - # (1, 14)
    - [    -0.308099485732529,     0.167491088507414,    -0.009574610374435 ]
    - [     0.167491084551070,    -0.052084853091119,     0.004100913838895 ]
    - [    -0.009574608082915,     0.004100910906876,     0.012437899972792 ]
  - # (1, 15)
    - [     0.030672457034569,    -0.004172476526963,     0.000669691556744 ]
    - [    -0.004172475363950,    -0.390856788750680,     0.010394336564316 ]
    - [     0.000669692252528,     0.010394335873700,     0.012437899722644 ]
  - # (1, 16)
    - [     0.232086226834424,    -0.018709821521005,     0.029039046758585 ]
    - [    -0.018709821521005,     0.251047620535966,    -0.047269176292523 ]
    - [     0.029039046758585,    -0.047269176292523,     0.226103142440561 ]
  - # (1, 17)
    - [     0.082343092671913,    -0.000001848497122,     0.009558453149429 ]
    - [    -0.000001848335990,     0.082344962537034,    -0.015559059175745 ]
    - [     0.009558453266461,    -0.015559058856367,     0.070352035612676 ]
  - # (1, 18)
    - [    -0.035989583399821,     0.037382387410675,     0.034887330115252 ]
    - [    -0.016710028644860,    -0.772652388653641,     0.189278551494210 ]
    - [     0.038117077180519,     0.073588536090061,    -0.079712479767990 ]
  - # (1, 19)
    - [    -0.613811025540207,     0.276085432860756,    -0.184608638298906 ]
    - [     0.330177844553677,    -0.194830960280186,     0.054434781266952 ]
    - [    -0.082871208623711,    -0.000738653140649,    -0.079712475210229 ]
  - # (1, 20)
    - [    -0.926588828381399,    -0.534038825850328,    -0.001062988470881 ]
    - [    -0.534038825690365,    -0.385369227691084,     0.001730325598715 ]
    - [    -0.001062988354528,     0.001730325918859,    -0.055957325050650 ]
  - # (1, 21)
    - [    -0.391058976897012,     0.087475280484313,    -0.296598945359021 ]
    - [     0.049433263224388,    -0.021043587253088,     0.020802068255031 ]
    - [    -0.408239519969705,     0.069891661041811,    -0.476251896988543 ]
  - # (1, 22)
    - [     0.062690229767455,     0.008084127487017,    -0.025537649182116 ]
    - [     0.008084127646853,     0.054497399266240,     0.041569669640296 ]
    - [    -0.025537649065892,     0.041569669959533,     0.081576007006565 ]
  - # (1, 23)
    - [     0.004235954685027,     0.006140708974825,     0.009186396276207 ]
    - [     0.006140709134498,    -0.001987326795490,    -0.014953432665914 ]
    - [     0.009186396392228,    -0.014953432348558,    -0.017286972238295 ]
  - # (1, 24)
    - [    -0.041439945735190,    -0.127726768725666,     0.115508393554336 ]
    - [    -0.089684748077864,    -0.370662607811698,     0.273973486376581 ]
    - [     0.122181791025373,     0.395747347091737,    -0.476251908014620 ]
  - # (2, 1)
    - [     0.015219209087001,     0.012226122878349,     0.000496253382782 ]
    - [     0.012226121715336,    -0.069920529785361,     0.004367623243389 ]
    - [     0.000496252686999,     0.004367623934005,     0.007789829371319 ]
  - # (2, 2)
    - [     2.556433237966943,     0.383162563571224,     0.198808317322681 ]
    - [     0.383162563571224,     2.168118594483755,    -0.323616192401691 ]
    - [     0.198808317322681,    -0.323616192401691,     1.683261788280629 ]
  - # (2, 3)
    - [    -0.088908445132759,    -0.045587463086732,    -0.006777356585688 ]
    - [    -0.045587462867833,    -0.042708000110690,     0.011032047979341 ]
    - [    -0.006777356241783,     0.011032048190613,    -0.006197774518887 ]
  - # (2, 4)
    - [    -0.042666736399522,     0.041558266657584,    -0.004120297804143 ]
    - [     0.041558265494571,    -0.012034586576348,     0.001531519731102 ]
    - [    -0.004120298499927,     0.001531520421718,     0.007789828783558 ]
  - # (2, 5)
    - [    -0.009838969216829,    -0.045200640218402,     0.016930617920219 ]
    - [    -0.045200640089519,     0.035969443579410,    -0.027559321925160 ]
    - [     0.016930618219940,    -0.027559322591335,     0.042492969364318 ]
  - # (2, 6)
    - [    -0.009465515042214,     0.007262911234068,    -0.037136097223476 ]
    - [     0.007262910071055,     0.011643803827201,     0.003172294967303 ]
    - [    -0.037136097919260,     0.003172295657919,    -0.049089782725469 ]
  - # (2, 7)
    - [     0.013187739009476,    -0.004216015271608,     0.013955957401279 ]
    - [    -0.004216016434621,    -0.011009449679153,     0.034559864695643 ]
    - [     0.013955956705495,     0.034559865386259,    -0.049089783826608 ]
  - # (2, 8)
    - [     0.027933142742552,     0.108360203751411,     0.191134692926394 ]
    - [     0.108360192785752,    -0.081884082605660,    -0.311125183493945 ]
    - [     0.191134684729653,    -0.311125199081093,    -0.388291574623893 ]
  - # (2, 9)
    - [     0.027289135209080,     0.003791491300437,     0.045178962439460 ]
    - [     0.003791488358330,     0.023446664385063,    -0.073541398655318 ]
    - [     0.045178960058473,    -0.073541402541472,    -0.035573694262539 ]
  - # (2, 10)
    - [    -0.011891027858828,    -0.059818771251532,     0.104456661833538 ]
    - [    -0.059818772414545,    -0.096917871758407,     0.171043494070689 ]
    - [     0.104456661137755,     0.171043494761305,    -0.238937535545475 ]
  - # (2, 11)
    - [    -0.127783474497582,    -0.001093396687125,    -0.199788365206166 ]
    - [    -0.001093397850138,     0.018974570213653,    -0.015864475142074 ]
    - [    -0.199788365901950,    -0.015864474451458,    -0.238937530322977 ]
  - # (2, 12)
    - [     0.007360137364518,    -0.025168171357980,     0.014071294341047 ]
    - [    -0.025168171500031,     0.032866721433755,    -0.022904973291358 ]
    - [     0.014071294736915,    -0.022904973739233,     0.030671540683235 ]
  - # (2, 13)
    - [    -0.308099478041088,     0.167491083827227,    -0.009574611724014 ]
    - [     0.167491082664214,    -0.052084856044147,     0.004100911683762 ]
    - [    -0.009574612419798,     0.004100912374378,     0.012437899226497 ]
  - # (2, 14)
    - [    -0.451908558869109,    -0.273286377657267,    -0.018677116904871 ]
    - [    -0.273286367680740,    -0.174947515138658,     0.030402243703318 ]
    - [    -0.018677109992468,     0.030402247949840,     0.016377787268455 ]
  - # (2, 15)
    - [     0.232086226221968,    -0.018709822316052,     0.029039045625848 ]
    - [    -0.018709822316052,     0.251047618970312,    -0.047269176653660 ]
    - [     0.029039045625848,    -0.047269176653660,     0.226103140294693 ]
  - # (2, 16)
    - [     0.030672457034569,    -0.004172475363950,     0.000669692252528 ]
    - [    -0.004172476526963,    -0.390856788750680,     0.010394335873700 ]
    - [     0.000669691556744,     0.010394336564316,     0.012437899722644 ]
  - # (2, 17)
    - [    -0.035989583772149,     0.037382387823155,     0.034887330649158 ]
    - [    -0.016710029268670,    -0.772652387969912,     0.189278550590018 ]
    - [     0.038117077343725,     0.073588538234375,    -0.079712479856180 ]
  - # (2, 18)
    - [     0.082343092431785,    -0.000001848541635,     0.009558452178569 ]
    - [    -0.000001849670239,     0.082344960287652,    -0.015559059323307 ]
    - [     0.009558451274734,    -0.015559060671203,     0.070352033554998 ]
  - # (2, 19)
    - [    -0.926588842792762,    -0.534038829101569,    -0.001062985959645 ]
    - [    -0.534038807970357,    -0.385369213704552,     0.001730327870074 ]
    - [    -0.001062971772363,     0.001730335794343,    -0.055957326115455 ]
  - # (2, 20)
    - [    -0.613811010644127,     0.276085424678850,    -0.184608638058978 ]
    - [     0.330177841154225,    -0.194830965933676,     0.054434777106388 ]
    - [    -0.082871217062839,    -0.000738651728503,    -0.079712478077989 ]
  - # (2, 21)
    - [     0.062690229766060,     0.008084127305533,    -0.025537650744636 ]
    - [     0.008084125438598,     0.054497400370424,     0.041569668340243 ]
    - [    -0.025537652356110,     0.041569669162376,     0.081576004374421 ]
  - # (2, 22)
    - [    -0.391058974714535,     0.087475280922067,    -0.296598940690815 ]
    - [     0.049433264750759,    -0.021043591080151,     0.020802068329836 ]
    - [    -0.408239511748966,     0.069891661348364,    -0.476251888821387 ]
  - # (2, 23)
    - [    -0.041439942388259,    -0.127726762292034,     0.115508383580281 ]
    - [    -0.089684749516607,    -0.370662615646020,     0.273973481685603 ]
    - [     0.122181784629843,     0.395747333899225,    -0.476251897029375 ]
  - # (2, 24)
    - [     0.004235952535812,     0.006140709195983,     0.009186399048650 ]
    - [     0.006140708102252,    -0.001987322767812,    -0.014953428983896 ]
    - [     0.009186397886659,    -0.014953429819389,    -0.017286975198533 ]
  - # (3, 1)
    - [    -0.042666738723500,     0.041558267200589,    -0.004120296385697 ]
    - [     0.041558268955918,    -0.012034583212650,     0.001531520151680 ]
    - [    -0.004120296288297,     0.001531521916692,     0.007789829484045 ]
  - # (3, 2)
    - [    -0.088908445132759,    -0.045587462867833,    -0.006777356241783 ]
    - [    -0.045587463086732,    -0.042708000110690,     0.011032048190613 ]
    - [    -0.006777356585688,     0.011032047979341,    -0.006197774518887 ]
  - # (3, 3)
    - [     2.556433305932838,     0.383162529131336,     0.198808274087846 ]
    - [     0.383162529131336,     2.168118526517863,    -0.323616218962304 ]
    - [     0.198808274087846,    -0.323616218962304,     1.683261788280630 ]
  - # (3, 4)
    - [     0.015219205270807,     0.012226122528369,     0.000496254399089 ]
    - [     0.012226124283698,    -0.069920527008887,     0.004367624318562 ]
    - [     0.000496255020206,     0.004367625231077,     0.007789828670832 ]
  - # (3, 5)
    - [     0.027933142144199,     0.108360193088952,     0.191134679609673 ]
    - [     0.108360204054610,    -0.081884082007306,    -0.311125191674855 ]
    - [     0.191134697218617,    -0.311125191408701,    -0.388291574623893 ]
  - # (3, 6)
    - [     0.013187736724002,    -0.004216014757161,     0.013955958207555 ]
    - [    -0.004216014313044,    -0.011009447053531,     0.034559866112698 ]
    - [     0.013955959327321,     0.034559867061001,    -0.049089783972992 ]
  - # (3, 7)
    - [    -0.009465517727291,     0.007262911631184,    -0.037136095595000 ]
    - [     0.007262912075301,     0.011643806172130,     0.003172295045998 ]
    - [    -0.037136095240286,     0.003172297239637,    -0.049089782579085 ]
  - # (3, 8)
    - [    -0.009838973072325,    -0.045200638135851,     0.016930622926489 ]
    - [    -0.045200638264734,     0.035969447434905,    -0.027559318849640 ]
    - [     0.016930623385252,    -0.027559319418110,     0.042492969364318 ]
  - # (3, 9)
    - [     0.007360133759023,    -0.025168169673043,     0.014071299184707 ]
    - [    -0.025168169530993,     0.032866725039250,    -0.022904970315735 ]
    - [     0.014071299405283,    -0.022904970871297,     0.030671540683235 ]
  - # (3, 10)
    - [    -0.127783477142461,    -0.001093393982085,    -0.199788362118673 ]
    - [    -0.001093395819956,     0.018974572645825,    -0.015864475017811 ]
    - [    -0.199788363503563,    -0.015864469817716,    -0.238937528116156 ]
  - # (3, 11)
    - [    -0.011891031162936,    -0.059818770267225,     0.104456663339945 ]
    - [    -0.059818772105096,    -0.096917868241593,     0.171043496768613 ]
    - [     0.104456666355207,     0.171043494806229,    -0.238937537752296 ]
  - # (3, 12)
    - [     0.027289134129916,     0.003791488905168,     0.045178958231150 ]
    - [     0.003791491847275,     0.023446665464227,    -0.073541401240624 ]
    - [     0.045178962773877,    -0.073541400873308,    -0.035573694262539 ]
  - # (3, 13)
    - [     0.030672453608494,    -0.004172475573649,     0.000669693205328 ]
    - [    -0.004172471617304,    -0.390856780586192,     0.010394339472774 ]
    - [     0.000669693787630,     0.010394337726843,     0.012437898976349 ]
  - # (3, 14)
    - [     0.232086228225812,    -0.018709823331446,     0.029039044890270 ]
    - [    -0.018709823331446,     0.251047616966469,    -0.047269177105551 ]
    - [     0.029039044890270,    -0.047269177105551,     0.226103140294693 ]
  - # (3, 15)
    - [    -0.451908558869109,    -0.273286367680740,    -0.018677109992467 ]
    - [    -0.273286377657267,    -0.174947515138658,     0.030402247949840 ]
    - [    -0.018677116904871,     0.030402243703318,     0.016377787268455 ]
  - # (3, 16)
    - [    -0.308099485732529,     0.167491084551070,    -0.009574608082915 ]
    - [     0.167491088507414,    -0.052084853091119,     0.004100910906876 ]
    - [    -0.009574610374435,     0.004100913838895,     0.012437899972792 ]
  - # (3, 17)
    - [    -0.613811022416559,     0.276085427182244,    -0.184608631683769 ]
    - [     0.330177850026177,    -0.194830962290937,     0.054434775589574 ]
    - [    -0.082871215187993,    -0.000738648755479,    -0.079712476100081 ]
  - # (3, 18)
    - [    -0.926588840950306,    -0.534038808743932,    -0.001062973488151 ]
    - [    -0.534038830195224,    -0.385369215547008,     0.001730335531733 ]
    - [    -0.001062987423314,     0.001730326179436,    -0.055957326115455 ]
  - # (3, 19)
    - [     0.082343087800536,    -0.000001847163438,     0.009558454889192 ]
    - [    -0.000001846354915,     0.082344964918902,    -0.015559057658080 ]
    - [     0.009558456046201,    -0.015559057739930,     0.070352033554998 ]
  - # (3, 20)
    - [    -0.035989588851927,     0.037382387490606,     0.034887332177762 ]
    - [    -0.016710023232661,    -0.772652374760443,     0.189278556962410 ]
    - [     0.038117080843149,     0.073588538562945,    -0.079712481834088 ]
  - # (3, 21)
    - [     0.004235951975963,     0.006140708545981,     0.009186394809403 ]
    - [     0.006140709319631,    -0.001987322207964,    -0.014953431588208 ]
    - [     0.009186395626029,    -0.014953431208171,    -0.017286975198533 ]
  - # (3, 22)
    - [    -0.041439946058127,    -0.127726760274297,     0.115508385792428 ]
    - [    -0.089684748880803,    -0.370662608169919,     0.273973486945337 ]
    - [     0.122181790929822,     0.395747332032829,    -0.476251900810608 ]
  - # (3, 23)
    - [    -0.391058980983318,     0.087475285322406,    -0.296598934999149 ]
    - [     0.049433267769165,    -0.021043588617602,     0.020802067925680 ]
    - [    -0.408239510566199,     0.069891667811663,    -0.476251885040154 ]
  - # (3, 24)
    - [     0.062690227251555,     0.008084126872796,    -0.025537647163229 ]
    - [     0.008084128419650,     0.054497402884928,     0.041569670540422 ]
    - [    -0.025537647622063,     0.041569672070660,     0.081576004374421 ]
  - # (4, 1)
    - [    -0.088908442193337,    -0.045587464459305,    -0.006777357706696 ]
    - [    -0.045587464459305,    -0.042708003074368,     0.011032046878441 ]
    - [    -0.006777357706696,     0.011032046878441,    -0.006197773035925 ]
  - # (4, 2)
    - [    -0.042666736399522,     0.041558265494571,    -0.004120298499927 ]
    - [     0.041558266657584,    -0.012034586576348,     0.001531520421718 ]
    - [    -0.004120297804143,     0.001531519731102,     0.007789828783558 ]
  - # (4, 3)
    - [     0.015219205270807,     0.012226124283698,     0.000496255020206 ]
    - [     0.012226122528369,    -0.069920527008887,     0.004367625231077 ]
    - [     0.000496254399089,     0.004367624318562,     0.007789828670832 ]
  - # (4, 4)
    - [     2.556433235941626,     0.383162563507007,     0.198808318524536 ]
    - [     0.383162563507007,     2.168118594282453,    -0.323616192153062 ]
    - [     0.198808318524536,    -0.323616192153062,     1.683261789100685 ]
  - # (4, 5)