11
Lattice="4.563114423103864 -0.0028961042572180676 -1.38980541540509 0.013184190379370443 5.47237162596341 0.03163537450758838 -0.017548201937272617 0.00420980797605882 8.128840264484575" Properties=species:S:1:pos:R:3:forces:R:3 structure_index=0 total_energy=-31.229978561401367 stress="-0.007301575969904661 0.005378683563321829 -0.0012287235585972667 0.005378685425966978 0.02001609094440937 0.017575101926922798 -0.0012287008576095104 0.017574943602085114 -0.010835367254912853" pbc="T T T"
Li       4.34368166       1.98216061       6.05469121       0.00328223       0.01421138       0.01038514
Li       3.09300754       3.82354625       1.94414096       0.00015550      -0.01071574      -0.00007274
Li       0.62160669       2.42465069       2.01862167       0.00030956      -0.00061589       0.00120960
Li       1.45270319       2.87979384       4.74524310       0.00005763       0.01079590      -0.00003475
Li       1.83809325       0.42807351       6.01656748      -0.00053976      -0.00222380      -0.00182543
Li       2.69408175       0.80289367       0.64116942       0.00076926       0.00191868       0.00195364
Li       3.92436072       4.27860334       4.67061082      -0.00064577       0.00077800      -0.00106886
Li       0.20159705       4.72109696       0.63491903      -0.00325128      -0.01430972      -0.01075014
Sn       3.53333776       1.41703391       3.39392172      -0.00730149       0.01005189      -0.02328633
Sn       2.26386313       3.35358680       7.40925800      -0.00001137       0.00045339      -0.00039225
Sn       1.01245416       5.28637959       3.29527624       0.00717548      -0.01034418       0.02388210
4
Lattice="3.1347057792236606 -0.0003905901461889627 -0.9819725820840746 -0.0011271680266629535 4.921893784395603 -0.005827652420013785 0.06781370244242224 0.00010338278489277513 5.7061164078831155" Properties=species:S:1:pos:R:3:forces:R:3 structure_index=1 total_energy=-12.939939498901367 stress="-0.037744637578725815 -0.00010914442827925086 0.027934622019529343 -0.00010908574768109247 -0.030318941920995712 -0.0007324778707697988 0.027934636920690536 -0.0007325962651520967 0.043525487184524536" pbc="T T T"
Li       1.92593300       2.31132410       3.52335128       0.01465819       0.00015897       0.04660424
Li       0.91265257       4.76568292       0.28725675      -0.01430073      -0.00019447      -0.04550887
Sn       0.11967052       4.77097711       3.24981228      -0.00103551      -0.00076974      -0.00242523
Sn       2.71919114       2.30598740       0.56158820       0.00067805       0.00080523       0.00132988
12
Lattice="4.641669414812146 -0.010762569698866832 0.010237785709954261 0.014898980105640808 6.0547454227550634 0.10531028074879739 -0.019376642205225395 -0.11529626507522102 8.048227598243747" Properties=species:S:1:pos:R:3:forces:R:3 structure_index=2 total_energy=-35.783355712890625 stress="-0.027679920196533203 0.000380759040126577 -0.002287243027240038 0.0003807795874308795 -0.014261871576309204 0.017253203317523003 -0.002287311013787985 0.017253220081329346 -0.01654231734573841" pbc="T T T"
Li       1.47862720       3.77176807       5.51286030      -0.00149207      -0.01316909      -0.00166059
Li       1.47700652       1.39836360       2.78713309       0.00126592       0.01310473       0.00428805
Li       3.79962978       0.80207787       1.44143238       0.00060328      -0.01505284      -0.00230020
Li       3.79732849       4.35914512       6.86835383      -0.00034584       0.01475193       0.00387483
Li       1.47106200       0.74409824       5.46014546      -0.00175545      -0.01291790      -0.00285842
Li       3.80949447       3.82901193       1.49540423      -0.00068940      -0.01422902      -0.00454771
Li       3.78976577       1.33202805       6.81549958       0.00008264       0.01455803       0.00343720
Li       1.48767012       4.42587309       2.83988579      -0.00302777       0.01286252       0.00324672
Sn       1.48797950       2.64298815       0.12716120       0.00096819       0.00126620      -0.00317307
Sn       3.79874921       2.58119477       4.15541102       0.00049346      -0.00858691      -0.00017469
Sn       1.49465042       5.67063421       0.17902249       0.00092204      -0.00070684      -0.00159850
Sn       3.80621690       5.60637959       4.20712383       0.00297500       0.00811920       0.00146636
10
Lattice="4.366399568378318 0.0023002846827414277 -1.408774109588883 -0.6125156537206434 5.39114294157473 -1.8901869356122694 0.17677005198398105 -0.2299715182952188 8.017124379957504" Properties=species:S:1:pos:R:3:forces:R:3 structure_index=3 total_energy=-26.432872772216797 stress="-0.031071795150637627 -0.0009392865467816591 0.0034843888133764267 -0.0009394641383551061 -0.014306474477052689 -0.00300010503269732 0.0034841683227568865 -0.0030003210995346308 -0.021282535046339035" pbc="T T T"
Li       1.50339203       0.88348051       2.20295294       0.00278406       0.00608217       0.00518686
Li       2.22064447       3.06705651       4.42600733       0.00295937       0.02107490       0.00908611
Li       3.17756546       1.72552626      -0.08039256      -0.00013550      -0.00025502       0.00014894
Li       2.87117588       4.42070320      -1.02549489      -0.00001815       0.00056034       0.00011758
Li       2.58117638       0.12615679       5.53976393       0.00108370       0.05012275       0.00371003
Li       0.48479540       2.56507615      -0.95522878      -0.00236495      -0.00584698      -0.00494768
Li       3.95048830       3.09545566       2.31652123      -0.00142543      -0.05044397      -0.00398046
Li       4.31081525       0.15469131       3.43040592      -0.00283534      -0.02166472      -0.00963354
Sn       0.26256342       4.90346390       5.83159920       0.00353781       0.00520218       0.01035455
Sn       1.29013054       3.70637668       1.54313893      -0.00358555      -0.00483162      -0.01004235
4
Lattice="3.578653028140327 -0.0006207752734970223 -2.550788908121771e-05 0.0006837584085824565 4.533935180207471 -0.0004660964677984607 3.793730712961786e-05 0.00016242505704606108 4.537702977854764" Properties=species:S:1:pos:R:3:forces:R:3 structure_index=4 total_energy=-11.04343318939209 stress="-0.0844462588429451 -0.00031743277213536203 2.072633469651919e-05 -0.00031756743555888534 0.04116664454340935 -0.0004146951832808554 2.066451997961849e-05 -0.00041476546903140843 0.07960666716098785" pbc="T T T"
Li       0.89610496       1.32994510       0.46934882      -0.00006848      -0.00021471      -0.00020019
Li       2.68572127       1.32957002       2.73821959      -0.00049268       0.00003452      -0.00014765
Li       0.89639593       3.59687943       2.73777297       0.00003241      -0.00000385      -0.00049478
Sn       2.68551348       3.59648370       0.46856715       0.00052875       0.00018406       0.00084262
6
Lattice="4.650669629137535 0.0005238621128236381 -0.005967744524861407 -2.3291942727238713 4.026442854390379 -0.0005304527172366139 0.00021409045398050768 0.00031917995256879 6.040260573503798" Properties=species:S:1:pos:R:3:forces:R:3 structure_index=5 total_energy=-17.86920166015625 stress="0.009968944825232029 -0.011549538001418114 -0.005234539043158293 -0.011549620889127254 -0.018123677000403404 -0.005891859531402588 -0.005234499461948872 -0.005891713779419661 -0.056034933775663376" pbc="T T T"
Li       1.14018041       0.76215647       1.04819665       0.00383592       0.00164844       0.03814998
Li      -1.18614075       2.10609450       3.79213197       0.00341916      -0.00631306      -0.03655927
Li      -1.18350649       2.10596348       0.77370054      -0.00450723      -0.00356948      -0.03952048
Li       1.14193940       0.75995437       4.06914090      -0.00324681       0.00621498       0.03687366
Sn       1.13834560       3.44660819       5.43694374       0.00215114       0.00086010       0.00336375
Sn       1.13927314       3.44677697       2.41752529      -0.00165218       0.00115903      -0.00230764
10
Lattice="4.4902576950722635 0.0013497788800984213 -1.2382648382752022 -0.5036491525064016 5.476078808761283 -1.8202420417715524 -0.20524516435391021 -1.1529334441014765 8.014999736559687" Properties=species:S:1:pos:R:3:forces:R:3 structure_index=6 total_energy=-28.851797103881836 stress="-0.02667066641151905 -0.004258364904671907 0.0014328932156786323 -0.004258310422301292 -0.026507239788770676 -0.015467985533177853 0.0014329785481095314 -0.015468098223209381 -0.021975135430693626" pbc="T T T"
Li       0.67460630       1.19753947       4.03968841       0.00033897      -0.01775421       0.00215659
Li       2.40988346       2.47627982       1.57328692      -0.00016540       0.00007474      -0.00035100
Li       3.41984540      -0.12354120       5.23274496      -0.00125910       0.03033431      -0.00421389
Li      -0.34532421       3.75406488       0.34452281      -0.00035599       0.01709382      -0.00157973
Li      -0.09535525       0.89602351       1.24742709      -0.00132732      -0.00688962      -0.00442991
Li       1.39970704       5.07602611      -2.08629965       0.00125838      -0.03003811       0.00408931
Li       0.42474173       4.05512795       3.13740955       0.00119758       0.00730187       0.00395275
Sn       1.65815075       2.31513055      -1.15284866      -0.00380365      -0.00767709      -0.01341642
Sn       2.66160660      -0.26176019       2.48332469       0.00004866      -0.00000975      -0.00016860
Sn       3.16133641       2.63749381       4.29903695       0.00406787       0.00756402       0.01396093
10
Lattice="4.686599234355329 0.0015285406736237194 0.0010191684753231873 -2.34435155848901 4.057303855264289 -0.004670317294668988 -0.0015828215365278752 0.011826825806536233 10.06591365016902" Properties=species:S:1:pos:R:3:forces:R:3 structure_index=7 total_energy=-28.11724853515625 stress="0.001462183310650289 -5.549030902329832e-06 -3.875850325130159e-06 -5.578144282480935e-06 0.0014745296211913228 -1.235269519384019e-05 -4.065529992658412e-06 -1.2495891496655531e-05 -0.002317252103239298" pbc="T T T"
Li       1.15184722       1.97171110      -0.03352017      -0.00000495       0.00006636      -0.00189291
Li      -1.19282829       3.32651443       3.41702142      -0.00000504      -0.00002284       0.00216965
Li       1.15028159       1.97979837       7.59786507       0.00000295      -0.00000094       0.00000163
Li       3.49498376       0.62124862       1.71283513       0.00000316       0.00002317      -0.00217155
Li       1.15030074       1.97605398       5.16333530       0.00000523      -0.00006405       0.00189829
Li      -1.19348043       3.33568536      10.27185083       0.00000849      -0.00000710       0.05518420
Li       3.49404577       0.62390760       4.92397900      -0.00000650       0.00000584      -0.05517648
Sn       1.15107848       1.97388111       2.56490937      -0.00000193       0.00000122       0.00000321
Sn      -1.19346273       3.32983412       6.53626153      -0.00001106      -0.00005206      -0.00437358
Sn       3.49402745       0.62976114       8.65949503       0.00000960       0.00005035       0.00435749
14
Lattice="6.544410883708472 -0.1679404235585663 3.160073744575921 0.8342412474453702 5.719468712734518 1.9221300383618871 0.027006673626864097 -0.023857695052020775 8.068920334774631" Properties=species:S:1:pos:R:3:forces:R:3 structure_index=8 total_energy=-45.10930633544922 stress="0.007888554595410824 0.012897660955786705 -0.0039033733773976564 0.012897640466690063 0.014919689856469631 0.012791290879249573 -0.0039033873472362757 0.012791335582733154 -0.00966682843863964" pbc="T T T"
Li       5.50323931       5.43938002       8.67040603       0.00792456      -0.00676734      -0.00066175
Li       1.63261479       4.48900609       4.33650272      -0.00733284      -0.01313728       0.01513207
Li       1.88815512       0.44799942       7.82762849       0.00894202       0.00618484      -0.00215287
Li       4.27468228       5.06991055       5.82570807       0.00982132      -0.00425412       0.00183504
Li       3.00963981       3.42115117       8.20307911      -0.00170705       0.00858085      -0.00658239
Li       1.74299390       1.82405919       2.80435857      -0.00512114       0.00023680       0.01191779
Li       6.85421389       2.70471251       9.93402498      -0.00504928       0.00879850      -0.00482409
Sn       6.90358758       4.04463091       4.55873827       0.00501458       0.00010674       0.00363474
Sn       4.18392830       3.75624563      11.09243663      -0.00317255       0.00924738      -0.02014783
Sn       4.39667355       0.96556709       9.53115708      -0.02649375       0.01046895      -0.00009008
Sn       3.07831925       2.03475614       5.53001568      -0.00875287       0.01768750       0.00912956
Sn       5.67003278       2.65915845       7.14320027       0.00690631       0.00346128       0.01657018
Sn       5.82657215       1.08046765       4.24370928       0.02459976      -0.02122079      -0.00399636
Sn       0.73459996       0.15025729       5.09945346      -0.00557907      -0.01939330      -0.01976399
12
Lattice="4.511125078140266 0.6106655492981398 0.0015884445738778164 -0.6115419146975876 4.472310966171539 0.0005069406434566615 -0.0033935740771847142 -0.0062456277859109345 11.162646703766809" Properties=species:S:1:pos:R:3:forces:R:3 structure_index=9 total_energy=-35.46722412109375 stress="0.008719190955162048 -0.00802964810281992 0.0009738586959429085 -0.008029726333916187 -0.03233347833156586 0.00014756926975678653 0.0009738318622112274 0.00014757968892809004 0.024413254112005234" pbc="T T T"
Li       1.56292249       3.91580655       4.30993446      -0.00111196      -0.00055235       0.00151828
Li       1.86766786       1.67899783       2.61653654       0.00063793      -0.00034836      -0.00027724
Li       4.12323611       1.98538399       4.25955024       0.00029004      -0.00162411       0.00292656
Li       1.56071917       3.91179501       8.19766359      -0.00011439       0.00035274       0.00014980
Li       4.12370851       1.98411939       0.97473379       0.00067203       0.00058345      -0.00301374
Li       3.81471633       4.21424329      10.22178871       0.00109072       0.00055593       0.02947373
Li       3.81764843       4.22113766       6.17521824      -0.00031831      -0.00142195      -0.02920131
Li       1.56316593       3.91404792       0.92310434      -0.00035750       0.00149328      -0.00130897
Sn       3.81841901       4.22082615       2.61736693      -0.00036592       0.00003134       0.00006451
Sn       4.12184117       1.98120810       8.19835902       0.00073027       0.00031311      -0.00004907
Sn       1.86738474       1.67902409       6.08618527      -0.00046060      -0.00072676       0.00278431
Sn       1.86592001       1.67225155      10.30901635      -0.00069233       0.00134369      -0.00306689
10
Lattice="4.3119198292237515 -0.004324675137476063 -1.2160919542625883 -0.26881003938579817 5.902708776472148 -0.9769648310681632 -0.0807163624893895 0.0205823694776342 7.966552472365051" Properties=species:S:1:pos:R:3:forces:R:3 structure_index=10 total_energy=-30.758544921875 stress="-0.007732173427939415 0.0007075002649798989 0.007307516876608133 0.0007075703470036387 0.018744874745607376 -0.00223528197966516 0.0073075806722044945 -0.0022352775558829308 0.015005331486463547" pbc="T T T"
Li       1.07670122       0.22279629       3.49279553      -0.00165909       0.00045814       0.00016229
Li       0.11858306       2.51774636       0.09439873      -0.00244841      -0.00736003      -0.00648698
Li       0.94040633       3.17454682       3.00305841      -0.00017958      -0.00033868       0.00026429
Li       3.44670032       5.05464521       3.63212147      -0.00068167      -0.01716269      -0.00194497
Li       1.75927585       3.83433041       5.91281466       0.00260975       0.00636734       0.00707113
Li       2.74451136       1.29105648       1.15902292       0.00089578       0.01712968       0.00331802
Sn       2.66043651       4.22523303       0.85027899      -0.00425469       0.00589978      -0.01630748
Sn       1.82767219       0.90110178       6.16082463      -0.00954938       0.00791391      -0.03132902
Sn       3.53048670       2.12000475       3.94186760       0.00521511      -0.00506681       0.01586783
Sn       0.05045553       5.45001814      -0.15118963       0.01005218      -0.00784065       0.02938488
12
Lattice="4.57358359819585 0.0007495933912994359 1.4982182248032963 1.5288653624093693 6.848195794501691 3.0544956244048085 0.052141761738947946 0.022710226777441816 7.569476362132219" Properties=species:S:1:pos:R:3:forces:R:3 structure_index=11 total_energy=-37.313480377197266 stress="-0.0030750774312764406 0.00442590843886137 -0.011471988633275032 0.004425933584570885 -0.005739168263971806 -0.013956407085061073 -0.011471929959952831 -0.013956233859062195 0.02784067951142788" pbc="T T T"
Li       1.99322940       2.01987130       3.26067904       0.00338120       0.00507708      -0.00870571
Li       4.04609566       4.38393968       4.72470623      -0.00363401      -0.00436852       0.01468364
Li       3.06845233       3.18750283       7.71279613      -0.00289030      -0.00732965       0.00609986
Li       5.06347243       5.52395884       9.34783703       0.00128819       0.00513810      -0.00042798
Li       4.84383745       2.61421009      10.01963315       0.00018864      -0.00013270       0.00000543
Li       1.01499334       0.82161962       6.24548394       0.00511095       0.00542708      -0.01251070
Li       1.52797462       6.52888247       4.67676137      -0.00011948      -0.00370898       0.00273121
Sn       3.81950077       1.48385003       5.41614298       0.00111018       0.00305156      -0.00270748
Sn       3.29603635       6.02744287       7.01375715      -0.00045367      -0.00010647      -0.00227490
Sn       1.24294142       3.72293508       5.55338692      -0.00247767      -0.00549779       0.00815787
Sn       2.79899825       0.44671749       8.53359807       0.00108712       0.00503095      -0.00700855
Sn       2.31580427       4.78126743      10.00933417      -0.00259116      -0.00258065       0.00195731
18
Lattice="5.324519333972462 -0.05537832601553429 -1.0621055298622382 -0.3862486419452987 7.347427477264391 -2.1031160727955953 0.0016572382174670052 -0.006330165872447216 9.298045701003861" Properties=species:S:1:pos:R:3:forces:R:3 structure_index=12 total_energy=-54.941192626953125 stress="0.009536652825772762 -0.0036880597472190857 -0.0018283454701304436 -0.0036880827974528074 -4.395958239911124e-05 -0.0006985554355196655 -0.001828384934924543 -0.0006985848885960877 0.0030413882341235876" pbc="T T T"
Li       3.55830776       2.30461506       1.44953224       0.00363537       0.00282962      -0.00751191
Li       2.82952884       5.13722792       2.30291152      -0.00596262       0.00996859       0.00128178
Li       1.71577461       3.54095100       6.01541267       0.00177328       0.00476227      -0.00632647
Li       1.17315436       2.78095781       3.38552454       0.00491058      -0.00432060       0.01090631
Li       4.83067644       0.24100792       3.31962469       0.00115848      -0.00167106      -0.00210547
Li       0.96726924       6.41867448       6.89155486       0.01149524      -0.00578581       0.00778880
Li      -0.11885882       4.76050746       1.44305230      -0.00252074       0.02091291       0.00473186
Li       3.33631745       5.93541979       4.96086946      -0.00753493      -0.00977452      -0.01223446
Li       0.05787161       1.08871673       7.05774371      -0.00702265      -0.00661926      -0.02264772
Li       1.48185792       7.21671540       0.27626473       0.00577778      -0.01580687       0.02089995
Li       4.64854858       3.88795094       6.93280914      -0.00504263       0.00831834       0.00330304
Sn       3.91034967       6.71616380      -1.51156201      -0.01272685      -0.00637383       0.00928935
Sn       4.13090731       3.12585237       4.14749707       0.02661624       0.03015441      -0.02177105
Sn       0.62541259       1.94534432       0.65031349       0.00190934       0.00517867       0.00931961
Sn       2.25418978       4.41687050      -0.47199774       0.01913441       0.00943894       0.00811058
Sn       0.38998979       5.56786733       4.16535289      -0.02587004      -0.02876485       0.00159217
Sn       2.99851386       1.47364220       7.93479781      -0.00538945      -0.00147927      -0.00602672
Sn       2.42007513       0.62718851       5.06146259      -0.00434080      -0.01096770       0.00140036
12
Lattice="5.053278545703389 0.0032481645879484937 -0.0035961693200996783 -0.00366136325220747 5.049661775126412 0.1043665958677897 0.005078618198963221 0.4027347180673894 9.070282422619046" Properties=species:S:1:pos:R:3:forces:R:3 structure_index=13 total_energy=-35.672035217285156 stress="0.013867069035768509 -0.0013016064185649157 -0.002057307865470648 -0.0013016408775001764 -0.009512110613286495 -0.0014707886148244143 -0.002057317877188325 -0.001470752409659326 -0.012408467009663582" pbc="T T T"
Li       4.22709844      -0.10415869       0.78626752      -0.00004308       0.01898352       0.02888544
Li       1.69990909       1.71403880       0.94957875      -0.00048609      -0.01879052      -0.02744539
Li       1.70174960       4.53166551       8.59187408      -0.00041216      -0.02012290      -0.03460500
Li       4.22512461       5.25762938       6.90782411       0.00060679       0.01927225       0.03306789
Li       4.22639303       2.62202705       5.37345277       0.00038469       0.01910923       0.02894620
Li       1.70010623       1.80508644       4.00549396       0.00027149      -0.01936168      -0.03608226
Li       1.69834204       4.44062071       5.53692368       0.00045892      -0.01940674      -0.02755212
Li       4.22636537       2.53192378       2.32087388      -0.00036832       0.01862314       0.03272458
Sn       4.22870030       0.07215090       3.82714209      -0.00199304      -0.00338559      -0.00386652
Sn       1.69761088       4.26412417       2.49673438       0.00167608       0.00407130       0.00438972
Sn       4.22958931       2.79802376       8.41448993      -0.00076152      -0.00301269      -0.00368194
Sn       1.70160394       1.94093498       6.97930297       0.00066624       0.00402071       0.00521940
8
Lattice="5.036702378413352 0.00024918719583663445 0.0023044070040202894 -2.516376916687026 4.380645836068067 0.0102701441438915 -0.0022444514647315403 0.017647490747183327 8.790553514016798" Properties=species:S:1:pos:R:3:forces:R:3 structure_index=14 total_energy=-25.435707092285156 stress="0.04041999205946922 -0.00026051027816720307 0.00036367689608596265 -0.0002607171190902591 0.018641537055373192 -0.013108696788549423 0.00036354377516545355 -0.013108789920806885 -0.00651775486767292" pbc="T T T"
Li       0.60417815       0.35310846       3.53729935       0.00065739      -0.00145143      -0.02142941
Li       0.61014080       0.34500130       0.52881256      -0.00273784      -0.00138076      -0.02222975
Li       3.12220623       1.82460037       7.57188084       0.00146448       0.00179894       0.02228782
Li       3.12644421       1.81504190       4.56366325      -0.00076920       0.00218975       0.02112968
Sn       3.12482886       1.80880923       1.62551716       0.00102835      -0.00445612       0.03627213
Sn       0.60584932       3.27161294       2.50083119       0.00093640      -0.00168081      -0.00854501
Sn       0.60838295       3.27877860       5.60935992      -0.00070313       0.00115707       0.00934066
Sn       0.60584135       0.36118974       6.47529065       0.00012354       0.00382338      -0.03682609
7
Lattice="3.1013230436220343 0.00050310972610829 -0.4421060893207773 -0.12489188618588228 4.2600380403792 -0.8710617972131838 -0.03371782882853136 -0.012969067739204759 10.802802092655195" Properties=species:S:1:pos:R:3:forces:R:3 structure_index=15 total_energy=-21.89205551147461 stress="0.033333323895931244 0.0005307903047651052 -0.009460310451686382 0.0005308104446157813 -0.05121677368879318 0.0034919355530291796 -0.009460222907364368 0.0034919222816824913 -0.032766152173280716" pbc="T T T"
Li       2.01696090       3.15708212       5.23331595       0.00020977      -0.00005843      -0.00449366
Li       0.29898744       0.69260459       4.29089025      -0.00135785       0.00118836      -0.00157356
Li       2.41629421       3.74070975       8.01231067       0.00444881       0.00327035       0.02912151
Li       3.00012070       0.11113570       1.06463178      -0.00376360      -0.00434217      -0.02748861
Sn       1.60640666       2.56509495       2.39113185       0.00477236       0.00296327       0.02699388
Sn       0.70712605       1.28629580       7.12539111      -0.00246591      -0.00404180      -0.01842722
Sn       1.14215791       1.91821728      10.16258113      -0.00184358       0.00102041      -0.00413236
8
Lattice="4.855813538014062 0.00010897574707745148 0.0007973002856073569 0.0007794792786219003 5.192054682420407 -2.9955803607596154 -0.0013750938222486962 -0.007562174901809325 5.995101923525138" Properties=species:S:1:pos:R:3:forces:R:3 structure_index=16 total_energy=-22.157733917236328 stress="-0.0448266975581646 5.059715113020502e-05 -0.0004037807520944625 5.0584061682457104e-05 -0.035481009632349014 -0.0011680804891511798 -0.0004037107282783836 -0.001168030546978116 -0.034280963242053986" pbc="T T T"
Li       0.08258046       1.82772198       0.83026794      -0.00024699      -0.01698151      -0.02956788
Li       0.08232128       4.55790097       2.41216101      -0.00017558       0.03610106      -0.00181159
Li       0.08152627       1.82554352       3.98776151       0.00008828      -0.01853277       0.03034320
Li       2.50960203       0.91824993       2.40647981       0.00032235      -0.03545438       0.00020537
Li       2.51101275       3.65641571      -2.00810121      -0.00006479       0.01692858       0.02990954
Li       2.51033407       3.65094369       0.82893237       0.00015753       0.01824973      -0.02874009
Sn       2.50934119       1.00665124       5.40292002       0.00000707      -0.00087883       0.00006491
Sn       0.08269313       4.46989882      -0.58511072      -0.00008788       0.00056809      -0.00040349
16
Lattice="5.336394558915878 0.008746220989685857 -0.017440985890995873 0.04114611716826908 6.0589019259089785 -0.12811607010371961 0.11165440784331238 0.05757204396002108 9.943292093401123" Properties=species:S:1:pos:R:3:forces:R:3 structure_index=17 total_energy=-48.3060188293457 stress="-0.019020292907953262 -0.0013135059271007776 0.007640689145773649 -0.0013134167529642582 -0.01733732782304287 -0.0012289243750274181 0.007640906143933535 -0.0012288910802453756 -0.003732707817107439" pbc="T T T"
Li       3.51432322       3.48576360       9.01159001       0.02229029      -0.01204857      -0.03157732
Li       2.44426837       1.99618199       4.07217956      -0.00833299      -0.00764528      -0.00156571
Li       2.37590031       4.89300223       3.97134554       0.01761612       0.00453470       0.01572630
Li       4.30901419       4.91505276       1.52131041      -0.00256384      -0.00245480      -0.01538274
Li       0.67482540       1.95958717       9.03616515      -0.02087048      -0.01174613      -0.00161697
Li       1.50369934       3.45238967       6.55744652      -0.02787701      -0.01026156      -0.00699706
Li       1.51144315       0.38899959       1.49430864      -0.03930445       0.01014856       0.00271521
Li       3.40545965       0.38916161       9.03727330       0.02996647       0.01079981       0.01829355
Li       4.32365137       4.98908787       6.53227832       0.03373003       0.01536050       0.00963492
Li       5.02659204       0.47503583       4.17808144       0.00983131      -0.00847838       0.02603696
Sn       0.85217685       4.98102540       8.95017753      -0.00910930       0.00194842      -0.00021557
Sn       4.13343437       1.75621062       1.63736719      -0.02942997       0.00556063      -0.00356704
Sn       1.66970910       0.37591218       6.55289969      -0.01208567      -0.02039471       0.00438407
Sn       4.11901939       2.01906573       6.56671713       0.02352034       0.03216027      -0.00279724
Sn       1.62027005       3.44992661       1.47081471      -0.00417335      -0.00875573       0.01246683
Sn       5.07231988       3.52080212       4.07621409       0.01679253       0.00127228      -0.02553820
4
Lattice="4.026325416635814 0.0020627873519326293 -2.2783026446316175 -1.2977717525016392 3.810186530686501 -2.279423438729855 -0.016271879774457522 -0.020533755489425525 4.662896134460434" Properties=species:S:1:pos:R:3:forces:R:3 structure_index=18 total_energy=-11.25460433959961 stress="-0.0068176682107150555 0.03906617686152458 0.05717155337333679 0.03906643018126488 0.020680049434304237 0.08236905187368393 0.05717148259282112 0.0823691338300705 0.05153493955731392" pbc="T T T"
Li       3.34349828       1.95761678      -1.58592292       0.00006770      -0.00269321      -0.00145442
Li       0.63913104       0.99308614       3.02389618       0.00131354      -0.00064380      -0.00037985
Li       1.97891531       0.05067801       0.69207825       0.00068729      -0.00083486       0.00037573
Sn       2.00474168       2.89772814       0.74438912      -0.00206851       0.00417187       0.00145851
18
Lattice="6.931114215883069 0.0033586199470003048 3.02927789754854 1.980596820052603 6.64380205688359 3.0431944955652512 0.005912807029412679 -0.003436141253567878 7.567297540644711" Properties=species:S:1:pos:R:3:forces:R:3 structure_index=19 total_energy=-55.06317901611328 stress="-8.340784916072153e-06 0.0005788792623206973 0.0023830796126276255 0.0005787730333395302 0.0010143833933398128 0.004538881126791239 0.002382945967838168 0.0045389290899038315 0.00469968980178237" pbc="T T T"
Li       1.66715106       2.48390779       7.07703959      -0.00653380      -0.00347817      -0.00640126