# Thermal properties / unit cell (natom)

unit:
  temperature:   K
  free_energy:   kJ/mol
  entropy:       J/K/mol
  heat_capacity: J/K/mol

natom: 4    
cutoff_frequency: 0.00000
num_modes: 118800
num_integrated_modes: 118249

zero_point_energy:       7.7088675

thermal_properties:
- temperature:         0.0000000
  free_energy:         7.7088675
  entropy:             0.0000000
  heat_capacity:       0.0000000
  energy:              7.7088675

- temperature:        10.0000000
  free_energy:         7.6995221
  entropy:             3.1943190
  heat_capacity:       7.7114646
  energy:              7.7314653

- temperature:        20.0000000
  free_energy:         7.6156736
  entropy:            14.6115158
  heat_capacity:      27.8801517
  energy:              7.9079039

- temperature:        30.0000000
  free_energy:         7.3970718
  entropy:            29.2284778
  heat_capacity:      44.1737869
  energy:              8.2739262

- temperature:        40.0000000
  free_energy:         7.0327124
  entropy:            43.4508863
  heat_capacity:      54.3763159
  energy:              8.7707479

- temperature:        50.0000000
  free_energy:         6.5325918
  entropy:            56.3387269
  heat_capacity:      60.9649209
  energy:              9.3495281

- temperature:        60.0000000
  free_energy:         5.9103864
  entropy:            67.8970293
  heat_capacity:      65.7691678
  energy:              9.9842082

- temperature:        70.0000000
  free_energy:         5.1783777
  entropy:            78.3366421
  heat_capacity:      69.6661624
  energy:             10.6619426

- temperature:        80.0000000
  free_energy:         4.3466932
  entropy:            87.8627321
  heat_capacity:      73.0106102
  energy:             11.3757117

- temperature:        90.0000000
  free_energy:         3.4236315
  entropy:            96.6349063
  heat_capacity:      75.9383259
  energy:             12.1207731

- temperature:       100.0000000
  free_energy:         2.4161093
  entropy:           104.7718121
  heat_capacity:      78.5091583
  energy:             12.8932906

- temperature:       110.0000000
  free_energy:         1.3300136
  entropy:           112.3625605
  heat_capacity:      80.7615861
  energy:             13.6898952

- temperature:       120.0000000
  free_energy:         0.1704475
  entropy:           119.4760578
  heat_capacity:      82.7296258
  energy:             14.5075744

- temperature:       130.0000000
  free_energy:        -1.0581012
  entropy:           126.1673162
  heat_capacity:      84.4462681
  energy:             15.3436499

- temperature:       140.0000000
  free_energy:        -2.3516427
  entropy:           132.4815001
  heat_capacity:      85.9430839
  energy:             16.1957673

- temperature:       150.0000000
  free_energy:        -3.7066012
  entropy:           138.4565186
  heat_capacity:      87.2492827
  energy:             17.0618765

- temperature:       160.0000000
  free_energy:        -5.1197509
  entropy:           144.1247265
  heat_capacity:      88.3910986
  energy:             17.9402053

- temperature:       170.0000000
  free_energy:        -6.5881667
  entropy:           149.5140849
  heat_capacity:      89.3915837
  energy:             18.8292278

- temperature:       180.0000000
  free_energy:        -8.1091847
  entropy:           154.6489860
  heat_capacity:      90.2706929
  energy:             19.7276327

- temperature:       190.0000000
  free_energy:        -9.6803699
  entropy:           159.5508645
  heat_capacity:      91.0455331
  energy:             20.6342943

- temperature:       200.0000000
  free_energy:       -11.2994887
  entropy:           164.2386667
  heat_capacity:      91.7306831
  energy:             21.5482447

- temperature:       210.0000000
  free_energy:       -12.9644860
  entropy:           168.7292213
  heat_capacity:      92.3385272
  energy:             22.4686505

- temperature:       220.0000000
  free_energy:       -14.6734658
  entropy:           173.0375389
  heat_capacity:      92.8795728
  energy:             23.3947927

- temperature:       230.0000000
  free_energy:       -16.4246742
  entropy:           177.1770583
  heat_capacity:      93.3627358
  energy:             24.3260492

- temperature:       240.0000000
  free_energy:       -18.2164847
  entropy:           181.1598524
  heat_capacity:      93.7955904
  energy:             25.2618799

- temperature:       250.0000000
  free_energy:       -20.0473852
  entropy:           184.9968005
  heat_capacity:      94.1845824
  energy:             26.2018149

- temperature:       260.0000000
  free_energy:       -21.9159674
  entropy:           188.6977353
  heat_capacity:      94.5352098
  energy:             27.1454437

- temperature:       270.0000000
  free_energy:       -23.8209164
  entropy:           192.2715678
  heat_capacity:      94.8521748
  energy:             28.0924069

- temperature:       280.0000000
  free_energy:       -25.7610022
  entropy:           195.7263954
  heat_capacity:      95.1395099
  energy:             29.0423885

- temperature:       290.0000000
  free_energy:       -27.7350723
  entropy:           199.0695939
  heat_capacity:      95.4006838
  energy:             29.9951100

- temperature:       300.0000000
  free_energy:       -29.7420445
  entropy:           202.3078983
  heat_capacity:      95.6386893
  energy:             30.9503250

- temperature:       310.0000000
  free_energy:       -31.7809012
  entropy:           205.4474722
  heat_capacity:      95.8561162
  energy:             31.9078152

- temperature:       320.0000000
  free_energy:       -33.8506837
  entropy:           208.4939687
  heat_capacity:      96.0552126
  energy:             32.8673863

- temperature:       330.0000000
  free_energy:       -35.9504877
  entropy:           211.4525836
  heat_capacity:      96.2379360
  energy:             33.8288649

- temperature:       340.0000000
  free_energy:       -38.0794584
  entropy:           214.3281017
  heat_capacity:      96.4059954
  energy:             34.7920961

- temperature:       350.0000000
  free_energy:       -40.2367875
  entropy:           217.1249383
  heat_capacity:      96.5608878
  energy:             35.7569410

- temperature:       360.0000000
  free_energy:       -42.4217086
  entropy:           219.8471749
  heat_capacity:      96.7039279
  energy:             36.7232744

- temperature:       370.0000000
  free_energy:       -44.6334949
  entropy:           222.4985914
  heat_capacity:      96.8362735
  energy:             37.6909839

- temperature:       380.0000000
  free_energy:       -46.8714560
  entropy:           225.0826939
  heat_capacity:      96.9589471
  energy:             38.6599677

- temperature:       390.0000000
  free_energy:       -49.1349353
  entropy:           227.6027408
  heat_capacity:      97.0728538
  energy:             39.6301336

- temperature:       400.0000000
  free_energy:       -51.4233075
  entropy:           230.0617642
  heat_capacity:      97.1787971
  energy:             40.6013982

- temperature:       410.0000000
  free_energy:       -53.7359766
  entropy:           232.4625903
  heat_capacity:      97.2774920
  energy:             41.5736854

- temperature:       420.0000000
  free_energy:       -56.0723741
  entropy:           234.8078574
  heat_capacity:      97.3695760
  energy:             42.5469260

- temperature:       430.0000000
  free_energy:       -58.4319568
  entropy:           237.1000316
  heat_capacity:      97.4556191
  energy:             43.5210568

- temperature:       440.0000000
  free_energy:       -60.8142055
  entropy:           239.3414214
  heat_capacity:      97.5361320
  energy:             44.4960200

- temperature:       450.0000000
  free_energy:       -63.2186232
  entropy:           241.5341905
  heat_capacity:      97.6115731
  energy:             45.4717625

- temperature:       460.0000000
  free_energy:       -65.6447340
  entropy:           243.6803693
  heat_capacity:      97.6823550
  energy:             46.4482359

- temperature:       470.0000000
  free_energy:       -68.0920816
  entropy:           245.7818659
  heat_capacity:      97.7488496
  energy:             47.4253953

- temperature:       480.0000000
  free_energy:       -70.5602284
  entropy:           247.8404752
  heat_capacity:      97.8113926
  energy:             48.4031997

- temperature:       490.0000000
  free_energy:       -73.0487538
  entropy:           249.8578875
  heat_capacity:      97.8702881
  energy:             49.3816110

- temperature:       500.0000000
  free_energy:       -75.5572541
  entropy:           251.8356967
  heat_capacity:      97.9258118
  energy:             50.3605942

- temperature:       510.0000000
  free_energy:       -78.0853408
  entropy:           253.7754072
  heat_capacity:      97.9782137
  energy:             51.3401169

- temperature:       520.0000000
  free_energy:       -80.6326400
  entropy:           255.6784402
  heat_capacity:      98.0277218
  energy:             52.3201489

- temperature:       530.0000000
  free_energy:       -83.1987918
  entropy:           257.5461399
  heat_capacity:      98.0745433
  energy:             53.3006624

- temperature:       540.0000000
  free_energy:       -85.7834493
  entropy:           259.3797791
  heat_capacity:      98.1188678
  energy:             54.2816314

- temperature:       550.0000000
  free_energy:       -88.3862779
  entropy:           261.1805634
  heat_capacity:      98.1608683
  energy:             55.2630320

- temperature:       560.0000000
  free_energy:       -91.0069548
  entropy:           262.9496365
  heat_capacity:      98.2007033
  energy:             56.2448416

- temperature:       570.0000000
  free_energy:       -93.6451685
  entropy:           264.6880839
  heat_capacity:      98.2385181
  energy:             57.2270393

- temperature:       580.0000000
  free_energy:       -96.3006179
  entropy:           266.3969371
  heat_capacity:      98.2744461
  energy:             58.2096056

- temperature:       590.0000000
  free_energy:       -98.9730119
  entropy:           268.0771767
  heat_capacity:      98.3086099
  energy:             59.1925223

- temperature:       600.0000000
  free_energy:      -101.6620692
  entropy:           269.7297358
  heat_capacity:      98.3411225
  energy:             60.1757723

- temperature:       610.0000000
  free_energy:      -104.3675173
  entropy:           271.3555032
  heat_capacity:      98.3720879
  energy:             61.1593396

- temperature:       620.0000000
  free_energy:      -107.0890927
  entropy:           272.9553258
  heat_capacity:      98.4016021
  energy:             62.1432093

- temperature:       630.0000000
  free_energy:      -109.8265400
  entropy:           274.5300114
  heat_capacity:      98.4297540
  energy:             63.1273671

- temperature:       640.0000000
  free_energy:      -112.5796117
  entropy:           276.0803310
  heat_capacity:      98.4566255
  energy:             64.1118001

- temperature:       650.0000000
  free_energy:      -115.3480679
  entropy:           277.6070208
  heat_capacity:      98.4822929
  energy:             65.0964956

- temperature:       660.0000000
  free_energy:      -118.1316757
  entropy:           279.1107847
  heat_capacity:      98.5068265
  energy:             66.0814422

- temperature:       670.0000000
  free_energy:      -120.9302094
  entropy:           280.5922956
  heat_capacity:      98.5302919
  energy:             67.0666286

- temperature:       680.0000000
  free_energy:      -123.7434496
  entropy:           282.0521974
  heat_capacity:      98.5527499
  energy:             68.0520446

- temperature:       690.0000000
  free_energy:      -126.5711834
  entropy:           283.4911070
  heat_capacity:      98.5742570
  energy:             69.0376804

- temperature:       700.0000000
  free_energy:      -129.4132038
  entropy:           284.9096151
  heat_capacity:      98.5948660
  energy:             70.0235268

- temperature:       710.0000000
  free_energy:      -132.2693096
  entropy:           286.3082880
  heat_capacity:      98.6146259
  energy:             71.0095749

- temperature:       720.0000000
  free_energy:      -135.1393052
  entropy:           287.6876692
  heat_capacity:      98.6335825
  energy:             71.9958166

- temperature:       730.0000000
  free_energy:      -138.0230004
  entropy:           289.0482801
  heat_capacity:      98.6517786
  energy:             72.9822440

- temperature:       740.0000000
  free_energy:      -140.9202099
  entropy:           290.3906212
  heat_capacity:      98.6692542
  energy:             73.9688498

- temperature:       750.0000000
  free_energy:      -143.8307535
  entropy:           291.7151738
  heat_capacity:      98.6860467
  energy:             74.9556268

- temperature:       760.0000000
  free_energy:      -146.7544557
  entropy:           293.0224003
  heat_capacity:      98.7021911
  energy:             75.9425686

- temperature:       770.0000000
  free_energy:      -149.6911453
  entropy:           294.3127453
  heat_capacity:      98.7177201
  energy:             76.9296686

- temperature:       780.0000000
  free_energy:      -152.6406557
  entropy:           295.5866368
  heat_capacity:      98.7326646
  energy:             77.9169210

- temperature:       790.0000000
  free_energy:      -155.6028245
  entropy:           296.8444868
  heat_capacity:      98.7470533
  energy:             78.9043201

- temperature:       800.0000000
  free_energy:      -158.5774933
  entropy:           298.0866920
  heat_capacity:      98.7609135
  energy:             79.8918603

- temperature:       810.0000000
  free_energy:      -161.5645075
  entropy:           299.3136348
  heat_capacity:      98.7742707
  energy:             80.8795367

- temperature:       820.0000000
  free_energy:      -164.5637164
  entropy:           300.5256835
  heat_capacity:      98.7871487
  energy:             81.8673441

- temperature:       830.0000000
  free_energy:      -167.5749727
  entropy:           301.7231938
  heat_capacity:      98.7995701
  energy:             82.8552781

- temperature:       840.0000000
  free_energy:      -170.5981329
  entropy:           302.9065083
  heat_capacity:      98.8115563
  energy:             83.8433341

- temperature:       850.0000000
  free_energy:      -173.6330567
  entropy:           304.0759583
  heat_capacity:      98.8231272
  energy:             84.8315078

- temperature:       860.0000000
  free_energy:      -176.6796069
  entropy:           305.2318631
  heat_capacity:      98.8343017
  energy:             85.8197953

- temperature:       870.0000000
  free_energy:      -179.7376498
  entropy:           306.3745315
  heat_capacity:      98.8450978
  energy:             86.8081926

- temperature:       880.0000000
  free_energy:      -182.8070544
  entropy:           307.5042619
  heat_capacity:      98.8555322
  energy:             87.7966961

- temperature:       890.0000000
  free_energy:      -185.8876929
  entropy:           308.6213427
  heat_capacity:      98.8656209
  energy:             88.7853021

- temperature:       900.0000000
  free_energy:      -188.9794401
  entropy:           309.7260527
  heat_capacity:      98.8753789
  energy:             89.7740074

- temperature:       910.0000000
  free_energy:      -192.0821736
  entropy:           310.8186618
  heat_capacity:      98.8848205
  energy:             90.7628086

- temperature:       920.0000000
  free_energy:      -195.1957738
  entropy:           311.8994311
  heat_capacity:      98.8939592
  energy:             91.7517028

- temperature:       930.0000000
  free_energy:      -198.3201236
  entropy:           312.9686134
  heat_capacity:      98.9028078
  energy:             92.7406868

- temperature:       940.0000000
  free_energy:      -201.4551083
  entropy:           314.0264535
  heat_capacity:      98.9113784
  energy:             93.7297580

- temperature:       950.0000000
  free_energy:      -204.6006157
  entropy:           315.0731886
  heat_capacity:      98.9196825
  energy:             94.7189135

- temperature:       960.0000000
  free_energy:      -207.7565358
  entropy:           316.1090486
  heat_capacity:      98.9277310
  energy:             95.7081508

- temperature:       970.0000000
  free_energy:      -210.9227611
  entropy:           317.1342561
  heat_capacity:      98.9355342
  energy:             96.6974673

- temperature:       980.0000000
  free_energy:      -214.0991861
  entropy:           318.1490274
  heat_capacity:      98.9431020
  energy:             97.6868607

- temperature:       990.0000000
  free_energy:      -217.2857076
  entropy:           319.1535719
  heat_capacity:      98.9504438
  energy:             98.6763286

- temperature:      1000.0000000
  free_energy:      -220.4822242
  entropy:           320.1480930
  heat_capacity:      98.9575685
  energy:             99.6658689
