phonopy:
  version: "2.37.1"
  frequency_unit_conversion_factor: 15.633302
  symmetry_tolerance: 1.00000e-05

space_group:
  type: "P1"
  number: 1
  Hall_symbol: "P 1"

primitive_matrix:
- [ -1.000000000000000,  0.000000000000000,  1.000000000000000 ]
- [  1.000000000000000,  0.000000000000000, -0.000000000000000 ]
- [  0.000000000000000,  1.000000000000000, -1.000000000000000 ]

supercell_matrix:
- [   2,   0,   0 ]
- [   0,   2,   0 ]
- [   0,   0,   2 ]

primitive_cell:
  lattice:
  - [    -3.058934731991740,     5.270066828620788,     0.000000000000000 ] # a
  - [     3.059462468174132,     1.678082329689172,     4.995710447347844 ] # b
  - [     3.060351821855702,    -1.678082329689172,    -4.995710447347844 ] # c
  points:
  - symbol: Li # 1
    coordinates: [  0.705087112217493,  0.259793644413779,  0.099784641820328 ]
    mass: 6.940000
  - symbol: Li # 2
    coordinates: [  0.705240961415970,  0.759529157875391,  0.599859006987663 ]
    mass: 6.940000
  - symbol: Li # 3
    coordinates: [  0.204687896864117,  0.259263555126851,  0.599618051905150 ]
    mass: 6.940000
  - symbol: Li # 4
    coordinates: [  0.204676963082477,  0.759276112575696,  0.099463908801019 ]
    mass: 6.940000
  - symbol: Ga # 5
    coordinates: [  0.704860224583323,  0.759007933439851,  0.099516279225502 ]
    mass: 69.723000
  - symbol: Sn # 6
    coordinates: [  0.704917835186432,  0.259281400740202,  0.599539949395423 ]
    mass: 118.710000
  - symbol: Sn # 7
    coordinates: [  0.205030738882247,  0.258936465935158,  0.099100470190008 ]
    mass: 118.710000
  - symbol: Sn # 8
    coordinates: [  0.205494408866882,  0.759089322837726,  0.599914192291969 ]
    mass: 118.710000
  reciprocal_lattice: # without 2pi
  - [    -0.000000000000000,     0.189750914460739,    -0.063738213003912 ] # a*
  - [     0.163403651256078,     0.094845306599707,     0.068241430794189 ] # b*
  - [     0.163403651256078,     0.094845306599707,    -0.131930298640388 ] # c*

unit_cell:
  lattice:
  - [     6.119814290029834,     0.000000000000000,     0.000000000000000 ] # a
  - [     3.060879558038095,     5.270066828620788,     0.000000000000000 ] # b
  - [     3.059462468174132,     1.678082329689171,     4.995710447347844 ] # c
  points:
  - symbol: Li # 1
    coordinates: [  0.394697529602834,  0.705087112217493,  0.160009002593451 ]
    mass: 6.940000
    reduced_to: 1
  - symbol: Li # 2
    coordinates: [  0.894618045571693,  0.705240961415970,  0.159670150887728 ]
    mass: 6.940000
    reduced_to: 2
  - symbol: Li # 3
    coordinates: [  0.394930155041033,  0.204687896864117,  0.659645503221701 ]
    mass: 6.940000
    reduced_to: 3
  - symbol: Li # 4
    coordinates: [  0.894786945718541,  0.204676963082477,  0.659812203774677 ]
    mass: 6.940000
    reduced_to: 4
  - symbol: Ga # 5
    coordinates: [  0.394656054642179,  0.704860224583323,  0.659491654214349 ]
    mass: 69.723000
    reduced_to: 5
  - symbol: Sn # 6
    coordinates: [  0.894622114208990,  0.704917835186432,  0.659741451344778 ]
    mass: 118.710000
    reduced_to: 6
  - symbol: Sn # 7
    coordinates: [  0.894069731307761,  0.205030738882247,  0.159835995745150 ]
    mass: 118.710000
    reduced_to: 7
  - symbol: Sn # 8
    coordinates: [  0.394419783425087,  0.205494408866882,  0.159175130545757 ]
    mass: 118.710000
    reduced_to: 8

supercell:
  lattice:
  - [    12.239628580059668,     0.000000000000000,     0.000000000000000 ] # a
  - [     6.121759116076190,    10.540133657241576,     0.000000000000000 ] # b
  - [     6.118924936348264,     3.356164659378343,     9.991420894695688 ] # c
  points:
  - symbol: Li # 1
    coordinates: [  0.197348764801417,  0.352543556108747,  0.080004501296726 ]
    mass: 6.940000
    reduced_to: 1
  - symbol: Li # 2
    coordinates: [  0.697348764801417,  0.352543556108747,  0.080004501296726 ]
    mass: 6.940000
    reduced_to: 1
  - symbol: Li # 3
    coordinates: [  0.197348764801417,  0.852543556108747,  0.080004501296726 ]
    mass: 6.940000
    reduced_to: 1
  - symbol: Li # 4
    coordinates: [  0.697348764801417,  0.852543556108747,  0.080004501296726 ]
    mass: 6.940000
    reduced_to: 1
  - symbol: Li # 5
    coordinates: [  0.197348764801417,  0.352543556108747,  0.580004501296726 ]
    mass: 6.940000
    reduced_to: 1
  - symbol: Li # 6
    coordinates: [  0.697348764801417,  0.352543556108747,  0.580004501296726 ]
    mass: 6.940000
    reduced_to: 1
  - symbol: Li # 7
    coordinates: [  0.197348764801417,  0.852543556108747,  0.580004501296726 ]
    mass: 6.940000
    reduced_to: 1
  - symbol: Li # 8
    coordinates: [  0.697348764801417,  0.852543556108747,  0.580004501296726 ]
    mass: 6.940000
    reduced_to: 1
  - symbol: Li # 9
    coordinates: [  0.447309022785847,  0.352620480707985,  0.079835075443864 ]
    mass: 6.940000
    reduced_to: 9
  - symbol: Li # 10
    coordinates: [  0.947309022785847,  0.352620480707985,  0.079835075443864 ]
    mass: 6.940000
    reduced_to: 9
  - symbol: Li # 11
    coordinates: [  0.447309022785847,  0.852620480707985,  0.079835075443864 ]
    mass: 6.940000
    reduced_to: 9
  - symbol: Li # 12
    coordinates: [  0.947309022785847,  0.852620480707985,  0.079835075443864 ]
    mass: 6.940000
    reduced_to: 9
  - symbol: Li # 13
    coordinates: [  0.447309022785847,  0.352620480707985,  0.579835075443864 ]
    mass: 6.940000
    reduced_to: 9
  - symbol: Li # 14
    coordinates: [  0.947309022785847,  0.352620480707985,  0.579835075443864 ]
    mass: 6.940000
    reduced_to: 9
  - symbol: Li # 15
    coordinates: [  0.447309022785847,  0.852620480707985,  0.579835075443864 ]
    mass: 6.940000
    reduced_to: 9
  - symbol: Li # 16
    coordinates: [  0.947309022785847,  0.852620480707985,  0.579835075443864 ]
    mass: 6.940000
    reduced_to: 9
  - symbol: Li # 17
    coordinates: [  0.197465077520516,  0.102343948432059,  0.329822751610851 ]
    mass: 6.940000
    reduced_to: 17
  - symbol: Li # 18
    coordinates: [  0.697465077520516,  0.102343948432059,  0.329822751610851 ]
    mass: 6.940000
    reduced_to: 17
  - symbol: Li # 19
    coordinates: [  0.197465077520516,  0.602343948432059,  0.329822751610851 ]
    mass: 6.940000
    reduced_to: 17
  - symbol: Li # 20
    coordinates: [  0.697465077520516,  0.602343948432059,  0.329822751610851 ]
    mass: 6.940000
    reduced_to: 17
  - symbol: Li # 21
    coordinates: [  0.197465077520516,  0.102343948432059,  0.829822751610851 ]
    mass: 6.940000
    reduced_to: 17
  - symbol: Li # 22
    coordinates: [  0.697465077520516,  0.102343948432059,  0.829822751610851 ]
    mass: 6.940000
    reduced_to: 17
  - symbol: Li # 23
    coordinates: [  0.197465077520516,  0.602343948432059,  0.829822751610851 ]
    mass: 6.940000
    reduced_to: 17
  - symbol: Li # 24
    coordinates: [  0.697465077520516,  0.602343948432059,  0.829822751610851 ]
    mass: 6.940000
    reduced_to: 17
  - symbol: Li # 25
    coordinates: [  0.447393472859271,  0.102338481541239,  0.329906101887339 ]
    mass: 6.940000
    reduced_to: 25
  - symbol: Li # 26
    coordinates: [  0.947393472859271,  0.102338481541239,  0.329906101887339 ]
    mass: 6.940000
    reduced_to: 25
  - symbol: Li # 27
    coordinates: [  0.447393472859271,  0.602338481541238,  0.329906101887339 ]
    mass: 6.940000
    reduced_to: 25
  - symbol: Li # 28
    coordinates: [  0.947393472859271,  0.602338481541238,  0.329906101887339 ]
    mass: 6.940000
    reduced_to: 25
  - symbol: Li # 29
    coordinates: [  0.447393472859271,  0.102338481541239,  0.829906101887339 ]
    mass: 6.940000
    reduced_to: 25
  - symbol: Li # 30
    coordinates: [  0.947393472859271,  0.102338481541239,  0.829906101887339 ]
    mass: 6.940000
    reduced_to: 25
  - symbol: Li # 31
    coordinates: [  0.447393472859271,  0.602338481541238,  0.829906101887339 ]
    mass: 6.940000
    reduced_to: 25
  - symbol: Li # 32
    coordinates: [  0.947393472859271,  0.602338481541238,  0.829906101887339 ]
    mass: 6.940000
    reduced_to: 25
  - symbol: Ga # 33
    coordinates: [  0.197328027321089,  0.352430112291662,  0.329745827107174 ]
    mass: 69.723000
    reduced_to: 33
  - symbol: Ga # 34
    coordinates: [  0.697328027321089,  0.352430112291662,  0.329745827107174 ]
    mass: 69.723000
    reduced_to: 33
  - symbol: Ga # 35
    coordinates: [  0.197328027321089,  0.852430112291662,  0.329745827107174 ]
    mass: 69.723000
    reduced_to: 33
  - symbol: Ga # 36
    coordinates: [  0.697328027321089,  0.852430112291662,  0.329745827107174 ]
    mass: 69.723000
    reduced_to: 33
  - symbol: Ga # 37
    coordinates: [  0.197328027321089,  0.352430112291662,  0.829745827107174 ]
    mass: 69.723000
    reduced_to: 33
  - symbol: Ga # 38
    coordinates: [  0.697328027321089,  0.352430112291662,  0.829745827107174 ]
    mass: 69.723000
    reduced_to: 33
  - symbol: Ga # 39
    coordinates: [  0.197328027321089,  0.852430112291662,  0.829745827107174 ]
    mass: 69.723000
    reduced_to: 33
  - symbol: Ga # 40
    coordinates: [  0.697328027321089,  0.852430112291662,  0.829745827107174 ]
    mass: 69.723000
    reduced_to: 33
  - symbol: Sn # 41
    coordinates: [  0.447311057104495,  0.352458917593216,  0.329870725672389 ]
    mass: 118.710000
    reduced_to: 41
  - symbol: Sn # 42
    coordinates: [  0.947311057104495,  0.352458917593216,  0.329870725672389 ]
    mass: 118.710000
    reduced_to: 41
  - symbol: Sn # 43
    coordinates: [  0.447311057104495,  0.852458917593216,  0.329870725672389 ]
    mass: 118.710000
    reduced_to: 41
  - symbol: Sn # 44
    coordinates: [  0.947311057104495,  0.852458917593216,  0.329870725672389 ]
    mass: 118.710000
    reduced_to: 41
  - symbol: Sn # 45
    coordinates: [  0.447311057104495,  0.352458917593216,  0.829870725672389 ]
    mass: 118.710000
    reduced_to: 41
  - symbol: Sn # 46
    coordinates: [  0.947311057104495,  0.352458917593216,  0.829870725672389 ]
    mass: 118.710000
    reduced_to: 41
  - symbol: Sn # 47
    coordinates: [  0.447311057104495,  0.852458917593216,  0.829870725672389 ]
    mass: 118.710000
    reduced_to: 41
  - symbol: Sn # 48
    coordinates: [  0.947311057104495,  0.852458917593216,  0.829870725672389 ]
    mass: 118.710000
    reduced_to: 41
  - symbol: Sn # 49
    coordinates: [  0.447034865653881,  0.102515369441123,  0.079917997872575 ]
    mass: 118.710000
    reduced_to: 49
  - symbol: Sn # 50
    coordinates: [  0.947034865653881,  0.102515369441123,  0.079917997872575 ]
    mass: 118.710000
    reduced_to: 49
  - symbol: Sn # 51
    coordinates: [  0.447034865653881,  0.602515369441123,  0.079917997872575 ]
    mass: 118.710000
    reduced_to: 49
  - symbol: Sn # 52
    coordinates: [  0.947034865653881,  0.602515369441123,  0.079917997872575 ]
    mass: 118.710000
    reduced_to: 49
  - symbol: Sn # 53
    coordinates: [  0.447034865653881,  0.102515369441123,  0.579917997872575 ]
    mass: 118.710000
    reduced_to: 49
  - symbol: Sn # 54
    coordinates: [  0.947034865653881,  0.102515369441123,  0.579917997872575 ]
    mass: 118.710000
    reduced_to: 49
  - symbol: Sn # 55
    coordinates: [  0.447034865653881,  0.602515369441123,  0.579917997872575 ]
    mass: 118.710000
    reduced_to: 49
  - symbol: Sn # 56
    coordinates: [  0.947034865653881,  0.602515369441123,  0.579917997872575 ]
    mass: 118.710000
    reduced_to: 49
  - symbol: Sn # 57
    coordinates: [  0.197209891712543,  0.102747204433441,  0.079587565272879 ]
    mass: 118.710000
    reduced_to: 57
  - symbol: Sn # 58
    coordinates: [  0.697209891712543,  0.102747204433441,  0.079587565272879 ]
    mass: 118.710000
    reduced_to: 57
  - symbol: Sn # 59
    coordinates: [  0.197209891712543,  0.602747204433441,  0.079587565272879 ]
    mass: 118.710000
    reduced_to: 57
  - symbol: Sn # 60
    coordinates: [  0.697209891712543,  0.602747204433441,  0.079587565272879 ]
    mass: 118.710000
    reduced_to: 57
  - symbol: Sn # 61
    coordinates: [  0.197209891712543,  0.102747204433441,  0.579587565272879 ]
    mass: 118.710000
    reduced_to: 57
  - symbol: Sn # 62
    coordinates: [  0.697209891712543,  0.102747204433441,  0.579587565272879 ]
    mass: 118.710000
    reduced_to: 57
  - symbol: Sn # 63
    coordinates: [  0.197209891712543,  0.602747204433441,  0.579587565272879 ]
    mass: 118.710000
    reduced_to: 57
  - symbol: Sn # 64
    coordinates: [  0.697209891712543,  0.602747204433441,  0.579587565272879 ]
    mass: 118.710000
    reduced_to: 57

displacements:
- atom:    1
  displacement:
    [   0.0100000000000000,  0.0000000000000000,  0.0000000000000000 ]
  forces:
  - [  -0.0164820794016123,  0.0026417663320899,  0.0005001295357943 ]
  - [  -0.0029676919803023,  0.0004962703678757, -0.0017294359859079 ]
  - [  -0.0027981703169644, -0.0001186169683933, -0.0017673482652754 ]
  - [  -0.0030247368849814,  0.0017473315820098, -0.0015890528447926 ]
  - [  -0.0027823662385345,  0.0004218043759465, -0.0020787538960576 ]
  - [  -0.0029665366746485,  0.0008029667660594, -0.0011028014123440 ]
  - [  -0.0026874188333750,  0.0004818686284125, -0.0017413618043065 ]
  - [  -0.0025941273197532,  0.0005435864441097, -0.0017348900437355 ]
  - [   0.0000902153551579, -0.0032975990325212, -0.0000151860876940 ]
  - [  -0.0000186141623999, -0.0033084051683545, -0.0000159614719450 ]
  - [  -0.0024225646629930, -0.0031783955637366,  0.0000272531178780 ]
  - [  -0.0024291621521115, -0.0031937854364514,  0.0000259070075117 ]
  - [  -0.0022225314751267, -0.0031676730141044,  0.0000413842499256 ]
  - [  -0.0022231340408325, -0.0031692669726908,  0.0000377595424652 ]
  - [  -0.0023809855338186, -0.0032458654604852, -0.0000246493145823 ]
  - [  -0.0023807249963284, -0.0032456503249705, -0.0000249538570642 ]
  - [  -0.0043625952675939,  0.0023476397618651,  0.0018748189322650 ]
  - [  -0.0041923942044377,  0.0024014166556299,  0.0019832374528050 ]
  - [  -0.0042894445359707,  0.0023258235305548,  0.0019377558492124 ]
  - [  -0.0042253220453858,  0.0025322027504444,  0.0020672376267612 ]
  - [  -0.0042922226712108,  0.0023255571722984,  0.0019399961456656 ]
  - [  -0.0042228400707245,  0.0025270758196712,  0.0020589437335730 ]
  - [  -0.0043676849454641,  0.0023397714830935,  0.0019039090257138 ]
  - [  -0.0041914116591215,  0.0023988885805011,  0.0019917094614357 ]
  - [  -0.0000966284424067,  0.0010116612538695, -0.0030952384695411 ]
  - [  -0.0000114878494060,  0.0010828375816345, -0.0028147445991635 ]
  - [  -0.0000463565811515,  0.0011261156760156, -0.0027870428748429 ]
  - [  -0.0004569049924612,  0.0009771697223186, -0.0028658201918006 ]
  - [  -0.0004519456997514,  0.0009867954067886, -0.0028561758808792 ]
  - [  -0.0000454373657703,  0.0011285780929029, -0.0027852091006935 ]
  - [  -0.0000153901055455,  0.0010769115760922, -0.0028067762032151 ]
  - [  -0.0000942843034863,  0.0010055135935545, -0.0030945665203035 ]
  - [   0.0023696692660451,  0.0020160977728665,  0.0013378765434027 ]
  - [   0.0017916217911988,  0.0020810998976231,  0.0002650101669133 ]
  - [   0.0017146281898022,  0.0024475376121700, -0.0001227117609233 ]
  - [   0.0016673407517374,  0.0022818918805569,  0.0001343174371868 ]
  - [   0.0023506223224103,  0.0020092679187655,  0.0013019100297242 ]
  - [   0.0017910590395331,  0.0020819762721658,  0.0002643952902872 ]
  - [   0.0017163096927106,  0.0024497320409864, -0.0001259798591491 ]
  - [   0.0016675163060427,  0.0022836998105049,  0.0001339992450085 ]
  - [  -0.0009681351948529, -0.0006687548011541, -0.0004096301272511 ]
  - [   0.0003524037019815, -0.0010854564607143, -0.0029542902484536 ]
  - [  -0.0008694753050804, -0.0013478426262736,  0.0002994518727064 ]
  - [  -0.0009900671429932, -0.0010205665603280, -0.0001277513802052 ]
  - [   0.0003396160900593, -0.0010868164245039, -0.0029660062864423 ]
  - [  -0.0009619547054172, -0.0006677070632577, -0.0004136608913541 ]
  - [  -0.0009925083722919, -0.0010174601338804, -0.0001382195332553 ]
  - [  -0.0008685155189596, -0.0013468365650624,  0.0002976233954541 ]
  - [   0.0111524201929569, -0.0026083309203386, -0.0023502930998802 ]
  - [   0.0098770856857300,  0.0003080987953581, -0.0029838029295206 ]
  - [   0.0098739676177502,  0.0003097682783846, -0.0029857018962502 ]
  - [   0.0111829861998558, -0.0025318246334791, -0.0023596468381584 ]
  - [   0.0097826011478901,  0.0003841414581984, -0.0031273760832846 ]
  - [   0.0098512563854456,  0.0006127099622972, -0.0035147846210748 ]
  - [   0.0098502952605486,  0.0006152857677080, -0.0035195834934711 ]
  - [   0.0097811426967382,  0.0003830735804513, -0.0031278836540878 ]
  - [   0.0005154506070539, -0.0003872359229717,  0.0055595133453608 ]
  - [  -0.0010881591588259, -0.0025379015132785,  0.0056782760657370 ]
  - [   0.0005224980413914, -0.0003393283404876,  0.0055523784831166 ]
  - [  -0.0011047841981053, -0.0025371287483722,  0.0056793051771820 ]
  - [  -0.0010406868532300, -0.0024874494411051,  0.0058354726061225 ]
  - [  -0.0012869508937001, -0.0024542636238039,  0.0057927686721087 ]
  - [  -0.0010401929030195, -0.0024883868172765,  0.0058415802195668 ]
  - [  -0.0012860940769315, -0.0024553788825870,  0.0057933544740081 ]
- atom:    1
  displacement:
    [  -0.0100000000000000,  0.0000000000000000,  0.0000000000000000 ]
  forces:
  - [   0.0111896507441998, -0.0015725642442703, -0.0039573102258146 ]
  - [  -0.0023219492286444,  0.0005684577045031, -0.0017256094142795 ]
  - [  -0.0024901116266847,  0.0011850139126182, -0.0016887092497200 ]
  - [  -0.0022619240917265, -0.0006828485056758, -0.0018664002418518 ]
  - [  -0.0025082286447287,  0.0006472012028098, -0.0013774111866951 ]
  - [  -0.0023222602903843,  0.0002645235508680, -0.0023535648360848 ]
  - [  -0.0026023015379906,  0.0005860929377377, -0.0017154943197966 ]
  - [  -0.0026943208649755,  0.0005252622067928, -0.0017217304557562 ]
  - [  -0.0047251549549401, -0.0031536640599370, -0.0000182865187526 ]
  - [  -0.0047882283106446, -0.0031391475349665, -0.0000127432867885 ]
  - [  -0.0023008119314909, -0.0032664290629327, -0.0000588046386838 ]
  - [  -0.0022995276376605, -0.0032640527933836, -0.0000572196440771 ]
  - [  -0.0024999948218465, -0.0032797562889755, -0.0000719157978892 ]
  - [  -0.0025011142715812, -0.0032788107637316, -0.0000711968168616 ]
  - [  -0.0023436297196895, -0.0032018085476011, -0.0000066226348281 ]
  - [  -0.0023425407707691, -0.0032009659335017, -0.0000073798000813 ]
  - [  -0.0041898628696799,  0.0024807229638100,  0.0021126037463546 ]
  - [  -0.0043618939816952,  0.0024236394092441,  0.0020146332681179 ]
  - [  -0.0042612664401531,  0.0024981000460684,  0.0020694620907307 ]
  - [  -0.0043281223624945,  0.0022921087220311,  0.0019365279003978 ]
  - [  -0.0042652077972889,  0.0024969158694148,  0.0020751776173711 ]
  - [  -0.0043316748924553,  0.0022963257506490,  0.0019402850884944 ]
  - [  -0.0041884980164468,  0.0024775941856205,  0.0021152279805392 ]
  - [  -0.0043627219274640,  0.0024216081947088,  0.0020219394937158 ]
  - [  -0.0000827424228191,  0.0012005805037916, -0.0025727492757142 ]
  - [  -0.0001633826323086,  0.0011284174397588, -0.0028522871434689 ]
  - [  -0.0001324620097876,  0.0010805693455040, -0.0028743306174874 ]
  - [   0.0002740165218711,  0.0012227375991642, -0.0028056746814400 ]
  - [   0.0002792999148369,  0.0012267241254449, -0.0028001661412418 ]
  - [  -0.0001302808523178,  0.0010798359289765, -0.0028755059465766 ]
  - [  -0.0001639672555029,  0.0011251564137638, -0.0028527504764497 ]
  - [  -0.0000776797533035,  0.0011965092271566, -0.0025622094981372 ]
  - [   0.0009920517913997,  0.0023628028575331, -0.0008664047345519 ]
  - [   0.0015687136910856,  0.0022955685853958,  0.0002008988521993 ]
  - [   0.0016479413025081,  0.0019281478598714,  0.0005873979534954 ]
  - [   0.0016929566627368,  0.0020946443546563,  0.0003275491762906 ]
  - [   0.0010115394834429,  0.0023666787892580, -0.0008438162039965 ]
  - [   0.0015714721521363,  0.0022954649757594,  0.0001985194103327 ]
  - [   0.0016470344271511,  0.0019278979161754,  0.0005885535501875 ]
  - [   0.0016931991558522,  0.0020935423672199,  0.0003304614801891 ]
  - [  -0.0009388282196596, -0.0010656267404556, -0.0002194112166762 ]
  - [  -0.0022627590224147, -0.0006468091160059,  0.0023626964539289 ]
  - [  -0.0010430784896016, -0.0003923317417502, -0.0009103482589126 ]
  - [  -0.0009171431884170, -0.0007176389917731, -0.0004862686619163 ]
  - [  -0.0022464245557785, -0.0006503760814667,  0.0022997092455626 ]
  - [  -0.0009423466399312, -0.0010643219575286, -0.0002232966944575 ]
  - [  -0.0009165663504973, -0.0007165258284658, -0.0004961836384609 ]
  - [  -0.0010448198299855, -0.0003852771478705, -0.0009202350047417 ]
  - [   0.0084659866988659,  0.0031341845169663, -0.0037823300808668 ]
  - [   0.0097429770976305,  0.0002644788182806, -0.0031586620025337 ]
  - [   0.0097512342035770,  0.0002669925743248, -0.0031595774926245 ]
  - [   0.0084508657455444,  0.0031524682417512, -0.0037947397213429 ]
  - [   0.0098423510789871,  0.0001874467707239, -0.0030151547398418 ]
  - [   0.0097696464508772, -0.0000441818338004, -0.0026237326674163 ]
  - [   0.0097718127071857, -0.0000408875057474, -0.0026304472703487 ]
  - [   0.0098411366343498,  0.0001875131856650, -0.0030158087611198 ]
  - [  -0.0028482575435191, -0.0045034456998110,  0.0058884401805699 ]
  - [  -0.0012400131672621, -0.0023262077011168,  0.0057728243991733 ]
  - [  -0.0028483457863331, -0.0044931937009096,  0.0059006502851844 ]
  - [  -0.0012415293604136, -0.0023241606540978,  0.0057706665247679 ]
  - [  -0.0012890584766865, -0.0023760918993503,  0.0056101838126779 ]
  - [  -0.0010461332276464, -0.0024090665392578,  0.0056579615920782 ]
  - [  -0.0012894675601274, -0.0023749615065753,  0.0056123714894056 ]
  - [  -0.0010472163558006, -0.0024107596836984,  0.0056577417999506 ]
- atom:    1
  displacement:
    [   0.0050223868377932,  0.0086472903531431,  0.0000000000000000 ]
  forces:
  - [  -0.0077750165946782, -0.0158379245549440, -0.0019215587526560 ]
  - [  -0.0028382036834955,  0.0005177877610549, -0.0017375206807628 ]
  - [  -0.0032849325798452, -0.0009108311496675, -0.0018012491054833 ]
  - [  -0.0017840734217316, -0.0007444694638252, -0.0017918655648828 ]
  - [  -0.0028115371242166,  0.0004397141747177, -0.0021007703617215 ]
  - [  -0.0025733490474522,  0.0005812589079142, -0.0018368978053331 ]
  - [  -0.0027111368253827,  0.0004177321679890, -0.0016260021366179 ]
  - [  -0.0026109181344509,  0.0005765091627836, -0.0017330739647150 ]
  - [  -0.0010801190510392, -0.0029612369835377,  0.0001046606339514 ]
  - [  -0.0011001848615706, -0.0029664263129234,  0.0000979760661721 ]
  - [  -0.0024300413206220, -0.0034276354126632, -0.0000771751510911 ]
  - [  -0.0024263765662909, -0.0034308228641748, -0.0000775177613832 ]
  - [  -0.0023401770740747, -0.0032730628736317, -0.0001184316352010 ]
  - [  -0.0023400248028338, -0.0032736235298216, -0.0001182192936540 ]
  - [  -0.0023523534182459, -0.0031997086480260, -0.0000687967985868 ]
  - [  -0.0023519322276115, -0.0031982744112611, -0.0000675301998854 ]
  - [  -0.0044337869621813,  0.0031821159645915,  0.0011996761895716 ]
  - [  -0.0042500440031290,  0.0023950887843966,  0.0020125210285187 ]
  - [  -0.0043629305437207,  0.0022415132261813,  0.0017167683690786 ]
  - [  -0.0041656275279820,  0.0023129032924771,  0.0018725409172475 ]
  - [  -0.0043615633621812,  0.0022439947351813,  0.0017237777356058 ]
  - [  -0.0041684941388667,  0.0023099100217223,  0.0018711450975388 ]
  - [  -0.0044288188219070,  0.0031875097192824,  0.0011931045446545 ]
  - [  -0.0042498260736465,  0.0023918095976114,  0.0020199352875352 ]
  - [   0.0001494493335485,  0.0014195879921317, -0.0024708365090191 ]
  - [  -0.0000562786226510,  0.0014229882508516, -0.0025928136892617 ]
  - [  -0.0001099584624171,  0.0011379304341972, -0.0028609577566385 ]
  - [  -0.0002183318138123,  0.0014404808171093, -0.0022249594330788 ]
  - [  -0.0002116151154041,  0.0014613447710872, -0.0022110892459750 ]
  - [  -0.0001099351793528,  0.0011382848024368, -0.0028606238774955 ]
  - [  -0.0000666379928589,  0.0014218483120203, -0.0025807754136622 ]
  - [   0.0001520607620478,  0.0014144089072943, -0.0024708604905754 ]
  - [   0.0026271806564182,  0.0021265745162964,  0.0017657205462456 ]
  - [   0.0018142816843465,  0.0021770875900984,  0.0001784157939255 ]
  - [   0.0015942703466862,  0.0024728397838771, -0.0001192444469780 ]
  - [   0.0018059827852994,  0.0021168380044401,  0.0001937171909958 ]
  - [   0.0025999220088124,  0.0021326877176762,  0.0017177925910801 ]
  - [   0.0018111460376531,  0.0021776503417641,  0.0001786659995560 ]
  - [   0.0015932836104184,  0.0024748072028160, -0.0001217376993736 ]
  - [   0.0018074972322211,  0.0021175425499678,  0.0001957976346603 ]
  - [  -0.0009258243371733, -0.0006432700902224, -0.0005373209714890 ]
  - [  -0.0015978802694008, -0.0007952721789479,  0.0002299984917045 ]
  - [  -0.0008927742019296, -0.0007594441995025, -0.0003942260518670 ]
  - [  -0.0010843705385923, -0.0011312905699015, -0.0000950200483203 ]
  - [  -0.0016155615448952, -0.0007773148827255,  0.0002577817067504 ]
  - [  -0.0009211720898747, -0.0006438056007028, -0.0005382765084505 ]
  - [  -0.0010874152649194, -0.0011249920353293, -0.0001011292915791 ]
  - [  -0.0008921059779823, -0.0007589900633320, -0.0003959899186157 ]
  - [   0.0067223161458969,  0.0033301005605608, -0.0036911317147315 ]
  - [   0.0105915497988462,  0.0002686106890906, -0.0029898737557232 ]
  - [   0.0106166098266840,  0.0002713976136874, -0.0029900269582868 ]
  - [   0.0066678375005722,  0.0032934993505478, -0.0036810128949583 ]
  - [   0.0097673749551177,  0.0003211041912436, -0.0031925067305565 ]
  - [   0.0098743215203285,  0.0001826438965509, -0.0029849400743842 ]
  - [   0.0098749790340662,  0.0001800510945031, -0.0029823388904333 ]
  - [   0.0097654741257429,  0.0003188240225427, -0.0031940424814820 ]
  - [   0.0026886940468103,  0.0024680839851499,  0.0052301855757833 ]
  - [  -0.0018194979056716, -0.0024593276903033,  0.0057013109326363 ]
  - [   0.0028451792895794,  0.0026986871380359,  0.0051929373294115 ]
  - [  -0.0018235845491290, -0.0024605058133602,  0.0057004764676094 ]
  - [  -0.0011558011174202, -0.0025472028646618,  0.0058297533541918 ]
  - [  -0.0011971173807979, -0.0024554030969739,  0.0056703621521592 ]
  - [  -0.0011551440693438, -0.0025457940064371,  0.0058327745646238 ]
  - [  -0.0011969851329923, -0.0024570734240115,  0.0056705083698034 ]
- atom:    1
  displacement:
    [  -0.0050223868377932, -0.0086472903531431,  0.0000000000000000 ]
  forces:
  - [   0.0024815178476274,  0.0169070512056351, -0.0015342733822763 ]
  - [  -0.0024513443931937,  0.0005469541647471, -0.0017178317066282 ]
  - [  -0.0020032972097397,  0.0019773431122303, -0.0016547245904803 ]
  - [  -0.0035027780104429,  0.0018090112134814, -0.0016636145301163 ]
  - [  -0.0024789944291115,  0.0006291754543781, -0.0013553919270635 ]
  - [  -0.0027155596762896,  0.0004861550405622, -0.0016194307245314 ]
  - [  -0.0025783302262425,  0.0006501395255327, -0.0018308488652110 ]
  - [  -0.0026773614808917,  0.0004919916391373, -0.0017236918210983 ]
  - [  -0.0036311233416200, -0.0034866426140070, -0.0001320861629210 ]
  - [  -0.0036313934251666, -0.0034844838082790, -0.0001329742372036 ]
  - [  -0.0022942181676626, -0.0030204588547349,  0.0000452297390439 ]
  - [  -0.0023015271872282, -0.0030234372243285,  0.0000464100739919 ]
  - [  -0.0023832814767957, -0.0031747971661389,  0.0000847424380481 ]
  - [  -0.0023836283944547, -0.0031741634011269,  0.0000877734273672 ]
  - [  -0.0023722585756332, -0.0032482258975506,  0.0000370778143406 ]
  - [  -0.0023713884875178, -0.0032478109933436,  0.0000357758253813 ]
  - [  -0.0041166078299284,  0.0016300929710269,  0.0028052381239831 ]
  - [  -0.0043033910915256,  0.0024299658834934,  0.0019852616824210 ]
  - [  -0.0041920961812139,  0.0025801570154727,  0.0022861864417791 ]
  - [  -0.0043838326819241,  0.0025122798979282,  0.0021290695294738 ]
  - [  -0.0041917185299098,  0.0025808168575168,  0.0022957001347095 ]
  - [  -0.0043904855847359,  0.0025125173851848,  0.0021299165673554 ]
  - [  -0.0041286791674793,  0.0016462549101561,  0.0028083508368582 ]
  - [  -0.0043047964572906,  0.0024282801896334,  0.0019933867733926 ]
  - [  -0.0003315052017570,  0.0007909727282822, -0.0031952420249581 ]
  - [  -0.0001128283038270,  0.0007851701229811, -0.0030773156322539 ]
  - [  -0.0000688750296831,  0.0010693278163671, -0.0028001409955323 ]
  - [   0.0000341688282788,  0.0007554879412055, -0.0034486856311560 ]
  - [   0.0000409306958318,  0.0007556411437690, -0.0034437929280102 ]
  - [  -0.0000653923489153,  0.0010693562217057, -0.0028004306368530 ]
  - [  -0.0001185480505228,  0.0007834406569600, -0.0030754872132093 ]
  - [  -0.0003215186297894,  0.0007894178852439, -0.0031884140335023 ]
  - [   0.0007394157582894,  0.0022456662263721, -0.0012922040186822 ]
  - [   0.0015489386860281,  0.0021990537643433,  0.0002860608510673 ]
  - [   0.0017691977554932,  0.0019001075997949,  0.0005857059732080 ]
  - [   0.0015534604899585,  0.0022586621344090,  0.0002676285803318 ]
  - [   0.0007567977299914,  0.0022491882555187, -0.0012619302142411 ]
  - [   0.0015484874602407,  0.0022004484198987,  0.0002855376806110 ]
  - [   0.0017689830856398,  0.0019053358118981,  0.0005829446599819 ]
  - [   0.0015541292959824,  0.0022603217512369,  0.0002688591484912 ]
  - [  -0.0009805797599256, -0.0010905992239714, -0.0000946065410972 ]
  - [  -0.0002992223890033, -0.0009492263197899, -0.0008811876177788 ]
  - [  -0.0010211206972599, -0.0009784661233425, -0.0002200119197369 ]
  - [  -0.0008224169723690, -0.0006082272157073, -0.0005226293578744 ]
  - [  -0.0003041401505470, -0.0009471736848354, -0.0008655181154609 ]
  - [  -0.0009829951450229, -0.0010888976976275, -0.0000952305272222 ]
  - [  -0.0008224147022702, -0.0006072006653994, -0.0005299825570546 ]
  - [  -0.0010201861150563, -0.0009762115078047, -0.0002226582873845 ]