phonopy:
  version: "2.37.1"
  frequency_unit_conversion_factor: 15.633302
  symmetry_tolerance: 1.00000e-05

space_group:
  type: "P1"
  number: 1
  Hall_symbol: "P 1"

primitive_matrix:
- [  0.000000000000000, -1.000000000000000,  0.000000000000000 ]
- [  1.000000000000000,  0.000000000000000,  1.000000000000000 ]
- [  0.000000000000000,  0.000000000000000,  1.000000000000000 ]

supercell_matrix:
- [   3,   0,   0 ]
- [   0,   3,   0 ]
- [   0,   0,   1 ]

primitive_cell:
  lattice:
  - [    -0.000291482407139,     4.292352066343555,     0.000000000000000 ] # a
  - [    -4.403420825390933,     0.000000000000000,     0.000000000000000 ] # b
  - [    -2.198264866800999,     2.145310050394935,    10.783460808263928 ] # c
  points:
  - symbol: Li # 1
    coordinates: [  0.603071351268762,  0.104509209553776,  0.334768490967022 ]
    mass: 6.940000
  - symbol: Li # 2
    coordinates: [  0.368857031785368,  0.369530426605242,  0.805041751251771 ]
    mass: 6.940000
  - symbol: Li # 3
    coordinates: [  0.273455563508644,  0.773810824425620,  0.994527569361107 ]
    mass: 6.940000
  - symbol: Li # 4
    coordinates: [  0.963162862071040,  0.463959312848119,  0.615863592139978 ]
    mass: 6.940000
  - symbol: Li # 5
    coordinates: [  0.681715288131454,  0.682371798938930,  0.177500179296981 ]
    mass: 6.940000
  - symbol: Ga # 6
    coordinates: [  0.539506597347756,  0.540289169596222,  0.462703082806862 ]
    mass: 69.723000
  - symbol: Ga # 7
    coordinates: [  0.180574690125643,  0.181097138670648,  0.179997485315138 ]
    mass: 69.723000
  - symbol: Ga # 8
    coordinates: [  0.107070650756352,  0.607724122596598,  0.327258019062875 ]
    mass: 69.723000
  - symbol: Ga # 9
    coordinates: [  0.869569623137907,  0.869939389772846,  0.803203546827077 ]
    mass: 69.723000
  - symbol: Sn # 10
    coordinates: [  0.773034730436560,  0.273067286377693,  0.995806293701525 ]
    mass: 118.710000
  - symbol: Sn # 11
    coordinates: [  0.458729448793322,  0.959589027367986,  0.624463856139123 ]
    mass: 118.710000
  reciprocal_lattice: # without 2pi
  - [    -0.000000000000000,     0.232972501915914,    -0.046348594269740 ] # a*
  - [    -0.227096169013376,    -0.000015421507130,    -0.046291673395838 ] # b*
  - [    -0.000000000000000,     0.000000000000000,     0.092734606985695 ] # c*

unit_cell:
  lattice:
  - [     4.403420825390934,     0.000000000000000,     0.000000000000000 ] # a
  - [    -0.000291482407139,     4.292352066343555,     0.000000000000000 ] # b
  - [    -2.197973384393859,    -2.147042015948620,    10.783460808263928 ] # c
  points:
  - symbol: Li # 1
    coordinates: [  0.895490790446224,  0.937839842235784,  0.334768490967022 ]
    mass: 6.940000
    reduced_to: 1
  - symbol: Li # 2
    coordinates: [  0.630469573394758,  0.173898783037139,  0.805041751251771 ]
    mass: 6.940000
    reduced_to: 2
  - symbol: Li # 3
    coordinates: [  0.226189175574380,  0.267983132869751,  0.994527569361107 ]
    mass: 6.940000
    reduced_to: 3
  - symbol: Li # 4
    coordinates: [  0.536040687151881,  0.579026454211019,  0.615863592139978 ]
    mass: 6.940000
    reduced_to: 4
  - symbol: Li # 5
    coordinates: [  0.317628201061070,  0.859215467428435,  0.177500179296981 ]
    mass: 6.940000
    reduced_to: 5
  - symbol: Ga # 6
    coordinates: [  0.459710830403778,  0.002209680154618,  0.462703082806862 ]
    mass: 69.723000
    reduced_to: 6
  - symbol: Ga # 7
    coordinates: [  0.818902861329352,  0.360572175440781,  0.179997485315138 ]
    mass: 69.723000
    reduced_to: 7
  - symbol: Ga # 8
    coordinates: [  0.392275877403402,  0.434328669819227,  0.327258019062875 ]
    mass: 69.723000
    reduced_to: 8
  - symbol: Ga # 9
    coordinates: [  0.130060610227154,  0.672773169964984,  0.803203546827077 ]
    mass: 69.723000
    reduced_to: 9
  - symbol: Sn # 10
    coordinates: [  0.726932713622307,  0.768841024138086,  0.995806293701525 ]
    mass: 118.710000
    reduced_to: 10
  - symbol: Sn # 11
    coordinates: [  0.040410972632014,  0.083193304932445,  0.624463856139123 ]
    mass: 118.710000
    reduced_to: 11

supercell:
  lattice:
  - [    13.210262476172801,     0.000000000000000,     0.000000000000000 ] # a
  - [    -0.000874447221418,    12.877056199030665,     0.000000000000000 ] # b
  - [    -2.197973384393859,    -2.147042015948620,    10.783460808263928 ] # c
  points:
  - symbol: Li # 1
    coordinates: [  0.298496930148741,  0.312613280745261,  0.334768490967022 ]
    mass: 6.940000
    reduced_to: 1
  - symbol: Li # 2
    coordinates: [  0.631830263482075,  0.312613280745261,  0.334768490967022 ]
    mass: 6.940000
    reduced_to: 1
  - symbol: Li # 3
    coordinates: [  0.965163596815408,  0.312613280745261,  0.334768490967022 ]
    mass: 6.940000
    reduced_to: 1
  - symbol: Li # 4
    coordinates: [  0.298496930148741,  0.645946614078595,  0.334768490967022 ]
    mass: 6.940000
    reduced_to: 1
  - symbol: Li # 5
    coordinates: [  0.631830263482075,  0.645946614078595,  0.334768490967022 ]
    mass: 6.940000
    reduced_to: 1
  - symbol: Li # 6
    coordinates: [  0.965163596815408,  0.645946614078595,  0.334768490967022 ]
    mass: 6.940000
    reduced_to: 1
  - symbol: Li # 7
    coordinates: [  0.298496930148741,  0.979279947411928,  0.334768490967022 ]
    mass: 6.940000
    reduced_to: 1
  - symbol: Li # 8
    coordinates: [  0.631830263482075,  0.979279947411928,  0.334768490967022 ]
    mass: 6.940000
    reduced_to: 1
  - symbol: Li # 9
    coordinates: [  0.965163596815408,  0.979279947411928,  0.334768490967022 ]
    mass: 6.940000
    reduced_to: 1
  - symbol: Li # 10
    coordinates: [  0.210156524464919,  0.057966261012380,  0.805041751251771 ]
    mass: 6.940000
    reduced_to: 10
  - symbol: Li # 11
    coordinates: [  0.543489857798253,  0.057966261012380,  0.805041751251771 ]
    mass: 6.940000
    reduced_to: 10
  - symbol: Li # 12
    coordinates: [  0.876823191131586,  0.057966261012380,  0.805041751251771 ]
    mass: 6.940000
    reduced_to: 10
  - symbol: Li # 13
    coordinates: [  0.210156524464919,  0.391299594345713,  0.805041751251771 ]
    mass: 6.940000
    reduced_to: 10
  - symbol: Li # 14
    coordinates: [  0.543489857798253,  0.391299594345713,  0.805041751251771 ]
    mass: 6.940000
    reduced_to: 10
  - symbol: Li # 15
    coordinates: [  0.876823191131586,  0.391299594345713,  0.805041751251771 ]
    mass: 6.940000
    reduced_to: 10
  - symbol: Li # 16
    coordinates: [  0.210156524464919,  0.724632927679046,  0.805041751251771 ]
    mass: 6.940000
    reduced_to: 10
  - symbol: Li # 17
    coordinates: [  0.543489857798253,  0.724632927679046,  0.805041751251771 ]
    mass: 6.940000
    reduced_to: 10
  - symbol: Li # 18
    coordinates: [  0.876823191131586,  0.724632927679046,  0.805041751251771 ]
    mass: 6.940000
    reduced_to: 10
  - symbol: Li # 19
    coordinates: [  0.075396391858127,  0.089327710956584,  0.994527569361107 ]
    mass: 6.940000
    reduced_to: 19
  - symbol: Li # 20
    coordinates: [  0.408729725191460,  0.089327710956584,  0.994527569361107 ]
    mass: 6.940000
    reduced_to: 19
  - symbol: Li # 21
    coordinates: [  0.742063058524793,  0.089327710956584,  0.994527569361107 ]
    mass: 6.940000
    reduced_to: 19
  - symbol: Li # 22
    coordinates: [  0.075396391858127,  0.422661044289917,  0.994527569361107 ]
    mass: 6.940000
    reduced_to: 19
  - symbol: Li # 23
    coordinates: [  0.408729725191460,  0.422661044289917,  0.994527569361107 ]
    mass: 6.940000
    reduced_to: 19
  - symbol: Li # 24
    coordinates: [  0.742063058524793,  0.422661044289917,  0.994527569361107 ]
    mass: 6.940000
    reduced_to: 19
  - symbol: Li # 25
    coordinates: [  0.075396391858127,  0.755994377623250,  0.994527569361107 ]
    mass: 6.940000
    reduced_to: 19
  - symbol: Li # 26
    coordinates: [  0.408729725191460,  0.755994377623250,  0.994527569361107 ]
    mass: 6.940000
    reduced_to: 19
  - symbol: Li # 27
    coordinates: [  0.742063058524793,  0.755994377623250,  0.994527569361107 ]
    mass: 6.940000
    reduced_to: 19
  - symbol: Li # 28
    coordinates: [  0.178680229050627,  0.193008818070339,  0.615863592139978 ]
    mass: 6.940000
    reduced_to: 28
  - symbol: Li # 29
    coordinates: [  0.512013562383960,  0.193008818070339,  0.615863592139978 ]
    mass: 6.940000
    reduced_to: 28
  - symbol: Li # 30
    coordinates: [  0.845346895717294,  0.193008818070339,  0.615863592139978 ]
    mass: 6.940000
    reduced_to: 28
  - symbol: Li # 31
    coordinates: [  0.178680229050627,  0.526342151403673,  0.615863592139978 ]
    mass: 6.940000
    reduced_to: 28
  - symbol: Li # 32
    coordinates: [  0.512013562383960,  0.526342151403673,  0.615863592139978 ]
    mass: 6.940000
    reduced_to: 28
  - symbol: Li # 33
    coordinates: [  0.845346895717294,  0.526342151403673,  0.615863592139978 ]
    mass: 6.940000
    reduced_to: 28
  - symbol: Li # 34
    coordinates: [  0.178680229050627,  0.859675484737006,  0.615863592139978 ]
    mass: 6.940000
    reduced_to: 28
  - symbol: Li # 35
    coordinates: [  0.512013562383960,  0.859675484737006,  0.615863592139978 ]
    mass: 6.940000
    reduced_to: 28
  - symbol: Li # 36
    coordinates: [  0.845346895717294,  0.859675484737006,  0.615863592139978 ]
    mass: 6.940000
    reduced_to: 28
  - symbol: Li # 37
    coordinates: [  0.105876067020357,  0.286405155809478,  0.177500179296981 ]
    mass: 6.940000
    reduced_to: 37
  - symbol: Li # 38
    coordinates: [  0.439209400353690,  0.286405155809478,  0.177500179296981 ]
    mass: 6.940000
    reduced_to: 37
  - symbol: Li # 39
    coordinates: [  0.772542733687023,  0.286405155809478,  0.177500179296981 ]
    mass: 6.940000
    reduced_to: 37
  - symbol: Li # 40
    coordinates: [  0.105876067020357,  0.619738489142812,  0.177500179296981 ]
    mass: 6.940000
    reduced_to: 37
  - symbol: Li # 41
    coordinates: [  0.439209400353690,  0.619738489142812,  0.177500179296981 ]
    mass: 6.940000
    reduced_to: 37
  - symbol: Li # 42
    coordinates: [  0.772542733687023,  0.619738489142812,  0.177500179296981 ]
    mass: 6.940000
    reduced_to: 37
  - symbol: Li # 43
    coordinates: [  0.105876067020357,  0.953071822476145,  0.177500179296981 ]
    mass: 6.940000
    reduced_to: 37
  - symbol: Li # 44
    coordinates: [  0.439209400353690,  0.953071822476145,  0.177500179296981 ]
    mass: 6.940000
    reduced_to: 37
  - symbol: Li # 45
    coordinates: [  0.772542733687023,  0.953071822476145,  0.177500179296981 ]
    mass: 6.940000
    reduced_to: 37
  - symbol: Ga # 46
    coordinates: [  0.153236943467926,  0.000736560051539,  0.462703082806862 ]
    mass: 69.723000
    reduced_to: 46
  - symbol: Ga # 47
    coordinates: [  0.486570276801259,  0.000736560051539,  0.462703082806862 ]
    mass: 69.723000
    reduced_to: 46
  - symbol: Ga # 48
    coordinates: [  0.819903610134593,  0.000736560051539,  0.462703082806862 ]
    mass: 69.723000
    reduced_to: 46
  - symbol: Ga # 49
    coordinates: [  0.153236943467926,  0.334069893384873,  0.462703082806862 ]
    mass: 69.723000
    reduced_to: 46
  - symbol: Ga # 50
    coordinates: [  0.486570276801259,  0.334069893384873,  0.462703082806862 ]
    mass: 69.723000
    reduced_to: 46
  - symbol: Ga # 51
    coordinates: [  0.819903610134593,  0.334069893384873,  0.462703082806862 ]
    mass: 69.723000
    reduced_to: 46
  - symbol: Ga # 52
    coordinates: [  0.153236943467926,  0.667403226718206,  0.462703082806862 ]
    mass: 69.723000
    reduced_to: 46
  - symbol: Ga # 53
    coordinates: [  0.486570276801259,  0.667403226718206,  0.462703082806862 ]
    mass: 69.723000
    reduced_to: 46
  - symbol: Ga # 54
    coordinates: [  0.819903610134593,  0.667403226718206,  0.462703082806862 ]
    mass: 69.723000
    reduced_to: 46
  - symbol: Ga # 55
    coordinates: [  0.272967620443117,  0.120190725146927,  0.179997485315138 ]
    mass: 69.723000
    reduced_to: 55
  - symbol: Ga # 56
    coordinates: [  0.606300953776451,  0.120190725146927,  0.179997485315138 ]
    mass: 69.723000
    reduced_to: 55
  - symbol: Ga # 57
    coordinates: [  0.939634287109784,  0.120190725146927,  0.179997485315138 ]
    mass: 69.723000
    reduced_to: 55
  - symbol: Ga # 58
    coordinates: [  0.272967620443117,  0.453524058480260,  0.179997485315138 ]
    mass: 69.723000
    reduced_to: 55
  - symbol: Ga # 59
    coordinates: [  0.606300953776451,  0.453524058480260,  0.179997485315138 ]
    mass: 69.723000
    reduced_to: 55
  - symbol: Ga # 60
    coordinates: [  0.939634287109784,  0.453524058480260,  0.179997485315138 ]
    mass: 69.723000
    reduced_to: 55
  - symbol: Ga # 61
    coordinates: [  0.272967620443117,  0.786857391813593,  0.179997485315138 ]
    mass: 69.723000
    reduced_to: 55
  - symbol: Ga # 62
    coordinates: [  0.606300953776451,  0.786857391813593,  0.179997485315138 ]
    mass: 69.723000
    reduced_to: 55
  - symbol: Ga # 63
    coordinates: [  0.939634287109784,  0.786857391813593,  0.179997485315138 ]
    mass: 69.723000
    reduced_to: 55
  - symbol: Ga # 64
    coordinates: [  0.130758625801134,  0.144776223273076,  0.327258019062875 ]
    mass: 69.723000
    reduced_to: 64
  - symbol: Ga # 65
    coordinates: [  0.464091959134467,  0.144776223273076,  0.327258019062875 ]
    mass: 69.723000
    reduced_to: 64
  - symbol: Ga # 66
    coordinates: [  0.797425292467801,  0.144776223273076,  0.327258019062875 ]
    mass: 69.723000
    reduced_to: 64
  - symbol: Ga # 67
    coordinates: [  0.130758625801134,  0.478109556606409,  0.327258019062875 ]
    mass: 69.723000
    reduced_to: 64
  - symbol: Ga # 68
    coordinates: [  0.464091959134467,  0.478109556606409,  0.327258019062875 ]
    mass: 69.723000
    reduced_to: 64
  - symbol: Ga # 69
    coordinates: [  0.797425292467801,  0.478109556606409,  0.327258019062875 ]
    mass: 69.723000
    reduced_to: 64
  - symbol: Ga # 70
    coordinates: [  0.130758625801134,  0.811442889939742,  0.327258019062875 ]
    mass: 69.723000
    reduced_to: 64
  - symbol: Ga # 71
    coordinates: [  0.464091959134467,  0.811442889939742,  0.327258019062875 ]
    mass: 69.723000
    reduced_to: 64
  - symbol: Ga # 72
    coordinates: [  0.797425292467801,  0.811442889939742,  0.327258019062875 ]
    mass: 69.723000
    reduced_to: 64
  - symbol: Ga # 73
    coordinates: [  0.043353536742385,  0.224257723321661,  0.803203546827077 ]
    mass: 69.723000
    reduced_to: 73
  - symbol: Ga # 74
    coordinates: [  0.376686870075718,  0.224257723321661,  0.803203546827077 ]
    mass: 69.723000
    reduced_to: 73
  - symbol: Ga # 75
    coordinates: [  0.710020203409051,  0.224257723321661,  0.803203546827077 ]
    mass: 69.723000
    reduced_to: 73
  - symbol: Ga # 76
    coordinates: [  0.043353536742385,  0.557591056654995,  0.803203546827077 ]
    mass: 69.723000
    reduced_to: 73
  - symbol: Ga # 77
    coordinates: [  0.376686870075718,  0.557591056654995,  0.803203546827077 ]
    mass: 69.723000
    reduced_to: 73
  - symbol: Ga # 78
    coordinates: [  0.710020203409051,  0.557591056654995,  0.803203546827077 ]
    mass: 69.723000
    reduced_to: 73
  - symbol: Ga # 79
    coordinates: [  0.043353536742385,  0.890924389988328,  0.803203546827077 ]
    mass: 69.723000
    reduced_to: 73
  - symbol: Ga # 80
    coordinates: [  0.376686870075718,  0.890924389988328,  0.803203546827077 ]
    mass: 69.723000
    reduced_to: 73
  - symbol: Ga # 81
    coordinates: [  0.710020203409051,  0.890924389988328,  0.803203546827077 ]
    mass: 69.723000
    reduced_to: 73
  - symbol: Sn # 82
    coordinates: [  0.242310904540769,  0.256280341379362,  0.995806293701525 ]
    mass: 118.710000
    reduced_to: 82
  - symbol: Sn # 83
    coordinates: [  0.575644237874102,  0.256280341379362,  0.995806293701525 ]
    mass: 118.710000
    reduced_to: 82
  - symbol: Sn # 84
    coordinates: [  0.908977571207436,  0.256280341379362,  0.995806293701525 ]
    mass: 118.710000
    reduced_to: 82
  - symbol: Sn # 85
    coordinates: [  0.242310904540769,  0.589613674712695,  0.995806293701525 ]
    mass: 118.710000
    reduced_to: 82
  - symbol: Sn # 86
    coordinates: [  0.575644237874102,  0.589613674712695,  0.995806293701525 ]
    mass: 118.710000
    reduced_to: 82
  - symbol: Sn # 87
    coordinates: [  0.908977571207436,  0.589613674712695,  0.995806293701525 ]
    mass: 118.710000
    reduced_to: 82
  - symbol: Sn # 88
    coordinates: [  0.242310904540769,  0.922947008046028,  0.995806293701525 ]
    mass: 118.710000
    reduced_to: 82
  - symbol: Sn # 89
    coordinates: [  0.575644237874102,  0.922947008046028,  0.995806293701525 ]
    mass: 118.710000
    reduced_to: 82
  - symbol: Sn # 90
    coordinates: [  0.908977571207436,  0.922947008046028,  0.995806293701525 ]
    mass: 118.710000
    reduced_to: 82
  - symbol: Sn # 91
    coordinates: [  0.013470324210671,  0.027731101644148,  0.624463856139123 ]
    mass: 118.710000
    reduced_to: 91
  - symbol: Sn # 92
    coordinates: [  0.346803657544005,  0.027731101644148,  0.624463856139123 ]
    mass: 118.710000
    reduced_to: 91
  - symbol: Sn # 93
    coordinates: [  0.680136990877338,  0.027731101644148,  0.624463856139123 ]
    mass: 118.710000
    reduced_to: 91
  - symbol: Sn # 94
    coordinates: [  0.013470324210671,  0.361064434977482,  0.624463856139123 ]
    mass: 118.710000
    reduced_to: 91
  - symbol: Sn # 95
    coordinates: [  0.346803657544005,  0.361064434977482,  0.624463856139123 ]
    mass: 118.710000
    reduced_to: 91
  - symbol: Sn # 96
    coordinates: [  0.680136990877338,  0.361064434977482,  0.624463856139123 ]
    mass: 118.710000
    reduced_to: 91
  - symbol: Sn # 97
    coordinates: [  0.013470324210671,  0.694397768310815,  0.624463856139123 ]
    mass: 118.710000
    reduced_to: 91
  - symbol: Sn # 98
    coordinates: [  0.346803657544005,  0.694397768310815,  0.624463856139123 ]
    mass: 118.710000
    reduced_to: 91
  - symbol: Sn # 99
    coordinates: [  0.680136990877338,  0.694397768310815,  0.624463856139123 ]
    mass: 118.710000
    reduced_to: 91

displacements:
- atom:    1
  displacement:
    [   0.0100000000000000,  0.0000000000000000,  0.0000000000000000 ]
  forces:
  - [  -0.0301672164350748,  0.0003058874863200,  0.0593890771269798 ]
  - [   0.0079764649271965,  0.0003087760997005,  0.0591993108391762 ]
  - [   0.0079458812251687,  0.0003094132698607,  0.0599187538027763 ]
  - [   0.0065013123676181,  0.0003069973317906,  0.0595654249191284 ]
  - [   0.0064389281906188,  0.0002012886834564,  0.0595678612589836 ]
  - [   0.0064391242340207,  0.0004138248041272,  0.0595614239573479 ]
  - [   0.0065012071281672,  0.0003120329347439,  0.0595651492476463 ]
  - [   0.0064390925690532,  0.0004164872807451,  0.0595693960785866 ]
  - [   0.0064359288662672,  0.0002046649315162,  0.0595627427101135 ]
  - [   0.0032040644437075, -0.0021232252474874,  0.0755330696702003 ]
  - [   0.0032054707407951, -0.0020809455309063,  0.0755722150206566 ]
  - [   0.0031677465885878, -0.0021362451370806,  0.0755203515291214 ]
  - [   0.0027946475893259, -0.0021126326173544,  0.0757713466882706 ]
  - [   0.0027994532138109, -0.0021366723813117,  0.0753374844789505 ]
  - [   0.0034857867285609, -0.0020904275588691,  0.0755225345492363 ]
  - [   0.0032049044966698, -0.0021056775003672,  0.0755323693156242 ]
  - [   0.0032041221857071, -0.0021237586624920,  0.0755597501993179 ]
  - [   0.0031676385551691, -0.0021150619722903,  0.0755315721035004 ]
  - [  -0.0009997226297855,  0.0006991950795054, -0.0101669896394014 ]
  - [  -0.0010007987730205,  0.0009767059236765, -0.0099199889227748 ]
  - [  -0.0011709113605320,  0.0008644721237943, -0.0100702550262213 ]
  - [  -0.0010001775808632,  0.0009763465495780, -0.0101430146023631 ]
  - [  -0.0009991071419790,  0.0007169070886448, -0.0099194012582302 ]
  - [  -0.0011732015991583,  0.0008462172700092, -0.0100918151438236 ]
  - [  -0.0010580460075289,  0.0008643227629364, -0.0100442608818412 ]
  - [  -0.0010599613888189,  0.0008468650630675, -0.0100424857810140 ]
  - [  -0.0010774001711980,  0.0008292865823023, -0.0100696515291929 ]
  - [   0.0006626825779676, -0.0008455812931061, -0.0495159402489662 ]
  - [   0.0006531765684485, -0.0020272461697459, -0.0482664816081524 ]
  - [   0.0003000283613801, -0.0014334022998810, -0.0488909743726254 ]
  - [   0.0006569544784725, -0.0020202919840813, -0.0495178997516632 ]
  - [   0.0006573861464858, -0.0008323509246111, -0.0482627414166927 ]
  - [   0.0003021080046892, -0.0014291768893600, -0.0488932952284813 ]
  - [   0.0002388400025666, -0.0014317883178592, -0.0488442555069923 ]
  - [   0.0002390854060650, -0.0014320025220513, -0.0489445403218269 ]
  - [   0.0002263411879539, -0.0014326311647892, -0.0488939918577671 ]
  - [   0.0016456171870232,  0.0016065093223006, -0.0304053723812103 ]
  - [   0.0016809254884720,  0.0016029597027227, -0.0380333997309208 ]
  - [  -0.0024901656433940,  0.0016037707682699, -0.0342025570571423 ]
  - [  -0.0024692015722394,  0.0014093323843554, -0.0340388938784599 ]
  - [  -0.0024701450020075,  0.0017980171833187, -0.0343645587563515 ]
  - [  -0.0024589793756604,  0.0016041919589043, -0.0342045575380325 ]
  - [  -0.0024683633819222,  0.0017994345398620, -0.0340400412678719 ]
  - [  -0.0024697156623006,  0.0014086060691625, -0.0343644134700298 ]
  - [  -0.0024580955505371,  0.0016042379429564, -0.0342015437781811 ]
  - [  -0.0036726715043187, -0.0003456391568761,  0.0382476896047592 ]
  - [  -0.0036768955178559,  0.0006524131167680,  0.0381825417280197 ]
  - [  -0.0034854875411838,  0.0001519231882412,  0.0382134616374969 ]
  - [   0.0085551785305142,  0.0001461908977944,  0.0290997922420502 ]
  - [   0.0087808109819889,  0.0001588581508258,  0.0475114360451698 ]
  - [  -0.0035005738027394,  0.0001523931423435,  0.0382114350795746 ]
  - [  -0.0036753457970917,  0.0006495868437923,  0.0382469296455383 ]
  - [  -0.0036776291672140, -0.0003464806359261,  0.0381854623556137 ]
  - [  -0.0034853601828218,  0.0001539342920296,  0.0382164716720581 ]
  - [  -0.0012566485675052,  0.0022442936897278, -0.1617931127548218 ]
  - [  -0.0010507237166166,  0.0023828670382500, -0.1615283191204071 ]
  - [  -0.0010476992465556,  0.0020863842219114, -0.1621023118495941 ]
  - [  -0.0012561832554638,  0.0022166743874550, -0.1617906391620636 ]
  - [  -0.0010508822742850,  0.0020848792046309, -0.1615316569805145 ]
  - [  -0.0010439178440720,  0.0023781917989254, -0.1621018499135971 ]
  - [  -0.0007346013444476,  0.0022349506616592, -0.1618118286132812 ]
  - [  -0.0007123767281882,  0.0022284407168627, -0.1618265658617020 ]
  - [  -0.0007110805599950,  0.0022315345704556, -0.1618054658174515 ]
  - [   0.0006452240631916,  0.0005665823118761,  0.2020606100559235 ]
  - [   0.0006584657821804, -0.0011256991419941,  0.2016730904579163 ]
  - [  -0.0009002452134155, -0.0002700700424612,  0.2018698155879974 ]
  - [   0.0006300842505880, -0.0010958248749375,  0.2020576298236847 ]
  - [   0.0006461163866334,  0.0005727335228585,  0.2016727179288864 ]
  - [  -0.0009014160023071, -0.0002730516716838,  0.2018695920705795 ]
  - [  -0.0006938806036487, -0.0002688252134249,  0.2018507719039917 ]
  - [  -0.0006955068092793, -0.0002684404025786,  0.2018846273422241 ]
  - [  -0.0007040319032967, -0.0002685330691747,  0.2018692046403885 ]
  - [   0.0009356635855511, -0.0015708007849753,  0.0993218347430229 ]
  - [   0.0010348667856306, -0.0017449330771342,  0.0995261818170547 ]
  - [   0.0009084080811590, -0.0019176026107743,  0.0996053963899612 ]
  - [   0.0009327629813924, -0.0019173678010702,  0.0993682146072388 ]
  - [   0.0010287715122104, -0.0017411787994206,  0.0994809567928314 ]
  - [   0.0009327267762274, -0.0015699984505773,  0.0996043011546135 ]
  - [   0.0009364119614474, -0.0017426111735404,  0.0994904637336731 ]
  - [   0.0009382916032337, -0.0017450819723308,  0.0994788706302643 ]
  - [   0.0009344324935228, -0.0017435306217521,  0.0994804650545120 ]
  - [  -0.0031410511583090, -0.0014151385985315, -0.0696636438369751 ]
  - [  -0.0031273486092687, -0.0014307093806565, -0.0696747452020645 ]
  - [  -0.0031274743378162, -0.0014242329634726, -0.0695778727531433 ]
  - [  -0.0031091626733541, -0.0014304346404970, -0.0696691051125526 ]
  - [  -0.0032460233196616, -0.0014167157933116, -0.0695848241448402 ]
  - [  -0.0032457956112921, -0.0014226874336600, -0.0696668028831482 ]
  - [  -0.0031108614057302, -0.0014249049127102, -0.0696392953395844 ]
  - [  -0.0032487157732248, -0.0014222073368728, -0.0696146190166473 ]
  - [  -0.0032443460077047, -0.0014239121228456, -0.0696664527058601 ]
  - [   0.0008810731815174,  0.0017824291717261, -0.1500174850225449 ]
  - [   0.0009870397625491,  0.0018374004866928, -0.1500745564699173 ]
  - [   0.0008750619599596,  0.0018981480970979, -0.1501231044530869 ]
  - [  -0.0012186627136543,  0.0018353033810854, -0.1481013000011444 ]
  - [   0.0018220198107883,  0.0018407041206956, -0.1500841975212097 ]
  - [  -0.0012360262917355,  0.0018401928246021, -0.1520449668169022 ]
  - [   0.0008781489450485,  0.0018971618264914, -0.1500206738710403 ]
  - [   0.0009840046986938,  0.0018372209742665, -0.1500689983367920 ]
  - [   0.0008793612942100,  0.0017775716260076, -0.1501220166683197 ]
- atom:    1
  displacement:
    [  -0.0100000000000000,  0.0000000000000000,  0.0000000000000000 ]
  forces:
  - [   0.0430127382278442,  0.0003116159350611,  0.0592750608921051 ]
  - [   0.0048963981680572,  0.0003095950814895,  0.0599194653332233 ]
  - [   0.0048658121377230,  0.0003080948663410,  0.0591997690498829 ]
  - [   0.0063418243080378,  0.0003036234993488,  0.0595644190907478 ]
  - [   0.0064031672663987,  0.0004144354898017,  0.0595615878701210 ]
  - [   0.0064029823988676,  0.0002026035799645,  0.0595688335597515 ]
  - [   0.0063416296616197,  0.0003147716925014,  0.0595660135149956 ]
  - [   0.0064034759998322,  0.0002046400768450,  0.0595616921782494 ]
  - [   0.0064000636339188,  0.0004164963029325,  0.0595692023634911 ]
  - [   0.0031805299222469, -0.0021040844731033,  0.0755497738718987 ]
  - [   0.0031785592436790, -0.0021457681432366,  0.0755112469196320 ]
  - [   0.0032142391428351, -0.0020896955393255,  0.0755634158849716 ]
  - [   0.0035871164873242, -0.0021128414664418,  0.0753188505768776 ]
  - [   0.0035886131227016, -0.0020904261618853,  0.0757538676261902 ]
  - [   0.0028984714299440, -0.0021365468855947,  0.0755663439631462 ]
  - [   0.0031792670488358, -0.0021250091958791,  0.0755497887730598 ]
  - [   0.0031803268939257, -0.0021057061385363,  0.0755218490958214 ]
  - [   0.0032171178609133, -0.0021150163374841,  0.0755509585142136 ]
  - [  -0.0011311643756926,  0.0009960981551558, -0.0099346600472927 ]
  - [  -0.0011293535353616,  0.0007188306190073, -0.0101814791560173 ]
  - [  -0.0009591643465683,  0.0008291407721117, -0.0100352969020605 ]
  - [  -0.0011307634413242,  0.0007151932222769, -0.0099564772099257 ]
  - [  -0.0011313160648569,  0.0009743857081048, -0.0101789515465498 ]
  - [  -0.0009585403604433,  0.0008463818812743, -0.0100122839212418 ]
  - [  -0.0010718191042542,  0.0008290272089653, -0.0100604323670268 ]
  - [  -0.0010711828945205,  0.0008469800231978, -0.0100621152669191 ]
  - [  -0.0010526000987738,  0.0008645623456687, -0.0100345145910978 ]
  - [  -0.0001935609616339, -0.0020323870703578, -0.0482591763138771 ]
  - [  -0.0001838677562773, -0.0008497405797243, -0.0495088919997215 ]
  - [   0.0001703803427517, -0.0014346940442920, -0.0488958582282066 ]
  - [  -0.0001877909526229, -0.0008272593840957, -0.0482571944594383 ]
  - [  -0.0001872181892395, -0.0020158300176263, -0.0495127476751804 ]
  - [   0.0001661637797952, -0.0014290697872639, -0.0488939359784126 ]
  - [   0.0002306951209903, -0.0014324886724353, -0.0489433407783508 ]
  - [   0.0002298047766089, -0.0014324784278870, -0.0488434061408043 ]
  - [   0.0002437988296151, -0.0014316672459245, -0.0488949753344059 ]
  - [  -0.0066499998793006,  0.0016018270980567, -0.0380783714354038 ]
  - [  -0.0065407417714596,  0.0016058519249782, -0.0304486826062202 ]
  - [  -0.0024434411898255,  0.0016047889366746, -0.0341980010271072 ]
  - [  -0.0024623880162835,  0.0017970354529098, -0.0343650765717030 ]
  - [  -0.0024629859253764,  0.0014087811578065, -0.0340387001633644 ]
  - [  -0.0024737110361457,  0.0016033010324463, -0.0342006050050259 ]
  - [  -0.0024624904617667,  0.0014087627641857, -0.0343629159033298 ]
  - [  -0.0024633165448904,  0.0018008039332926, -0.0340381152927876 ]
  - [  -0.0024729538708925,  0.0016042195493355, -0.0342017114162445 ]
  - [  -0.0033614248968661,  0.0006550129619427,  0.0381824895739555 ]
  - [  -0.0033653944265097, -0.0003424236201681,  0.0382452532649040 ]
  - [  -0.0035508251748979,  0.0001521135855000,  0.0382146388292313 ]
  - [  -0.0159200653433800,  0.0001586515281815,  0.0475791394710541 ]
  - [  -0.0154953459277749,  0.0001465536188334,  0.0291651561856270 ]
  - [  -0.0035408088006079,  0.0001523141108919,  0.0382065773010254 ]
  - [  -0.0033601843751967, -0.0003502721374389,  0.0381850525736809 ]
  - [  -0.0033654505386949,  0.0006471475353464,  0.0382461696863174 ]
  - [  -0.0035516815260053,  0.0001536343188491,  0.0382157787680626 ]
  - [  -0.0001830063119996,  0.0022819824516773, -0.1617648899555206 ]
  - [  -0.0003882177988999,  0.0020808950066566, -0.1620994210243225 ]
  - [  -0.0003912278334610,  0.0023781042546034, -0.1615254431962967 ]
  - [  -0.0001837980526034,  0.0021859593689442, -0.1617685109376907 ]
  - [  -0.0003881304583047,  0.0023794174194336, -0.1620961129665375 ]
  - [  -0.0003960400936194,  0.0020867995917797, -0.1615266352891922 ]
  - [  -0.0007036820170470,  0.0022281873971224, -0.1618174612522125 ]
  - [  -0.0007267170585692,  0.0022351872175932, -0.1618031263351440 ]
  - [  -0.0007275631069206,  0.0022313725203276, -0.1618237048387527 ]
  - [  -0.0020749245304614, -0.0011375450994819,  0.2016675770282745 ]
  - [  -0.0020189785864204,  0.0005536761600524,  0.2020548731088638 ]