phonopy:
  version: "2.37.1"
  frequency_unit_conversion_factor: 15.633302
  symmetry_tolerance: 1.00000e-05

space_group:
  type: "P1"
  number: 1
  Hall_symbol: "P 1"

primitive_matrix:
- [ -1.000000000000000,  1.000000000000000,  0.000000000000000 ]
- [ -1.000000000000000,  0.000000000000000, -0.000000000000000 ]
- [  0.000000000000000,  0.000000000000000,  1.000000000000000 ]

supercell_matrix:
- [   3,   0,   0 ]
- [   0,   3,   0 ]
- [   0,   0,   2 ]

primitive_cell:
  lattice:
  - [    -2.261297822763174,    -3.918772270517037,     0.000000000000000 ] # a
  - [     4.524800254104048,     0.000000000000000,     0.000000000000000 ] # b
  - [    -0.000333776506281,     0.000870286195339,     7.411898035856371 ] # c
  points:
  - symbol: Li # 1
    coordinates: [  0.970297238903019,  0.594567363039259,  0.784746243333922 ]
    mass: 6.940000
  - symbol: Li # 2
    coordinates: [  0.970884526100521,  0.594855079213353,  0.284750074385919 ]
    mass: 6.940000
  - symbol: Ga # 3
    coordinates: [  0.637473707015411,  0.928246998147732,  0.146424930058893 ]
    mass: 69.723000
  - symbol: Ga # 4
    coordinates: [  0.303773773468743,  0.261260816634692,  0.646309346760997 ]
    mass: 69.723000
  - symbol: Sn # 5
    coordinates: [  0.304025264878237,  0.261485451528285,  0.027007941288083 ]
    mass: 118.710000
  - symbol: Sn # 6
    coordinates: [  0.637139537718237,  0.927915011037518,  0.526905491842681 ]
    mass: 118.710000
  reciprocal_lattice: # without 2pi
  - [     0.000000000000000,    -0.255181962862073,     0.000029962816340 ] # a*
  - [     0.221004230870299,    -0.127528815554909,     0.000024926488039 ] # b*
  - [     0.000000000000000,    -0.000000000000000,     0.134918207881749 ] # c*

unit_cell:
  lattice:
  - [     4.524800254104048,     0.000000000000000,     0.000000000000000 ] # a
  - [    -2.263502431340874,     3.918772270517037,     0.000000000000000 ] # b
  - [    -0.000333776506281,     0.000870286195339,     7.411898035856371 ] # c
  points:
  - symbol: Li # 1
    coordinates: [  0.624270124136239,  0.029702761096981,  0.784746243333922 ]
    mass: 6.940000
    reduced_to: 1
  - symbol: Li # 2
    coordinates: [  0.623970553112833,  0.029115473899479,  0.284750074385919 ]
    mass: 6.940000
    reduced_to: 2
  - symbol: Ga # 3
    coordinates: [  0.290773291132322,  0.362526292984589,  0.146424930058893 ]
    mass: 69.723000
    reduced_to: 3
  - symbol: Ga # 4
    coordinates: [  0.957487043165949,  0.696226226531257,  0.646309346760997 ]
    mass: 69.723000
    reduced_to: 4
  - symbol: Sn # 5
    coordinates: [  0.957460186650048,  0.695974735121763,  0.027007941288083 ]
    mass: 118.710000
    reduced_to: 5
  - symbol: Sn # 6
    coordinates: [  0.290775473319281,  0.362860462281763,  0.526905491842681 ]
    mass: 118.710000
    reduced_to: 6

supercell:
  lattice:
  - [    13.574400762312145,     0.000000000000000,     0.000000000000000 ] # a
  - [    -6.790507294022621,    11.756316811551111,     0.000000000000000 ] # b
  - [    -0.000667553012563,     0.001740572390678,    14.823796071712742 ] # c
  points:
  - symbol: Li # 1
    coordinates: [  0.208090041378746,  0.009900920365660,  0.392373121666961 ]
    mass: 6.940000
    reduced_to: 1
  - symbol: Li # 2
    coordinates: [  0.541423374712080,  0.009900920365660,  0.392373121666961 ]
    mass: 6.940000
    reduced_to: 1
  - symbol: Li # 3
    coordinates: [  0.874756708045413,  0.009900920365660,  0.392373121666961 ]
    mass: 6.940000
    reduced_to: 1
  - symbol: Li # 4
    coordinates: [  0.208090041378746,  0.343234253698994,  0.392373121666961 ]
    mass: 6.940000
    reduced_to: 1
  - symbol: Li # 5
    coordinates: [  0.541423374712080,  0.343234253698994,  0.392373121666961 ]
    mass: 6.940000
    reduced_to: 1
  - symbol: Li # 6
    coordinates: [  0.874756708045413,  0.343234253698994,  0.392373121666961 ]
    mass: 6.940000
    reduced_to: 1
  - symbol: Li # 7
    coordinates: [  0.208090041378746,  0.676567587032327,  0.392373121666961 ]
    mass: 6.940000
    reduced_to: 1
  - symbol: Li # 8
    coordinates: [  0.541423374712080,  0.676567587032327,  0.392373121666961 ]
    mass: 6.940000
    reduced_to: 1
  - symbol: Li # 9
    coordinates: [  0.874756708045413,  0.676567587032327,  0.392373121666961 ]
    mass: 6.940000
    reduced_to: 1
  - symbol: Li # 10
    coordinates: [  0.208090041378746,  0.009900920365660,  0.892373121666961 ]
    mass: 6.940000
    reduced_to: 1
  - symbol: Li # 11
    coordinates: [  0.541423374712080,  0.009900920365660,  0.892373121666961 ]
    mass: 6.940000
    reduced_to: 1
  - symbol: Li # 12
    coordinates: [  0.874756708045413,  0.009900920365660,  0.892373121666961 ]
    mass: 6.940000
    reduced_to: 1
  - symbol: Li # 13
    coordinates: [  0.208090041378746,  0.343234253698994,  0.892373121666961 ]
    mass: 6.940000
    reduced_to: 1
  - symbol: Li # 14
    coordinates: [  0.541423374712080,  0.343234253698994,  0.892373121666961 ]
    mass: 6.940000
    reduced_to: 1
  - symbol: Li # 15
    coordinates: [  0.874756708045413,  0.343234253698994,  0.892373121666961 ]
    mass: 6.940000
    reduced_to: 1
  - symbol: Li # 16
    coordinates: [  0.208090041378746,  0.676567587032327,  0.892373121666961 ]
    mass: 6.940000
    reduced_to: 1
  - symbol: Li # 17
    coordinates: [  0.541423374712080,  0.676567587032327,  0.892373121666961 ]
    mass: 6.940000
    reduced_to: 1
  - symbol: Li # 18
    coordinates: [  0.874756708045413,  0.676567587032327,  0.892373121666961 ]
    mass: 6.940000
    reduced_to: 1
  - symbol: Li # 19
    coordinates: [  0.207990184370944,  0.009705157966493,  0.142375037192959 ]
    mass: 6.940000
    reduced_to: 19
  - symbol: Li # 20
    coordinates: [  0.541323517704278,  0.009705157966493,  0.142375037192959 ]
    mass: 6.940000
    reduced_to: 19
  - symbol: Li # 21
    coordinates: [  0.874656851037611,  0.009705157966493,  0.142375037192959 ]
    mass: 6.940000
    reduced_to: 19
  - symbol: Li # 22
    coordinates: [  0.207990184370944,  0.343038491299826,  0.142375037192959 ]
    mass: 6.940000
    reduced_to: 19
  - symbol: Li # 23
    coordinates: [  0.541323517704278,  0.343038491299826,  0.142375037192959 ]
    mass: 6.940000
    reduced_to: 19
  - symbol: Li # 24
    coordinates: [  0.874656851037611,  0.343038491299826,  0.142375037192959 ]
    mass: 6.940000
    reduced_to: 19
  - symbol: Li # 25
    coordinates: [  0.207990184370944,  0.676371824633160,  0.142375037192959 ]
    mass: 6.940000
    reduced_to: 19
  - symbol: Li # 26
    coordinates: [  0.541323517704278,  0.676371824633160,  0.142375037192959 ]
    mass: 6.940000
    reduced_to: 19
  - symbol: Li # 27
    coordinates: [  0.874656851037611,  0.676371824633160,  0.142375037192959 ]
    mass: 6.940000
    reduced_to: 19
  - symbol: Li # 28
    coordinates: [  0.207990184370944,  0.009705157966493,  0.642375037192959 ]
    mass: 6.940000
    reduced_to: 19
  - symbol: Li # 29
    coordinates: [  0.541323517704278,  0.009705157966493,  0.642375037192959 ]
    mass: 6.940000
    reduced_to: 19
  - symbol: Li # 30
    coordinates: [  0.874656851037611,  0.009705157966493,  0.642375037192959 ]
    mass: 6.940000
    reduced_to: 19
  - symbol: Li # 31
    coordinates: [  0.207990184370944,  0.343038491299826,  0.642375037192959 ]
    mass: 6.940000
    reduced_to: 19
  - symbol: Li # 32
    coordinates: [  0.541323517704278,  0.343038491299826,  0.642375037192959 ]
    mass: 6.940000
    reduced_to: 19
  - symbol: Li # 33
    coordinates: [  0.874656851037611,  0.343038491299826,  0.642375037192959 ]
    mass: 6.940000
    reduced_to: 19
  - symbol: Li # 34
    coordinates: [  0.207990184370944,  0.676371824633160,  0.642375037192959 ]
    mass: 6.940000
    reduced_to: 19
  - symbol: Li # 35
    coordinates: [  0.541323517704278,  0.676371824633160,  0.642375037192959 ]
    mass: 6.940000
    reduced_to: 19
  - symbol: Li # 36
    coordinates: [  0.874656851037611,  0.676371824633160,  0.642375037192959 ]
    mass: 6.940000
    reduced_to: 19
  - symbol: Ga # 37
    coordinates: [  0.096924430377441,  0.120842097661530,  0.073212465029447 ]
    mass: 69.723000
    reduced_to: 37
  - symbol: Ga # 38
    coordinates: [  0.430257763710774,  0.120842097661530,  0.073212465029447 ]
    mass: 69.723000
    reduced_to: 37
  - symbol: Ga # 39
    coordinates: [  0.763591097044107,  0.120842097661530,  0.073212465029447 ]
    mass: 69.723000
    reduced_to: 37
  - symbol: Ga # 40
    coordinates: [  0.096924430377441,  0.454175430994863,  0.073212465029447 ]
    mass: 69.723000
    reduced_to: 37
  - symbol: Ga # 41
    coordinates: [  0.430257763710774,  0.454175430994863,  0.073212465029447 ]
    mass: 69.723000
    reduced_to: 37
  - symbol: Ga # 42
    coordinates: [  0.763591097044107,  0.454175430994863,  0.073212465029447 ]
    mass: 69.723000
    reduced_to: 37
  - symbol: Ga # 43
    coordinates: [  0.096924430377441,  0.787508764328196,  0.073212465029447 ]
    mass: 69.723000
    reduced_to: 37
  - symbol: Ga # 44
    coordinates: [  0.430257763710774,  0.787508764328196,  0.073212465029447 ]
    mass: 69.723000
    reduced_to: 37
  - symbol: Ga # 45
    coordinates: [  0.763591097044107,  0.787508764328196,  0.073212465029447 ]
    mass: 69.723000
    reduced_to: 37
  - symbol: Ga # 46
    coordinates: [  0.096924430377441,  0.120842097661530,  0.573212465029447 ]
    mass: 69.723000
    reduced_to: 37
  - symbol: Ga # 47
    coordinates: [  0.430257763710774,  0.120842097661530,  0.573212465029447 ]
    mass: 69.723000
    reduced_to: 37
  - symbol: Ga # 48
    coordinates: [  0.763591097044107,  0.120842097661530,  0.573212465029447 ]
    mass: 69.723000
    reduced_to: 37
  - symbol: Ga # 49
    coordinates: [  0.096924430377441,  0.454175430994863,  0.573212465029447 ]
    mass: 69.723000
    reduced_to: 37
  - symbol: Ga # 50
    coordinates: [  0.430257763710774,  0.454175430994863,  0.573212465029447 ]
    mass: 69.723000
    reduced_to: 37
  - symbol: Ga # 51
    coordinates: [  0.763591097044107,  0.454175430994863,  0.573212465029447 ]
    mass: 69.723000
    reduced_to: 37
  - symbol: Ga # 52
    coordinates: [  0.096924430377441,  0.787508764328196,  0.573212465029447 ]
    mass: 69.723000
    reduced_to: 37
  - symbol: Ga # 53
    coordinates: [  0.430257763710774,  0.787508764328196,  0.573212465029447 ]
    mass: 69.723000
    reduced_to: 37
  - symbol: Ga # 54
    coordinates: [  0.763591097044107,  0.787508764328196,  0.573212465029447 ]
    mass: 69.723000
    reduced_to: 37
  - symbol: Ga # 55
    coordinates: [  0.319162347721983,  0.232075408843752,  0.323154673380499 ]
    mass: 69.723000
    reduced_to: 55
  - symbol: Ga # 56
    coordinates: [  0.652495681055316,  0.232075408843752,  0.323154673380499 ]
    mass: 69.723000
    reduced_to: 55
  - symbol: Ga # 57
    coordinates: [  0.985829014388650,  0.232075408843752,  0.323154673380499 ]
    mass: 69.723000
    reduced_to: 55
  - symbol: Ga # 58
    coordinates: [  0.319162347721983,  0.565408742177086,  0.323154673380499 ]
    mass: 69.723000
    reduced_to: 55
  - symbol: Ga # 59
    coordinates: [  0.652495681055316,  0.565408742177086,  0.323154673380499 ]
    mass: 69.723000
    reduced_to: 55
  - symbol: Ga # 60
    coordinates: [  0.985829014388650,  0.565408742177086,  0.323154673380499 ]
    mass: 69.723000
    reduced_to: 55
  - symbol: Ga # 61
    coordinates: [  0.319162347721983,  0.898742075510419,  0.323154673380499 ]
    mass: 69.723000
    reduced_to: 55
  - symbol: Ga # 62
    coordinates: [  0.652495681055316,  0.898742075510419,  0.323154673380499 ]
    mass: 69.723000
    reduced_to: 55
  - symbol: Ga # 63
    coordinates: [  0.985829014388650,  0.898742075510419,  0.323154673380499 ]
    mass: 69.723000
    reduced_to: 55
  - symbol: Ga # 64
    coordinates: [  0.319162347721983,  0.232075408843752,  0.823154673380499 ]
    mass: 69.723000
    reduced_to: 55
  - symbol: Ga # 65
    coordinates: [  0.652495681055316,  0.232075408843752,  0.823154673380499 ]
    mass: 69.723000
    reduced_to: 55
  - symbol: Ga # 66
    coordinates: [  0.985829014388650,  0.232075408843752,  0.823154673380499 ]
    mass: 69.723000
    reduced_to: 55
  - symbol: Ga # 67
    coordinates: [  0.319162347721983,  0.565408742177086,  0.823154673380499 ]
    mass: 69.723000
    reduced_to: 55
  - symbol: Ga # 68
    coordinates: [  0.652495681055316,  0.565408742177086,  0.823154673380499 ]
    mass: 69.723000
    reduced_to: 55
  - symbol: Ga # 69
    coordinates: [  0.985829014388650,  0.565408742177086,  0.823154673380499 ]
    mass: 69.723000
    reduced_to: 55
  - symbol: Ga # 70
    coordinates: [  0.319162347721983,  0.898742075510419,  0.823154673380499 ]
    mass: 69.723000
    reduced_to: 55
  - symbol: Ga # 71
    coordinates: [  0.652495681055316,  0.898742075510419,  0.823154673380499 ]
    mass: 69.723000
    reduced_to: 55
  - symbol: Ga # 72
    coordinates: [  0.985829014388650,  0.898742075510419,  0.823154673380499 ]
    mass: 69.723000
    reduced_to: 55
  - symbol: Sn # 73
    coordinates: [  0.319153395550016,  0.231991578373921,  0.013503970644042 ]
    mass: 118.710000
    reduced_to: 73
  - symbol: Sn # 74
    coordinates: [  0.652486728883349,  0.231991578373921,  0.013503970644042 ]
    mass: 118.710000
    reduced_to: 73
  - symbol: Sn # 75
    coordinates: [  0.985820062216683,  0.231991578373921,  0.013503970644042 ]
    mass: 118.710000
    reduced_to: 73
  - symbol: Sn # 76
    coordinates: [  0.319153395550016,  0.565324911707254,  0.013503970644042 ]
    mass: 118.710000
    reduced_to: 73
  - symbol: Sn # 77
    coordinates: [  0.652486728883349,  0.565324911707254,  0.013503970644042 ]
    mass: 118.710000
    reduced_to: 73
  - symbol: Sn # 78
    coordinates: [  0.985820062216683,  0.565324911707254,  0.013503970644042 ]
    mass: 118.710000
    reduced_to: 73
  - symbol: Sn # 79
    coordinates: [  0.319153395550016,  0.898658245040588,  0.013503970644042 ]
    mass: 118.710000
    reduced_to: 73
  - symbol: Sn # 80
    coordinates: [  0.652486728883349,  0.898658245040588,  0.013503970644042 ]
    mass: 118.710000
    reduced_to: 73
  - symbol: Sn # 81
    coordinates: [  0.985820062216683,  0.898658245040588,  0.013503970644042 ]
    mass: 118.710000
    reduced_to: 73
  - symbol: Sn # 82
    coordinates: [  0.319153395550016,  0.231991578373921,  0.513503970644042 ]
    mass: 118.710000
    reduced_to: 73
  - symbol: Sn # 83
    coordinates: [  0.652486728883349,  0.231991578373921,  0.513503970644042 ]
    mass: 118.710000
    reduced_to: 73
  - symbol: Sn # 84
    coordinates: [  0.985820062216683,  0.231991578373921,  0.513503970644042 ]
    mass: 118.710000
    reduced_to: 73
  - symbol: Sn # 85
    coordinates: [  0.319153395550016,  0.565324911707254,  0.513503970644042 ]
    mass: 118.710000
    reduced_to: 73
  - symbol: Sn # 86
    coordinates: [  0.652486728883349,  0.565324911707254,  0.513503970644042 ]
    mass: 118.710000
    reduced_to: 73
  - symbol: Sn # 87
    coordinates: [  0.985820062216683,  0.565324911707254,  0.513503970644042 ]
    mass: 118.710000
    reduced_to: 73
  - symbol: Sn # 88
    coordinates: [  0.319153395550016,  0.898658245040588,  0.513503970644042 ]
    mass: 118.710000
    reduced_to: 73
  - symbol: Sn # 89
    coordinates: [  0.652486728883349,  0.898658245040588,  0.513503970644042 ]
    mass: 118.710000
    reduced_to: 73
  - symbol: Sn # 90
    coordinates: [  0.985820062216683,  0.898658245040588,  0.513503970644042 ]
    mass: 118.710000
    reduced_to: 73
  - symbol: Sn # 91
    coordinates: [  0.096925157773094,  0.120953487427254,  0.263452745921340 ]
    mass: 118.710000
    reduced_to: 91
  - symbol: Sn # 92
    coordinates: [  0.430258491106427,  0.120953487427254,  0.263452745921340 ]
    mass: 118.710000
    reduced_to: 91
  - symbol: Sn # 93
    coordinates: [  0.763591824439760,  0.120953487427254,  0.263452745921340 ]
    mass: 118.710000
    reduced_to: 91
  - symbol: Sn # 94
    coordinates: [  0.096925157773094,  0.454286820760588,  0.263452745921340 ]
    mass: 118.710000
    reduced_to: 91
  - symbol: Sn # 95
    coordinates: [  0.430258491106427,  0.454286820760588,  0.263452745921340 ]
    mass: 118.710000
    reduced_to: 91
  - symbol: Sn # 96
    coordinates: [  0.763591824439760,  0.454286820760588,  0.263452745921340 ]
    mass: 118.710000
    reduced_to: 91
  - symbol: Sn # 97
    coordinates: [  0.096925157773094,  0.787620154093921,  0.263452745921340 ]
    mass: 118.710000
    reduced_to: 91
  - symbol: Sn # 98
    coordinates: [  0.430258491106427,  0.787620154093921,  0.263452745921340 ]
    mass: 118.710000
    reduced_to: 91
  - symbol: Sn # 99
    coordinates: [  0.763591824439760,  0.787620154093921,  0.263452745921340 ]
    mass: 118.710000
    reduced_to: 91
  - symbol: Sn # 100
    coordinates: [  0.096925157773094,  0.120953487427254,  0.763452745921340 ]
    mass: 118.710000
    reduced_to: 91
  - symbol: Sn # 101
    coordinates: [  0.430258491106427,  0.120953487427254,  0.763452745921340 ]
    mass: 118.710000
    reduced_to: 91
  - symbol: Sn # 102
    coordinates: [  0.763591824439760,  0.120953487427254,  0.763452745921340 ]
    mass: 118.710000
    reduced_to: 91
  - symbol: Sn # 103
    coordinates: [  0.096925157773094,  0.454286820760588,  0.763452745921340 ]
    mass: 118.710000
    reduced_to: 91
  - symbol: Sn # 104
    coordinates: [  0.430258491106427,  0.454286820760588,  0.763452745921340 ]
    mass: 118.710000
    reduced_to: 91
  - symbol: Sn # 105
    coordinates: [  0.763591824439760,  0.454286820760588,  0.763452745921340 ]
    mass: 118.710000
    reduced_to: 91
  - symbol: Sn # 106
    coordinates: [  0.096925157773094,  0.787620154093921,  0.763452745921340 ]
    mass: 118.710000
    reduced_to: 91
  - symbol: Sn # 107
    coordinates: [  0.430258491106427,  0.787620154093921,  0.763452745921340 ]
    mass: 118.710000
    reduced_to: 91
  - symbol: Sn # 108
    coordinates: [  0.763591824439760,  0.787620154093921,  0.763452745921340 ]
    mass: 118.710000
    reduced_to: 91

displacements:
- atom:    1
  displacement:
    [   0.0100000000000000,  0.0000000000000000,  0.0000000000000000 ]
  forces:
  - [  -0.0158041212707758, -0.0006985003128648, -0.1598674505949020 ]
  - [   0.0013876666780561, -0.0005106776952744, -0.1599090695381165 ]
  - [   0.0013413316337392, -0.0010857763700187, -0.1599903404712677 ]
  - [   0.0004666172899306, -0.0010264273732901, -0.1600695401430130 ]
  - [   0.0004672948271036, -0.0005628168582916, -0.1598368287086487 ]
  - [   0.0001673442311585, -0.0007965639233589, -0.1599526852369308 ]
  - [   0.0004694759845734, -0.0016034590080380, -0.1600282788276672 ]
  - [   0.0001661982387304, -0.0007987301796675, -0.1599520146846771 ]
  - [   0.0004640566185117,  0.0000053923577070, -0.1598797440528870 ]
  - [   0.0002183666802011, -0.0007983855903149, -0.1599529832601547 ]
  - [   0.0002248609962407, -0.0008047197479755, -0.1599574983119965 ]
  - [   0.0002257631858811, -0.0007912125438452, -0.1599487811326981 ]
  - [   0.0002254946157336, -0.0008048871532083, -0.1599468141794205 ]
  - [   0.0002255253493786, -0.0007914658635855, -0.1599594652652740 ]
  - [   0.0002174656838179, -0.0007989364676178, -0.1599527597427368 ]
  - [   0.0002256622537971, -0.0007906667888165, -0.1599509119987488 ]
  - [   0.0002174824476242, -0.0007975734770298, -0.1599531024694443 ]
  - [   0.0002251770347357, -0.0008046347647905, -0.1599549204111099 ]
  - [  -0.0005242839688435,  0.0005008029984310, -0.1604949086904526 ]
  - [   0.0000141245109262,  0.0005702726193704, -0.1605988740921021 ]
  - [   0.0000195638276637,  0.0004296589468140, -0.1604024767875671 ]
  - [  -0.0000554979778826,  0.0003842171281576, -0.1604085117578506 ]
  - [  -0.0000553163699806,  0.0006153900176287, -0.1605959832668304 ]
  - [   0.0000104461796582,  0.0004998156800866, -0.1605032384395599 ]
  - [  -0.0001785652711987,  0.0004583261907101, -0.1605105400085449 ]
  - [   0.0001522749662399,  0.0004982780665159, -0.1605038344860077 ]
  - [  -0.0001808917149901,  0.0005388967692852, -0.1604997068643570 ]
  - [  -0.0005238849553280,  0.0004941780352965, -0.1605051457881927 ]
  - [   0.0000157154063345,  0.0005714721628465, -0.1605156958103180 ]
  - [   0.0000182004005183,  0.0004247640317772, -0.1604923307895660 ]
  - [  -0.0000536488369107,  0.0003878916613758, -0.1605054438114166 ]
  - [  -0.0000559082254767,  0.0006123259663582, -0.1604977846145630 ]
  - [   0.0000113062560558,  0.0004995907656848, -0.1605021357536316 ]
  - [  -0.0001813573762774,  0.0004536816850305, -0.1605171859264374 ]
  - [   0.0001522358506918,  0.0004973653703928, -0.1605008542537689 ]
  - [  -0.0001774374395609,  0.0005425093695521, -0.1604873239994049 ]
  - [  -0.0021981094032526,  0.0017252237303182,  0.0487082302570343 ]
  - [  -0.0021990498062223,  0.0013518817722797,  0.0489255525171757 ]
  - [  -0.0019578603096306,  0.0015412280336022,  0.0488192252814770 ]
  - [  -0.0019931793212891,  0.0015224164817482,  0.0488151162862778 ]
  - [  -0.0019646028522402,  0.0015430084895343,  0.0488210432231426 ]
  - [  -0.0019949278794229,  0.0015638773329556,  0.0488238409161568 ]
  - [  -0.0018779311794788,  0.0015431952197105,  0.0488164201378822 ]
  - [  -0.0020004224497825,  0.0015612759161741,  0.0486589670181274 ]
  - [  -0.0020011975429952,  0.0015221445355564,  0.0489752516150475 ]
  - [  -0.0017433249158785,  0.0007164569688030,  0.0486828945577145 ]
  - [  -0.0017457799986005,  0.0023719347082078,  0.0489383675158024 ]
  - [  -0.0020802703220397,  0.0015423488803208,  0.0488171055912971 ]
  - [  -0.0020291367545724,  0.0015732434112579,  0.0488173738121986 ]
  - [  -0.0017118549440056,  0.0015400683041662,  0.0488188974559307 ]
  - [  -0.0020298995077610,  0.0015131213003770,  0.0488191358745098 ]
  - [  -0.0031795238610357,  0.0015484183095396,  0.0488178133964539 ]
  - [  -0.0014798891497776,  0.0014129343908280,  0.0485741719603539 ]
  - [  -0.0014898095978424,  0.0016761519946158,  0.0490590482950211 ]
  - [  -0.0010266578756273, -0.0004364792257547,  0.0550212487578392 ]
  - [   0.0006277739303187, -0.0006005968898535,  0.0551268309354782 ]
  - [   0.0006211629370227, -0.0002408791333437,  0.0548909232020378 ]
  - [   0.0006297474028543, -0.0004958026111126,  0.0550757944583893 ]
  - [   0.0006308954325505, -0.0003512911498547,  0.0549495704472065 ]
  - [   0.0009382138960063, -0.0004238914698362,  0.0550147108733654 ]
  - [   0.0064238421618938, -0.0047288239002228,  0.0514180287718773 ]
  - [   0.0007549021393061, -0.0004140956443734,  0.0550141185522079 ]
  - [   0.0062928199768066,  0.0038003735244274,  0.0585368871688843 ]
  - [   0.0007057656184770, -0.0004192553460598,  0.0550107061862946 ]
  - [   0.0007024674559943, -0.0004249475896358,  0.0549694970250130 ]
  - [   0.0007012140704319, -0.0004147682338953,  0.0550526827573776 ]
  - [   0.0007008950342424, -0.0004376694560051,  0.0549919903278351 ]
  - [   0.0006995938601904, -0.0004034359008074,  0.0550292879343033 ]
  - [   0.0007141693495214, -0.0004195775836706,  0.0550115443766117 ]
  - [   0.0006896983832121, -0.0004102848470211,  0.0547932200133801 ]
  - [   0.0007297527045012, -0.0004192441701889,  0.0550123304128647 ]
  - [   0.0006909389048815, -0.0004283022135496,  0.0552302636206150 ]
  - [   0.0013377949362621, -0.0004734760150313,  0.1048150435090065 ]
  - [   0.0008512313943356, -0.0005702488124371,  0.1049811542034149 ]
  - [   0.0008504121215083, -0.0003758999519050,  0.1046463847160339 ]
  - [   0.0010100817307830, -0.0004757950082421,  0.1047941297292709 ]
  - [   0.0010112631134689, -0.0004671402275562,  0.1048343181610107 ]
  - [   0.0010196100920439, -0.0004713316448033,  0.1048143133521080 ]
  - [   0.0010126060806215, -0.0002823581162374,  0.1050526052713394 ]
  - [   0.0010199388489127, -0.0004697863187175,  0.1048124209046364 ]
  - [   0.0010154619812965, -0.0006580614717677,  0.1045752018690109 ]
  - [   0.0009043308673427, -0.0004847766831517,  0.1048042923212051 ]
  - [   0.0006919765146449, -0.0008506025187671,  0.1046421304345131 ]
  - [   0.0006937990547158, -0.0000991122797132,  0.1049868687987328 ]
  - [   0.0008463792037219, -0.0000607622787356,  0.1048729643225670 ]
  - [   0.0008514873916283, -0.0008863317780197,  0.1047535017132759 ]
  - [   0.0013440670445561, -0.0004735025577247,  0.1048134788870811 ]
  - [   0.0036962386220694, -0.0020924985874444,  0.1075068116188049 ]
  - [   0.0001363162882626, -0.0004672658396885,  0.1048139855265617 ]
  - [   0.0036765180993825,  0.0011188632342964,  0.1021588966250420 ]
  - [   0.0025375024415553, -0.0008380888029933,  0.1127528995275497 ]
  - [   0.0026026847772300,  0.0001579755917192,  0.1108116433024406 ]
  - [  -0.0004522977396846, -0.0003536306321621,  0.1118099689483643 ]
  - [  -0.0000784518197179, -0.0001368494704366,  0.1118013337254524 ]
  - [   0.0001897709444165, -0.0003445567563176,  0.1118048429489136 ]
  - [  -0.0000808695331216, -0.0005700755864382,  0.1118182688951492 ]
  - [   0.0017087766900659, -0.0003295147325844,  0.1118272691965103 ]
  - [  -0.0023708743974566,  0.0011260639876127,  0.1130992621183395 ]
  - [  -0.0023477454669774, -0.0018187530804425,  0.1105242222547531 ]
  - [   0.0000134073197842, -0.0001687351614237,  0.1121251583099365 ]
  - [   0.0000119567848742, -0.0005387589335442,  0.1115011423826218 ]
  - [  -0.0000070910900831, -0.0003513591364026,  0.1118138208985329 ]
  - [   0.0000216336920857, -0.0003338979731780,  0.1118072420358658 ]
  - [   0.0000623920932412, -0.0003510157403070,  0.1118146330118179 ]
  - [   0.0000215843319893, -0.0003693590988405,  0.1118186414241791 ]
  - [   0.0003321096301079, -0.0003529815003276,  0.1118122041225433 ]
  - [  -0.0001115938648582, -0.0002528261393309,  0.1113772019743919 ]
  - [  -0.0001115854829550, -0.0004528686404228,  0.1122488677501678 ]
- atom:    1
  displacement:
    [  -0.0100000000000000,  0.0000000000000000,  0.0000000000000000 ]
  forces:
  - [   0.0162483211606741, -0.0006699832156301, -0.1598893851041794 ]
  - [  -0.0008952788775787, -0.0010866597294807, -0.1599913388490677 ]
  - [  -0.0009418843546882, -0.0005108296172693, -0.1599078476428986 ]
  - [  -0.0000211782753468, -0.0005652150139213, -0.1598364710807800 ]
  - [  -0.0000230958685279, -0.0010285917669535, -0.1600694656372070 ]
  - [   0.0002792067825794, -0.0007965946570039, -0.1599530726671219 ]
  - [  -0.0000188220292330,  0.0000027008354664, -0.1598800271749496 ]
  - [   0.0002783946692944, -0.0007992684841156, -0.1599521487951279 ]
  - [  -0.0000260220840573, -0.0016052536666393, -0.1600271761417389 ]
  - [   0.0002274758444401, -0.0007985407137312, -0.1599532663822174 ]
  - [   0.0002207208890468, -0.0007914126035757, -0.1599496901035309 ]
  - [   0.0002213672560174, -0.0008050499600358, -0.1599569320678711 ]
  - [   0.0002197353169322, -0.0007918355986476, -0.1599591672420502 ]
  - [   0.0002199644222856, -0.0008049290627241, -0.1599467247724533 ]
  - [   0.0002288902178407, -0.0007986379787326, -0.1599529981613159 ]
  - [   0.0002199010923505, -0.0008049309253693, -0.1599550992250443 ]
  - [   0.0002285456284881, -0.0007975269109011, -0.1599527001380920 ]
  - [   0.0002194764092565, -0.0007900279015303, -0.1599498391151428 ]
  - [   0.0005412587779574,  0.0004997190553695, -0.1604967117309570 ]
  - [  -0.0000028615068004,  0.0004287269839551, -0.1604027599096298 ]
  - [   0.0000028087160899,  0.0005707264645025, -0.1605992019176483 ]
  - [   0.0000720513053238,  0.0006158249452710, -0.1605965346097946 ]
  - [   0.0000723809935153,  0.0003847992047668, -0.1604096889495850 ]
  - [   0.0000082985498011,  0.0004997858777642, -0.1605027616024017 ]
  - [   0.0001978073269129,  0.0005390336737037, -0.1604996472597122 ]
  - [  -0.0001363558694720,  0.0004981188103557, -0.1605041176080704 ]
  - [   0.0001959642395377,  0.0004589650779963, -0.1605100333690643 ]
  - [   0.0005404204712249,  0.0004934750613756, -0.1605049222707748 ]
  - [  -0.0000006630762073,  0.0004246748285368, -0.1604909002780914 ]
  - [   0.0000008808274288,  0.0005730947013944, -0.1605159938335419 ]
  - [   0.0000736610963941,  0.0006125299260020, -0.1604990065097809 ]
  - [   0.0000712694600224,  0.0003873463720083, -0.1605059206485748 ]
  - [   0.0000092899426818,  0.0004994757473469, -0.1605022102594376 ]
  - [   0.0001948280259967,  0.0005415668711066, -0.1604872643947601 ]
  - [  -0.0001352047547698,  0.0004978589713573, -0.1605017781257629 ]
  - [   0.0001995563507080,  0.0004536621272564, -0.1605170071125031 ]
  - [  -0.0017686085775495,  0.0013513501035050,  0.0489249303936958 ]
  - [  -0.0017694627167657,  0.0017273168778047,  0.0487086325883865 ]
  - [  -0.0020091813057661,  0.0015413849614561,  0.0488193109631538 ]
  - [  -0.0019746934995055,  0.0015628945548087,  0.0488246530294418 ]
  - [  -0.0020013882312924,  0.0015432301443070,  0.0488211214542389 ]
  - [  -0.0019764406606555,  0.0015235189348459,  0.0488141737878323 ]
  - [  -0.0020948317833245,  0.0015430857893080,  0.0488151833415031 ]
  - [  -0.0019691712222993,  0.0015220409259200,  0.0489761792123318 ]
  - [  -0.0019691043999046,  0.0015619032783434,  0.0486576966941357 ]
  - [  -0.0022242653649300,  0.0023689595982432,  0.0489400476217270 ]
  - [  -0.0022242059931159,  0.0007178985979408,  0.0486845523118973 ]
  - [  -0.0018864143639803,  0.0015426852041855,  0.0488178804516792 ]
  - [  -0.0019425515783951,  0.0015112317632884,  0.0488202199339867 ]
  - [  -0.0022571973968297,  0.0015402061399072,  0.0488185249269009 ]
  - [  -0.0019431675318629,  0.0015744969714433,  0.0488161966204643 ]
  - [  -0.0007929059211165,  0.0015484243631363,  0.0488177426159382 ]
  - [  -0.0024818456731737,  0.0016771978698671,  0.0490576587617397 ]
  - [  -0.0024864105507731,  0.0014159318525344,  0.0485711097717285 ]
  - [   0.0024330988526344, -0.0004297066479921,  0.0550200305879116 ]
  - [   0.0007858034805395, -0.0002409368753433,  0.0548911727964878 ]