# Thermal properties / unit cell (natom)

unit:
  temperature:   K
  free_energy:   kJ/mol
  entropy:       J/K/mol
  heat_capacity: J/K/mol

natom: 6    
cutoff_frequency: 0.00000
num_modes: 158184
num_integrated_modes: 158172

zero_point_energy:      16.5883646

thermal_properties:
- temperature:         0.0000000
  free_energy:        16.5883646
  entropy:             0.0000000
  heat_capacity:       0.0000000
  energy:             16.5883646

- temperature:        10.0000000
  free_energy:        16.5867933
  entropy:             0.5635044
  heat_capacity:       1.5999638
  energy:             16.5924283

- temperature:        20.0000000
  free_energy:        16.5671294
  entropy:             3.9791206
  heat_capacity:      10.3589700
  energy:             16.6467118

- temperature:        30.0000000
  free_energy:        16.4968053
  entropy:            10.4971320
  heat_capacity:      22.9796463
  energy:             16.8117192

- temperature:        40.0000000
  free_energy:        16.3506319
  entropy:            18.9960568
  heat_capacity:      36.8590271
  energy:             17.1104742

- temperature:        50.0000000
  free_energy:        16.1128450
  entropy:            28.7127626
  heat_capacity:      50.6309457
  energy:             17.5484831

- temperature:        60.0000000
  free_energy:        15.7741903
  entropy:            39.0906975
  heat_capacity:      63.3824130
  energy:             18.1196321

- temperature:        70.0000000
  free_energy:        15.3301702
  entropy:            49.7312230
  heat_capacity:      74.7116341
  energy:             18.8113559

- temperature:        80.0000000
  free_energy:        14.7795973
  entropy:            60.3655147
  heat_capacity:      84.5381560
  energy:             19.6088384

- temperature:        90.0000000
  free_energy:        14.1234623
  entropy:            70.8213304
  heat_capacity:      92.9458027
  energy:             20.4973820

- temperature:       100.0000000
  free_energy:        13.3641188
  entropy:            80.9942014
  heat_capacity:     100.0893490
  energy:             21.4635390

- temperature:       110.0000000
  free_energy:        12.5047198
  entropy:            90.8256161
  heat_capacity:     106.1431828
  energy:             22.4955376

- temperature:       120.0000000
  free_energy:        11.5488406
  entropy:           100.2874294
  heat_capacity:     111.2752551
  energy:             23.5833322

- temperature:       130.0000000
  free_energy:        10.5002331
  entropy:           109.3710755
  heat_capacity:     115.6356741
  energy:             24.7184729

- temperature:       140.0000000
  free_energy:         9.3626681
  entropy:           118.0802648
  heat_capacity:     119.3532569
  energy:             25.8939052

- temperature:       150.0000000
  free_energy:         8.1398393
  entropy:           126.4261203
  heat_capacity:     122.5360284
  energy:             27.1037574

- temperature:       160.0000000
  free_energy:         6.8353059
  entropy:           134.4239812
  heat_capacity:     125.2734173
  energy:             28.3431429

- temperature:       170.0000000
  free_energy:         5.4524615
  entropy:           142.0913308
  heat_capacity:     127.6389677
  energy:             29.6079877

- temperature:       180.0000000
  free_energy:         3.9945200
  entropy:           149.4464727
  heat_capacity:     129.6930016
  energy:             30.8948851

- temperature:       190.0000000
  free_energy:         2.4645117
  entropy:           156.5077031
  heat_capacity:     131.4849952
  energy:             32.2009753

- temperature:       200.0000000
  free_energy:         0.8652863
  entropy:           163.2928077
  heat_capacity:     133.0555967
  energy:             33.5238478

- temperature:       210.0000000
  free_energy:        -0.8004808
  entropy:           169.8187728
  heat_capacity:     134.4382959
  energy:             34.8614615

- temperature:       220.0000000
  free_energy:        -2.5302790
  entropy:           176.1016325
  heat_capacity:     135.6607816
  energy:             36.2120802

- temperature:       230.0000000
  free_energy:        -4.3217532
  entropy:           182.1564060
  heat_capacity:     136.7460376
  energy:             37.5742201

- temperature:       240.0000000
  free_energy:        -6.1726936
  entropy:           187.9970887
  heat_capacity:     137.7132230
  energy:             38.9466077

- temperature:       250.0000000
  free_energy:        -8.0810248
  entropy:           193.6366784
  heat_capacity:     138.5783784
  energy:             40.3281448

- temperature:       260.0000000
  free_energy:       -10.0447971
  entropy:           199.0872210
  heat_capacity:     139.3549926
  energy:             41.7178804

- temperature:       270.0000000
  free_energy:       -12.0621763
  entropy:           204.3598666
  heat_capacity:     140.0544580
  energy:             43.1149877

- temperature:       280.0000000
  free_energy:       -14.1314359
  entropy:           209.4649308
  heat_capacity:     140.6864384
  energy:             44.5187448

- temperature:       290.0000000
  free_energy:       -16.2509482
  entropy:           214.4119561
  heat_capacity:     141.2591652
  energy:             45.9285191

- temperature:       300.0000000
  free_energy:       -18.4191777
  entropy:           219.2097728
  heat_capacity:     141.7796790
  energy:             47.3437541

- temperature:       310.0000000
  free_energy:       -20.6346736
  entropy:           223.8665564
  heat_capacity:     142.2540254
  energy:             48.7639588

- temperature:       320.0000000
  free_energy:       -22.8960640
  entropy:           228.3898820
  heat_capacity:     142.6874159
  energy:             50.1886982

- temperature:       330.0000000
  free_energy:       -25.2020499
  entropy:           232.7867746
  heat_capacity:     143.0843592
  energy:             51.6175857

- temperature:       340.0000000
  free_energy:       -27.5513999
  entropy:           237.0637555
  heat_capacity:     143.4487704
  energy:             53.0502770

- temperature:       350.0000000
  free_energy:       -29.9429455
  entropy:           241.2268847
  heat_capacity:     143.7840603
  energy:             54.4864641

- temperature:       360.0000000
  free_energy:       -32.3755769
  entropy:           245.2818000
  heat_capacity:     144.0932105
  energy:             55.9258711

- temperature:       370.0000000
  free_energy:       -34.8482384
  entropy:           249.2337522
  heat_capacity:     144.3788358
  energy:             57.3682499

- temperature:       380.0000000
  free_energy:       -37.3599251
  entropy:           253.0876373
  heat_capacity:     144.6432358
  energy:             58.8133771

- temperature:       390.0000000
  free_energy:       -39.9096795
  entropy:           256.8480261
  heat_capacity:     144.8884392
  energy:             60.2610507

- temperature:       400.0000000
  free_energy:       -42.4965882
  entropy:           260.5191903
  heat_capacity:     145.1162410
  energy:             61.7110879

- temperature:       410.0000000
  free_energy:       -45.1197792
  entropy:           264.1051270
  heat_capacity:     145.3282330
  energy:             63.1633228

- temperature:       420.0000000
  free_energy:       -47.7784192
  entropy:           267.6095804
  heat_capacity:     145.5258311
  energy:             64.6176046

- temperature:       430.0000000
  free_energy:       -50.4717110
  entropy:           271.0360620
  heat_capacity:     145.7102976
  energy:             66.0737957

- temperature:       440.0000000
  free_energy:       -53.1988915
  entropy:           274.3878684
  heat_capacity:     145.8827609
  energy:             67.5317706

- temperature:       450.0000000
  free_energy:       -55.9592298
  entropy:           277.6680979
  heat_capacity:     146.0442314
  energy:             68.9914143

- temperature:       460.0000000
  free_energy:       -58.7520246
  entropy:           280.8796657
  heat_capacity:     146.1956166
  energy:             70.4526216

- temperature:       470.0000000
  free_energy:       -61.5766034
  entropy:           284.0253172
  heat_capacity:     146.3377328
  energy:             71.9152957

- temperature:       480.0000000
  free_energy:       -64.4323199
  entropy:           287.1076410
  heat_capacity:     146.4713161
  energy:             73.3793478

- temperature:       490.0000000
  free_energy:       -67.3185533
  entropy:           290.1290798
  heat_capacity:     146.5970313
  energy:             74.8446958

- temperature:       500.0000000
  free_energy:       -70.2347062
  entropy:           293.0919409
  heat_capacity:     146.7154803
  energy:             76.3112642

- temperature:       510.0000000
  free_energy:       -73.1802041
  entropy:           295.9984062
  heat_capacity:     146.8272089
  energy:             77.7789830

- temperature:       520.0000000
  free_energy:       -76.1544933
  entropy:           298.8505402
  heat_capacity:     146.9327128
  energy:             79.2477876

- temperature:       530.0000000
  free_energy:       -79.1570403
  entropy:           301.6502988
  heat_capacity:     147.0324433
  energy:             80.7176181

- temperature:       540.0000000
  free_energy:       -82.1873309
  entropy:           304.3995361
  heat_capacity:     147.1268117
  energy:             82.1884186

- temperature:       550.0000000
  free_energy:       -85.2448685
  entropy:           307.1000113
  heat_capacity:     147.2161933
  energy:             83.6601377

- temperature:       560.0000000
  free_energy:       -88.3291741
  entropy:           309.7533949
  heat_capacity:     147.3009317
  energy:             85.1327270

- temperature:       570.0000000
  free_energy:       -91.4397848
  entropy:           312.3612748
  heat_capacity:     147.3813413
  energy:             86.6061419

- temperature:       580.0000000
  free_energy:       -94.5762530
  entropy:           314.9251610
  heat_capacity:     147.4577105
  energy:             88.0803404

- temperature:       590.0000000
  free_energy:       -97.7381461
  entropy:           317.4464909
  heat_capacity:     147.5303042
  energy:             89.5552835

- temperature:       600.0000000
  free_energy:      -100.9250455
  entropy:           319.9266337
  heat_capacity:     147.5993662
  energy:             91.0309347

- temperature:       610.0000000
  free_energy:      -104.1365459
  entropy:           322.3668946
  heat_capacity:     147.6651208
  energy:             92.5072598

- temperature:       620.0000000
  free_energy:      -107.3722546
  entropy:           324.7685184
  heat_capacity:     147.7277750
  energy:             93.9842268

- temperature:       630.0000000
  free_energy:      -110.6317914
  entropy:           327.1326937
  heat_capacity:     147.7875199
  energy:             95.4618056

- temperature:       640.0000000
  free_energy:      -113.9147875
  entropy:           329.4605555
  heat_capacity:     147.8445320
  energy:             96.9399681

- temperature:       650.0000000
  free_energy:      -117.2208851
  entropy:           331.7531889
  heat_capacity:     147.8989749
  energy:             98.4186877

- temperature:       660.0000000
  free_energy:      -120.5497373
  entropy:           334.0116315
  heat_capacity:     147.9510001
  energy:             99.8979395

- temperature:       670.0000000
  free_energy:      -123.9010071
  entropy:           336.2368764
  heat_capacity:     148.0007482
  energy:            101.3777001

- temperature:       680.0000000
  free_energy:      -127.2743673
  entropy:           338.4298745
  heat_capacity:     148.0483495
  energy:            102.8579473

- temperature:       690.0000000
  free_energy:      -130.6695001
  entropy:           340.5915369
  heat_capacity:     148.0939255
  energy:            104.3386603

- temperature:       700.0000000
  free_energy:      -134.0860965
  entropy:           342.7227371
  heat_capacity:     148.1375890
  energy:            105.8198195

- temperature:       710.0000000
  free_energy:      -137.5238561
  entropy:           344.8243130
  heat_capacity:     148.1794452
  energy:            107.3014061

- temperature:       720.0000000
  free_energy:      -140.9824867
  entropy:           346.8970686
  heat_capacity:     148.2195923
  energy:            108.7834027

- temperature:       730.0000000
  free_energy:      -144.4617040
  entropy:           348.9417761
  heat_capacity:     148.2581215
  energy:            110.2657926

- temperature:       740.0000000
  free_energy:      -147.9612312
  entropy:           350.9591773
  heat_capacity:     148.2951186
  energy:            111.7485600

- temperature:       750.0000000
  free_energy:      -151.4807989
  entropy:           352.9499853
  heat_capacity:     148.3306634
  energy:            113.2316901

- temperature:       760.0000000
  free_energy:      -155.0201446
  entropy:           354.9148858
  heat_capacity:     148.3648308
  energy:            114.7151687

- temperature:       770.0000000
  free_energy:      -158.5790125
  entropy:           356.8545387
  heat_capacity:     148.3976907
  energy:            116.1989823

- temperature:       780.0000000
  free_energy:      -162.1571533
  entropy:           358.7695790
  heat_capacity:     148.4293089
  energy:            117.6831184

- temperature:       790.0000000
  free_energy:      -165.7543240
  entropy:           360.6606185
  heat_capacity:     148.4597470
  energy:            119.1675646

- temperature:       800.0000000
  free_energy:      -169.3702876
  entropy:           362.5282465
  heat_capacity:     148.4890628
  energy:            120.6523096

- temperature:       810.0000000
  free_energy:      -173.0048128
  entropy:           364.3730310
  heat_capacity:     148.5173108
  energy:            122.1373423

- temperature:       820.0000000
  free_energy:      -176.6576739
  entropy:           366.1955199
  heat_capacity:     148.5445420
  energy:            123.6226524

- temperature:       830.0000000
  free_energy:      -180.3286507
  entropy:           367.9962417
  heat_capacity:     148.5708044
  energy:            125.1082299

- temperature:       840.0000000
  free_energy:      -184.0175279
  entropy:           369.7757063
  heat_capacity:     148.5961435
  energy:            126.5940654

- temperature:       850.0000000
  free_energy:      -187.7240956
  entropy:           371.5344064
  heat_capacity:     148.6206019
  energy:            128.0801498

- temperature:       860.0000000
  free_energy:      -191.4481484
  entropy:           373.2728175
  heat_capacity:     148.6442199
  energy:            129.5664746

- temperature:       870.0000000
  free_energy:      -195.1894858
  entropy:           374.9913993
  heat_capacity:     148.6670354
  energy:            131.0530316

- temperature:       880.0000000
  free_energy:      -198.9479118
  entropy:           376.6905961
  heat_capacity:     148.6890843
  energy:            132.5398128

- temperature:       890.0000000
  free_energy:      -202.7232346
  entropy:           378.3708375
  heat_capacity:     148.7104005
  energy:            134.0268108

- temperature:       900.0000000
  free_energy:      -206.5152667
  entropy:           380.0325391
  heat_capacity:     148.7310161
  energy:            135.5140185

- temperature:       910.0000000
  free_energy:      -210.3238249
  entropy:           381.6761031
  heat_capacity:     148.7509612
  energy:            137.0014289

- temperature:       920.0000000
  free_energy:      -214.1487296
  entropy:           383.3019187
  heat_capacity:     148.7702648
  energy:            138.4890355

- temperature:       930.0000000
  free_energy:      -217.9898054
  entropy:           384.9103629
  heat_capacity:     148.7889538
  energy:            139.9768321

- temperature:       940.0000000
  free_energy:      -221.8468802
  entropy:           386.5018009
  heat_capacity:     148.8070542
  energy:            141.4648127

- temperature:       950.0000000
  free_energy:      -225.7197859
  entropy:           388.0765866
  heat_capacity:     148.8245902
  energy:            142.9529713

- temperature:       960.0000000
  free_energy:      -229.6083576
  entropy:           389.6350627
  heat_capacity:     148.8415851
  energy:            144.4413027

- temperature:       970.0000000
  free_energy:      -233.5124339
  entropy:           391.1775621
  heat_capacity:     148.8580609
  energy:            145.9298013

- temperature:       980.0000000
  free_energy:      -237.4318566
  entropy:           392.7044070
  heat_capacity:     148.8740385
  energy:            147.4184622

- temperature:       990.0000000
  free_energy:      -241.3664709
  entropy:           394.2159105
  heat_capacity:     148.8895377
  energy:            148.9072805

- temperature:      1000.0000000
  free_energy:      -245.3161247
  entropy:           395.7123762
  heat_capacity:     148.9045773
  energy:            150.3962514
