phonopy:
  version: "2.37.1"
  frequency_unit_conversion_factor: 15.633302
  symmetry_tolerance: 1.00000e-05

space_group:
  type: "F-43m"
  number: 216
  Hall_symbol: "F -4 2 3"

primitive_matrix:
- [  0.000000000000000,  1.000000000000000,  0.000000000000000 ]
- [  0.000000000000000,  0.000000000000000,  1.000000000000000 ]
- [  1.000000000000000,  0.000000000000000, -0.000000000000000 ]

supercell_matrix:
- [   2,   0,   0 ]
- [   0,   2,   0 ]
- [   0,   0,   2 ]

primitive_cell:
  lattice:
  - [     3.121595243570623,     1.802254027783368,     5.097543887142558 ] # a
  - [     6.243190702859604,     0.000000000000000,     0.000000000000000 ] # b
  - [     3.121595363289616,     5.406761885770543,    -0.000000000000000 ] # c
  points:
  - symbol: Li # 1
    coordinates: [  0.000000000100113,  0.000000000196196,  0.999999999787691 ]
    mass: 6.940000
  - symbol: Sn # 2
    coordinates: [  0.250000001047480,  0.249999999015034,  0.249999999212727 ]
    mass: 118.710000
  - symbol: Sn # 3
    coordinates: [  0.625180692769946,  0.625180692867762,  0.625180691392762 ]
    mass: 118.710000
  - symbol: Sn # 4
    coordinates: [  0.124457922096011,  0.625180692169339,  0.625180693209686 ]
    mass: 118.710000
  - symbol: Sn # 5
    coordinates: [  0.625180692196113,  0.124457922341070,  0.625180692952729 ]
    mass: 118.710000
  - symbol: Sn # 6
    coordinates: [  0.625180691703625,  0.625180693313228,  0.124457923341671 ]
    mass: 118.710000
  reciprocal_lattice: # without 2pi
  - [     0.000000000000000,     0.000000000000000,     0.196172906430935 ] # a*
  - [     0.160174508131229,    -0.092476793404854,    -0.065390964102159 ] # b*
  - [     0.000000000000000,     0.184953586107017,    -0.065390971199897 ] # c*

unit_cell:
  lattice:
  - [     6.243190702859602,     0.000000000000000,     0.000000000000000 ] # a
  - [     3.121595363289615,     5.406761885770543,     0.000000000000000 ] # b
  - [     3.121595243570622,     1.802254027783368,     5.097543887142558 ] # c
  points:
  - symbol: Li # 1
    coordinates: [  0.000000000196196,  0.999999999787691,  0.000000000100113 ]
    mass: 6.940000
    reduced_to: 1
  - symbol: Sn # 2
    coordinates: [  0.249999999015035,  0.249999999212727,  0.250000001047480 ]
    mass: 118.710000
    reduced_to: 2
  - symbol: Sn # 3
    coordinates: [  0.625180692867762,  0.625180691392762,  0.625180692769946 ]
    mass: 118.710000
    reduced_to: 3
  - symbol: Sn # 4
    coordinates: [  0.625180692169339,  0.625180693209686,  0.124457922096011 ]
    mass: 118.710000
    reduced_to: 4
  - symbol: Sn # 5
    coordinates: [  0.124457922341071,  0.625180692952729,  0.625180692196113 ]
    mass: 118.710000
    reduced_to: 5
  - symbol: Sn # 6
    coordinates: [  0.625180693313228,  0.124457923341671,  0.625180691703625 ]
    mass: 118.710000
    reduced_to: 6

supercell:
  lattice:
  - [    12.486381405719204,     0.000000000000000,     0.000000000000000 ] # a
  - [     6.243190726579231,    10.813523771541085,     0.000000000000000 ] # b
  - [     6.243190487141245,     3.604508055566737,    10.195087774285117 ] # c
  points:
  - symbol: Li # 1
    coordinates: [  0.000000000098098,  0.499999999893846,  0.000000000050056 ]
    mass: 6.940000
    reduced_to: 1
  - symbol: Li # 2
    coordinates: [  0.500000000098098,  0.499999999893846,  0.000000000050056 ]
    mass: 6.940000
    reduced_to: 1
  - symbol: Li # 3
    coordinates: [  0.000000000098098,  0.999999999893846,  0.000000000050056 ]
    mass: 6.940000
    reduced_to: 1
  - symbol: Li # 4
    coordinates: [  0.500000000098098,  0.999999999893846,  0.000000000050056 ]
    mass: 6.940000
    reduced_to: 1
  - symbol: Li # 5
    coordinates: [  0.000000000098098,  0.499999999893846,  0.500000000050056 ]
    mass: 6.940000
    reduced_to: 1
  - symbol: Li # 6
    coordinates: [  0.500000000098098,  0.499999999893846,  0.500000000050056 ]
    mass: 6.940000
    reduced_to: 1
  - symbol: Li # 7
    coordinates: [  0.000000000098098,  0.999999999893846,  0.500000000050056 ]
    mass: 6.940000
    reduced_to: 1
  - symbol: Li # 8
    coordinates: [  0.500000000098098,  0.999999999893846,  0.500000000050056 ]
    mass: 6.940000
    reduced_to: 1
  - symbol: Sn # 9
    coordinates: [  0.124999999507517,  0.124999999606363,  0.125000000523740 ]
    mass: 118.710000
    reduced_to: 9
  - symbol: Sn # 10
    coordinates: [  0.624999999507517,  0.124999999606363,  0.125000000523740 ]
    mass: 118.710000
    reduced_to: 9
  - symbol: Sn # 11
    coordinates: [  0.124999999507517,  0.624999999606363,  0.125000000523740 ]
    mass: 118.710000
    reduced_to: 9
  - symbol: Sn # 12
    coordinates: [  0.624999999507517,  0.624999999606363,  0.125000000523740 ]
    mass: 118.710000
    reduced_to: 9
  - symbol: Sn # 13
    coordinates: [  0.124999999507517,  0.124999999606363,  0.625000000523740 ]
    mass: 118.710000
    reduced_to: 9
  - symbol: Sn # 14
    coordinates: [  0.624999999507517,  0.124999999606363,  0.625000000523740 ]
    mass: 118.710000
    reduced_to: 9
  - symbol: Sn # 15
    coordinates: [  0.124999999507517,  0.624999999606363,  0.625000000523740 ]
    mass: 118.710000
    reduced_to: 9
  - symbol: Sn # 16
    coordinates: [  0.624999999507517,  0.624999999606363,  0.625000000523740 ]
    mass: 118.710000
    reduced_to: 9
  - symbol: Sn # 17
    coordinates: [  0.312590346433881,  0.312590345696381,  0.312590346384973 ]
    mass: 118.710000
    reduced_to: 17
  - symbol: Sn # 18
    coordinates: [  0.812590346433881,  0.312590345696381,  0.312590346384973 ]
    mass: 118.710000
    reduced_to: 17
  - symbol: Sn # 19
    coordinates: [  0.312590346433881,  0.812590345696381,  0.312590346384973 ]
    mass: 118.710000
    reduced_to: 17
  - symbol: Sn # 20
    coordinates: [  0.812590346433881,  0.812590345696381,  0.312590346384973 ]
    mass: 118.710000
    reduced_to: 17
  - symbol: Sn # 21
    coordinates: [  0.312590346433881,  0.312590345696381,  0.812590346384973 ]
    mass: 118.710000
    reduced_to: 17
  - symbol: Sn # 22
    coordinates: [  0.812590346433881,  0.312590345696381,  0.812590346384973 ]
    mass: 118.710000
    reduced_to: 17
  - symbol: Sn # 23
    coordinates: [  0.312590346433881,  0.812590345696381,  0.812590346384973 ]
    mass: 118.710000
    reduced_to: 17
  - symbol: Sn # 24
    coordinates: [  0.812590346433881,  0.812590345696381,  0.812590346384973 ]
    mass: 118.710000
    reduced_to: 17
  - symbol: Sn # 25
    coordinates: [  0.312590346084670,  0.312590346604843,  0.062228961048005 ]
    mass: 118.710000
    reduced_to: 25
  - symbol: Sn # 26
    coordinates: [  0.812590346084670,  0.312590346604843,  0.062228961048005 ]
    mass: 118.710000
    reduced_to: 25
  - symbol: Sn # 27
    coordinates: [  0.312590346084670,  0.812590346604843,  0.062228961048005 ]
    mass: 118.710000
    reduced_to: 25
  - symbol: Sn # 28
    coordinates: [  0.812590346084670,  0.812590346604843,  0.062228961048005 ]
    mass: 118.710000
    reduced_to: 25
  - symbol: Sn # 29
    coordinates: [  0.312590346084670,  0.312590346604843,  0.562228961048005 ]
    mass: 118.710000
    reduced_to: 25
  - symbol: Sn # 30
    coordinates: [  0.812590346084670,  0.312590346604843,  0.562228961048005 ]
    mass: 118.710000
    reduced_to: 25
  - symbol: Sn # 31
    coordinates: [  0.312590346084670,  0.812590346604843,  0.562228961048005 ]
    mass: 118.710000
    reduced_to: 25
  - symbol: Sn # 32
    coordinates: [  0.812590346084670,  0.812590346604843,  0.562228961048005 ]
    mass: 118.710000
    reduced_to: 25
  - symbol: Sn # 33
    coordinates: [  0.062228961170535,  0.312590346476365,  0.312590346098057 ]
    mass: 118.710000
    reduced_to: 33
  - symbol: Sn # 34
    coordinates: [  0.562228961170535,  0.312590346476365,  0.312590346098057 ]
    mass: 118.710000
    reduced_to: 33
  - symbol: Sn # 35
    coordinates: [  0.062228961170535,  0.812590346476365,  0.312590346098057 ]
    mass: 118.710000
    reduced_to: 33
  - symbol: Sn # 36
    coordinates: [  0.562228961170535,  0.812590346476365,  0.312590346098057 ]
    mass: 118.710000
    reduced_to: 33
  - symbol: Sn # 37
    coordinates: [  0.062228961170535,  0.312590346476365,  0.812590346098057 ]
    mass: 118.710000
    reduced_to: 33
  - symbol: Sn # 38
    coordinates: [  0.562228961170535,  0.312590346476365,  0.812590346098057 ]
    mass: 118.710000
    reduced_to: 33
  - symbol: Sn # 39
    coordinates: [  0.062228961170535,  0.812590346476365,  0.812590346098057 ]
    mass: 118.710000
    reduced_to: 33
  - symbol: Sn # 40
    coordinates: [  0.562228961170535,  0.812590346476365,  0.812590346098057 ]
    mass: 118.710000
    reduced_to: 33
  - symbol: Sn # 41
    coordinates: [  0.312590346656614,  0.062228961670836,  0.312590345851813 ]
    mass: 118.710000
    reduced_to: 41
  - symbol: Sn # 42
    coordinates: [  0.812590346656614,  0.062228961670836,  0.312590345851813 ]
    mass: 118.710000
    reduced_to: 41
  - symbol: Sn # 43
    coordinates: [  0.312590346656614,  0.562228961670836,  0.312590345851813 ]
    mass: 118.710000
    reduced_to: 41
  - symbol: Sn # 44
    coordinates: [  0.812590346656614,  0.562228961670836,  0.312590345851813 ]
    mass: 118.710000
    reduced_to: 41
  - symbol: Sn # 45
    coordinates: [  0.312590346656614,  0.062228961670836,  0.812590345851813 ]
    mass: 118.710000
    reduced_to: 41
  - symbol: Sn # 46
    coordinates: [  0.812590346656614,  0.062228961670836,  0.812590345851813 ]
    mass: 118.710000
    reduced_to: 41
  - symbol: Sn # 47
    coordinates: [  0.312590346656614,  0.562228961670836,  0.812590345851813 ]
    mass: 118.710000
    reduced_to: 41
  - symbol: Sn # 48
    coordinates: [  0.812590346656614,  0.562228961670836,  0.812590345851813 ]
    mass: 118.710000
    reduced_to: 41

displacements:
- atom:    1
  displacement:
    [   0.0100000000000000,  0.0000000000000000,  0.0000000000000000 ]
  forces:
  - [   0.0010377652943134, -0.0000004236644600,  0.0000006593763828 ]
  - [   0.0000972673296928,  0.0000011597876437,  0.0000010300427675 ]
  - [   0.0000186078250408,  0.0000453987740912, -0.0000029867514968 ]
  - [   0.0000173300504684, -0.0000464616314275,  0.0000051986426115 ]
  - [   0.0000184998589248,  0.0000113835558295,  0.0000429507344961 ]
  - [   0.0000172619220393, -0.0000112038105726, -0.0000459998846054 ]
  - [  -0.0000015672121663, -0.0000001806765795, -0.0000011716037989 ]
  - [  -0.0000407962324971,  0.0000000633299351, -0.0000005215406418 ]
  - [   0.0000622333536739,  0.0000008121132851,  0.0000004414469004 ]
  - [   0.0001520447258372,  0.0000011829999949,  0.0000002477318048 ]
  - [  -0.0008880470995791, -0.0005509089678526, -0.0003890721127391 ]
  - [  -0.0009206007234752,  0.0005650846287608,  0.0003998605534434 ]
  - [   0.0000981688499451,  0.0000306024157908,  0.0000206790864468 ]
  - [   0.0000984687358141, -0.0000314897333737, -0.0000230111181736 ]
  - [   0.0000624037638772, -0.0000013285316527, -0.0000013252720237 ]
  - [   0.0001520588994026, -0.0000010573421605, -0.0000011352822185 ]
  - [  -0.0217036977410316, -0.0126473978161812, -0.0087342169135809 ]
  - [  -0.0215799771249294, -0.0124924629926682, -0.0086633358150721 ]
  - [  -0.0216993093490601, -0.0126058980822563, -0.0089127793908119 ]
  - [  -0.0217062085866928, -0.0124628469347954, -0.0088125858455896 ]
  - [  -0.0215173959732056, -0.0123028531670570, -0.0086990166455507 ]
  - [  -0.0217359587550163, -0.0124831199645996, -0.0088258329778910 ]
  - [  -0.0217036716639996, -0.0124499201774597, -0.0090106315910816 ]
  - [  -0.0215786844491959, -0.0123303234577179, -0.0088888965547085 ]
  - [  -0.0001948524732143,  0.0001458432525396,  0.0264569148421288 ]
  - [  -0.0002288864925504, -0.0001640915870667,  0.0267093852162361 ]
  - [   0.0001352459803456,  0.0000005606561899,  0.0265799015760422 ]
  - [   0.0000572212265979,  0.0000047245994210,  0.0265813507139683 ]
  - [  -0.0001385367067996,  0.0000022053718567,  0.0265798699110746 ]
  - [  -0.0001148592418758,  0.0000010719522834,  0.0265845544636250 ]
  - [   0.0000403510348406,  0.0001019686460495,  0.0266362186521292 ]
  - [   0.0000406772087445, -0.0001033265143633,  0.0265245810151100 ]
  - [   0.0218375585973263, -0.0125759746879339, -0.0090451231226325 ]
  - [   0.0217027813196182, -0.0124131739139557, -0.0089852344244719 ]
  - [   0.0217098314315081, -0.0124548804014921, -0.0088075892999768 ]
  - [   0.0216948017477989, -0.0125965680927038, -0.0089062256738544 ]
  - [   0.0218894705176353, -0.0127681586891413, -0.0090280007570982 ]
  - [   0.0216764695942402, -0.0125815328210592, -0.0088968193158507 ]
  - [   0.0218360796570778, -0.0127205047756433, -0.0088402368128300 ]
  - [   0.0217040516436100, -0.0126113705337048, -0.0087082367390394 ]
  - [   0.0000406485050917,  0.0251487791538239, -0.0087816882878542 ]
  - [   0.0000401660799980,  0.0249719601124525, -0.0089383190497756 ]
  - [   0.0001353751868010,  0.0250601135194302, -0.0088584851473570 ]
  - [   0.0000570528209209,  0.0250643659383059, -0.0088560562580824 ]
  - [  -0.0001378487795591,  0.0250598490238190, -0.0088583026081324 ]
  - [  -0.0001142621040344,  0.0250643696635962, -0.0088604781776667 ]
  - [  -0.0001946650445461,  0.0249947439879179, -0.0086822286248207 ]
  - [  -0.0002299516636413,  0.0251310989260674, -0.0090583581477404 ]
- atom:    9
  displacement:
    [   0.0100000000000000,  0.0000000000000000,  0.0000000000000000 ]
  forces:
  - [   0.0000622443621978, -0.0000019808212528,  0.0000013941898942 ]
  - [   0.0001519341021776, -0.0000010451185517,  0.0000004321336746 ]
  - [  -0.0009210351854563, -0.0005637981230393, -0.0003986367955804 ]
  - [  -0.0008876901119947,  0.0005521450657398,  0.0003904160112143 ]
  - [   0.0000982318233582,  0.0000306116417050,  0.0000213235616684 ]
  - [   0.0000981989505817, -0.0000317208468914, -0.0000226367264986 ]
  - [   0.0000620429927949,  0.0000005727633834, -0.0000025462359190 ]
  - [   0.0001520588411950,  0.0000001452863216, -0.0000012945383787 ]
  - [   0.0030305180698633, -0.0000231564044952, -0.0000176215544343 ]
  - [   0.0012959118466824,  0.0000005618103387, -0.0000003278255463 ]
  - [   0.0002275043079862,  0.0006169527769089,  0.0000917939469218 ]
  - [   0.0002276413724758, -0.0006166277453303, -0.0000923471525311 ]
  - [   0.0002278573811054,  0.0002920022816397,  0.0005506398156285 ]
  - [   0.0002276152372360, -0.0002932703355327, -0.0005514994263649 ]
  - [  -0.0002788262791000, -0.0000006734626368, -0.0000007459893823 ]
  - [  -0.0002159550786018, -0.0000004624307621, -0.0000006454065442 ]
  - [  -0.0218057595193386, -0.0123960673809052, -0.0087646357715130 ]
  - [  -0.0216571688652039, -0.0122117698192596, -0.0086349043995142 ]
  - [  -0.0217566341161728, -0.0120222903788090, -0.0090430639684200 ]
  - [  -0.0216280296444893, -0.0123391598463058, -0.0090743340551853 ]
  - [  -0.0217578411102295, -0.0125338472425938, -0.0083191264420748 ]
  - [  -0.0216291695833206, -0.0126690194010735, -0.0086079929023981 ]
  - [  -0.0216906294226646, -0.0124734174460173, -0.0088195502758026 ]
  - [  -0.0217231512069702, -0.0125937759876251, -0.0089052263647318 ]
  - [  -0.0006806203164160, -0.0003663934767246,  0.0267023593187332 ]
  - [  -0.0007507529808208,  0.0004040859639645,  0.0264390334486961 ]
  - [  -0.0000486716016894, -0.0000037234276533,  0.0265796612948179 ]
  - [   0.0000908840520424, -0.0000004302710295,  0.0265795718878508 ]
  - [  -0.0003360202827025,  0.0000008894130588,  0.0265808291733265 ]
  - [  -0.0002566599287093,  0.0000000735744834,  0.0265815444290638 ]
  - [   0.0001142846012954, -0.0002155387774110,  0.0266078338027000 ]
  - [   0.0001144420020864,  0.0002139247953892,  0.0265557877719402 ]
  - [   0.0217650569975376, -0.0128281470388174, -0.0090700536966324 ]
  - [   0.0216062068939209, -0.0126668382436037, -0.0089563261717558 ]
  - [   0.0216380320489407, -0.0130551438778639, -0.0086656063795090 ]
  - [   0.0217734184116125, -0.0127206835895777, -0.0086447419598699 ]
  - [   0.0216388553380966, -0.0125208497047424, -0.0094187948852777 ]
  - [   0.0217753164470196, -0.0123910121619701, -0.0091108139604330 ]
  - [   0.0216803178191185, -0.0124664288014174, -0.0088144950568676 ]
  - [   0.0217196103185415, -0.0125896651297808, -0.0089014563709497 ]
  - [  -0.0006801374256611,  0.0250566136091948, -0.0092475013807416 ]
  - [  -0.0007515344768763,  0.0250644795596600, -0.0084331687539816 ]
  - [  -0.0003355760127306,  0.0250598303973675, -0.0088587058708072 ]
  - [  -0.0002564135938883,  0.0250614546239376, -0.0088603021577001 ]
  - [  -0.0000482648611069,  0.0250587947666645, -0.0088633578270674 ]
  - [   0.0000907555222511,  0.0250605735927820, -0.0088600469753146 ]
  - [   0.0001142602413893,  0.0250148642808199, -0.0090710418298841 ]
  - [   0.0001136533828685,  0.0251083951443434, -0.0086490120738745 ]
- atom:   17
  displacement:
    [   0.0100000000000000,  0.0000000000000000,  0.0000000000000000 ]
  forces:
  - [  -0.0000022227795853,  0.0000650533329463,  0.0000578789040446 ]
  - [   0.0001359842717648,  0.0000463467004010,  0.0002525951713324 ]
  - [   0.0000046063214540, -0.0000755448127165, -0.0000533536076546 ]
  - [  -0.0000057201832533, -0.0001161202380899, -0.0000818930566311 ]
  - [   0.0001792265684344,  0.0001731924712658,  0.0001222994178534 ]
  - [  -0.0000284606576315,  0.0000525135546923,  0.0000369120389223 ]
  - [  -0.0000024580367608,  0.0000761840492487,  0.0000418610870838 ]
  - [   0.0001358862937195,  0.0002535069361329, -0.0000406987965107 ]
  - [  -0.0001038077461999,  0.0001305639743805,  0.0000916505232453 ]
  - [   0.0000727738079149,  0.0004194838111289,  0.0002960581332445 ]
  - [  -0.0000753792119212,  0.0004090433940291, -0.0001628380268812 ]
  - [   0.0000734088534955,  0.0001950049772859, -0.0000499142333865 ]
  - [  -0.0000756438821554, -0.0000177572946995,  0.0004395516589284 ]
  - [   0.0000735316425562,  0.0000172638392542,  0.0001995963975787 ]
  - [   0.0000114846561701, -0.0001029756385833, -0.0000728089362383 ]
  - [  -0.0000193770974874, -0.0000632399169262, -0.0000450210645795 ]
  - [  -0.0563989430665970, -0.0298431813716888, -0.0211021285504103 ]
  - [  -0.0171735398471355, -0.0124622285366058, -0.0088121220469475 ]
  - [  -0.0202527716755867, -0.0106808859854937, -0.0087779369205236 ]
  - [  -0.0215733200311661, -0.0128540396690369, -0.0088637210428715 ]
  - [  -0.0202549174427986, -0.0118372384458780, -0.0071437507867813 ]
  - [  -0.0215743556618690, -0.0126420035958290, -0.0091637112200260 ]
  - [  -0.0218984931707382, -0.0124536808580160, -0.0088054351508617 ]
  - [  -0.0217867940664291, -0.0125026144087315, -0.0088406875729561 ]
  - [   0.0017958382377401,  0.0022418927401304,  0.0317056588828564 ]
  - [  -0.0001685905735940,  0.0000590868294239,  0.0267954766750336 ]
  - [  -0.0001626777229831, -0.0002952143549919,  0.0266635678708553 ]
  - [   0.0001057333502104, -0.0002811448648572,  0.0266310069710016 ]
  - [   0.0017741904594004,  0.0018856087699533,  0.0318109057843685 ]
  - [  -0.0001898202172015, -0.0000806069001555,  0.0268058851361275 ]
  - [  -0.0000867397757247, -0.0001334100961685,  0.0266517400741577 ]
  - [   0.0000081749549281, -0.0000238418579102,  0.0266294665634632 ]
  - [   0.0322034396231174, -0.0129587668925524, -0.0091621819883585 ]
  - [   0.0327922776341438, -0.0128471050411463, -0.0090838205069304 ]
  - [   0.0214208085089922, -0.0127759464085102, -0.0089186364784837 ]
  - [   0.0214223470538855, -0.0128136929124594, -0.0088130198419094 ]
  - [   0.0214219316840172, -0.0126661602407694, -0.0090716462582350 ]
  - [   0.0214239023625851, -0.0125801712274551, -0.0091427499428391 ]
  - [   0.0218859463930130, -0.0124369002878666, -0.0087935663759708 ]
  - [   0.0218160971999168, -0.0125115998089314, -0.0088462932035327 ]
  - [   0.0017958693206310,  0.0306427069008350, -0.0084563335403800 ]
  - [  -0.0001693479716778,  0.0252851173281670, -0.0088771497830749 ]
  - [   0.0017745383083820,  0.0306191146373749, -0.0088254045695066 ]
  - [  -0.0001895204186440,  0.0252459645271301, -0.0090112481266260 ]
  - [  -0.0001617614179850,  0.0250411815941334, -0.0091659585013986 ]
  - [   0.0001060031354427,  0.0250155013054609, -0.0091420318931341 ]
  - [  -0.0000869557261467,  0.0250832494348288, -0.0090080806985497 ]
  - [   0.0000075679035945,  0.0250985510647297, -0.0088980104774237 ]
- atom:   17
  displacement:
    [  -0.0100000000000000,  0.0000000000000000,  0.0000000000000000 ]
  forces:
  - [   0.0000008304741641, -0.0000609414564678, -0.0000651748850942 ]
  - [  -0.0001243669539690, -0.0000386754254578, -0.0002810852602124 ]
  - [  -0.0000064391642809,  0.0000747849844629,  0.0000529382377863 ]
  - [   0.0000075511634350,  0.0001131166354753,  0.0000801412388682 ]
  - [  -0.0001941751397680, -0.0001514041796327, -0.0001074019819498 ]
  - [   0.0000330932452925, -0.0000445675104856, -0.0000315327197313 ]
  - [   0.0000005492875061, -0.0000818260014057, -0.0000359285622835 ]
  - [  -0.0001243817241630, -0.0002780640497804,  0.0000568907707930 ]
  - [   0.0000985288788797, -0.0001397673040628, -0.0000994876027107 ]
  - [  -0.0000386246538255, -0.0004805307253264, -0.0003404915332794 ]
  - [   0.0000425543694291, -0.0003398125991225,  0.0001147445291281 ]
  - [  -0.0000707320068614, -0.0001844977959991,  0.0000376608222723 ]
  - [   0.0000424999743700, -0.0000055178825278, -0.0003593685105443 ]
  - [  -0.0000702999532223, -0.0000265254639089, -0.0001875823363662 ]
  - [  -0.0000137938686748,  0.0001074540487025,  0.0000756653025746 ]
  - [   0.0000209957361221,  0.0000644529354759,  0.0000452855601907 ]
  - [   0.0129995495080948,  0.0047897621989250,  0.0033874027431011 ]
  - [  -0.0262420587241650, -0.0126017630100250, -0.0089103747159243 ]
  - [  -0.0231569632887840, -0.0143817719072104, -0.0089425984770060 ]
  - [  -0.0218293219804764, -0.0122043862938881, -0.0088593736290932 ]
  - [  -0.0231595039367676, -0.0132263638079166, -0.0105784442275763 ]
  - [  -0.0218300670385361, -0.0124210081994534, -0.0085526313632727 ]
  - [  -0.0215117223560810, -0.0126040372997522, -0.0089117307215929 ]
  - [  -0.0216201692819595, -0.0125567764043808, -0.0088790506124496 ]
  - [  -0.0017833535093814, -0.0022723982110620,  0.0213761106133461 ]
  - [   0.0001555450144224, -0.0000563301146030,  0.0263818949460983 ]
  - [   0.0001591709151398,  0.0002918336540461,  0.0265014041215181 ]
  - [  -0.0001023335280479,  0.0002821711823344,  0.0265303589403629 ]
  - [  -0.0017879660008475, -0.0018547577783465,  0.0214362572878599 ]
  - [   0.0002033772470895,  0.0000752955675125,  0.0263386536389589 ]
  - [   0.0000867931375979,  0.0001371121034026,  0.0265108980238438 ]
  - [  -0.0000092751524789,  0.0000242218375206,  0.0265346989035606 ]
  - [   0.0106876967474818, -0.0120674818754196, -0.0085319476202130 ]
  - [   0.0111533850431442, -0.0122520141303539, -0.0086630703881383 ]
  - [   0.0219852812588215, -0.0122888647019863, -0.0088061178103089 ]
  - [   0.0219866167753935, -0.0122463814914227, -0.0089099854230881 ]
  - [   0.0219860859215260, -0.0123977977782488, -0.0086495010182261 ]
  - [   0.0219884105026722, -0.0124829653650522, -0.0085754441097379 ]
  - [   0.0215182676911354, -0.0126220583915710, -0.0089244265109301 ]
  - [   0.0215978808701038, -0.0125539768487215, -0.0088762035593390 ]
  - [  -0.0017838403582573,  0.0193985775113106, -0.0092692403122783 ]
  - [   0.0001548957079649,  0.0248571299016476, -0.0088480664417148 ]
  - [  -0.0017877966165543,  0.0195913333445787, -0.0088937841355801 ]
  - [   0.0002035498619080,  0.0248578581959009, -0.0087082386016846 ]
  - [   0.0001597777009010,  0.0250838417559862, -0.0085583431646228 ]
  - [  -0.0001023449003696,  0.0251085646450520, -0.0085772741585970 ]
  - [   0.0000867675989866,  0.0250408984720707, -0.0087061459198594 ]
  - [  -0.0000100550805655,  0.0250248741358519, -0.0088210534304380 ]

force_constants:
  format: "full"
  shape: [ 48, 48 ]
  elements:
  - # (1, 1)
    - [    -0.103785142038103,    -0.000000000045254,    -0.000000000004036 ]
    - [    -0.000000000045254,    -0.103785141996085,     0.000000000028758 ]
    - [    -0.000000000004036,     0.000000000028758,    -0.103785141946111 ]
  - # (1, 2)
    - [    -0.009735768087459,    -0.000000000027540,    -0.000000000168491 ]
    - [     0.000000000005746,     0.000840496111391,     0.000482318458219 ]
    - [    -0.000000000113973,     0.000482318496217,     0.000499445433158 ]
  - # (1, 3)
    - [    -0.001803569977472,    -0.004579656742446,     0.000417700021117 ]
    - [    -0.004579656666481,    -0.007091701891057,    -0.000241159231455 ]
    - [     0.000417700098052,    -0.000241159167094,     0.000499445516165 ]
  - # (1, 4)
    - [    -0.001803569965275,     0.004579656735303,    -0.000417700022478 ]
    - [     0.004579656578312,    -0.007091701927137,    -0.000241159109833 ]
    - [    -0.000417700125212,    -0.000241159010084,     0.000499445513169 ]
  - # (1, 5)
    - [    -0.001803569933257,    -0.001132740965224,    -0.004456975207868 ]
    - [    -0.001132740834569,    -0.000495593421930,    -0.002573235626171 ]
    - [    -0.004456975047322,    -0.002573235882436,    -0.006096663195674 ]
  - # (1, 6)
    - [    -0.001803570048482,     0.001132740936907,     0.004456975197845 ]
    - [     0.001132740894563,    -0.000495593415120,    -0.002573235719446 ]
    - [     0.004456975127390,    -0.002573235816035,    -0.006096662942282 ]
  - # (1, 7)
    - [     0.000158394855536,    -0.000000000103835,     0.000000000073371 ]
    - [    -0.000000000106836,    -0.002457558016972,     0.005146471521502 ]
    - [     0.000000000100289,     0.005146471510843,    -0.006096663071487 ]
  - # (1, 8)
    - [     0.004071010689615,     0.000000000004583,     0.000000000002565 ]
    - [    -0.000000000003533,     0.004071010617631,     0.000000000081054 ]
    - [     0.000000000052162,     0.000000000055952,     0.004071010760532 ]
  - # (1, 9)
    - [    -0.006223749631607,     0.000000000634258,    -0.000000000363024 ]
    - [     0.000000000638815,     0.122641847330575,    -0.045560869564521 ]
    - [    -0.000000000262997,    -0.045560869634927,     0.009884450755053 ]
  - # (1, 10)
    - [    -0.015208493439621,     0.000000000011607,    -0.000000000172654 ]
    - [    -0.000000000039027,    -0.015208493396144,     0.000000000054328 ]
    - [    -0.000000000101657,     0.000000000096335,    -0.007140973522379 ]
  - # (1, 11)
    - [     0.090425449705295,     0.055800441583407,     0.039456871238449 ]
    - [     0.055800440026215,     0.025992649925787,     0.022780434795180 ]
    - [     0.039456869949796,     0.022780434720788,     0.009884450589417 ]
  - # (1, 12)
    - [     0.090425448985559,    -0.055800440997159,    -0.039456868537392 ]
    - [    -0.055800439593726,     0.025992649498810,     0.022780433210381 ]
    - [    -0.039456868696019,     0.022780433772531,     0.009884449046070 ]
  - # (1, 13)
    - [    -0.009830146952286,    -0.003105189994840,    -0.002195700734554 ]
    - [    -0.003105189823256,    -0.013415711092839,     0.001267688564405 ]
    - [    -0.002195700773198,     0.001267688558409,    -0.014312102685594 ]
  - # (1, 14)
    - [    -0.009830147013706,     0.003105189781588,     0.002195700697184 ]
    - [     0.003105189713322,    -0.013415711106199,     0.001267688424519 ]
    - [     0.002195700688798,     0.001267688509593,    -0.014312102475328 ]
  - # (1, 15)
    - [    -0.006223749761575,     0.000000000036621,    -0.000000002192808 ]
    - [    -0.000000000034032,    -0.006223749460190,     0.000000000840908 ]
    - [    -0.000000001601653,     0.000000001010412,     0.138750047340846 ]
  - # (1, 16)
    - [    -0.015208493481321,    -0.000000000052200,    -0.000000000096431 ]
    - [    -0.000000000096358,    -0.008037364486422,    -0.002535376745185 ]
    - [     0.000000000021157,    -0.002535376927056,    -0.014312102388189 ]
  - # (1, 17)
    - [     0.000094176748255,     0.011719343909434,    -0.012547171292976 ]
    - [    -0.006337881749139,    -0.002339021523176,     0.001831033034503 ]
    - [    -0.006162978362003,     0.012888780958040,     0.005486545227293 ]
  - # (1, 18)
    - [    -0.012957190348121,    -0.004209816996848,    -0.019152137691032 ]
    - [    -0.004209815811660,    -0.008096114604932,    -0.011057491709189 ]
    - [    -0.026642229057829,    -0.015381898472666,     0.017161505868829 ]
  - # (1, 19)
    - [    -0.000531381117185,     0.007524952613324,     0.005320944483045 ]
    - [     0.007524950275759,    -0.009220444092068,     0.003072049079675 ]
    - [     0.005320943714736,     0.003072049226251,    -0.011392711553348 ]
  - # (1, 20)
    - [     0.000599521315429,    -0.006629642194306,    -0.004687864523701 ]
    - [     0.011427585242772,    -0.002844364884604,    -0.011781685484241 ]
    - [     0.008080522849388,    -0.011781686350103,     0.005486545987002 ]
  - # (1, 21)
    - [    -0.018615535332597,    -0.023254960536526,    -0.016443740351093 ]
    - [    -0.016193234654650,     0.011704348910641,     0.012282391334784 ]
    - [    -0.011450346131644,     0.012282391380629,     0.003019386263487 ]
  - # (1, 22)
    - [     0.003020549885306,    -0.004875889856999,    -0.003447774405265 ]
    - [    -0.004875889157289,     0.008650741132831,    -0.001990573152435 ]
    - [    -0.003447773922035,    -0.001990573786680,     0.010058289986064 ]
  - # (1, 23)
    - [     0.000094175301531,    -0.007923137870043,     0.015231495788153 ]
    - [    -0.007923139094269,     0.009243029978827,     0.008793907592532 ]
    - [    -0.003921086138338,    -0.002263839960287,    -0.006095505012116 ]
  - # (1, 24)
    - [    -0.012957190596446,    -0.019460080679352,     0.002414991793773 ]
    - [    -0.026521805369838,     0.006046005114981,    -0.020381893325572 ]
    - [     0.004911690153687,    -0.016057486923716,     0.003019386494145 ]
  - # (1, 25)
    - [     0.021205947159659,    -0.015514280741196,     0.012695186866232 ]