# Thermal properties / unit cell (natom)

unit:
  temperature:   K
  free_energy:   kJ/mol
  entropy:       J/K/mol
  heat_capacity: J/K/mol

natom: 6    
cutoff_frequency: 0.00000
num_modes: 307800
num_integrated_modes: 307799

zero_point_energy:      12.5957373

thermal_properties:
- temperature:         0.0000000
  free_energy:        12.5957373
  entropy:             0.0000000
  heat_capacity:       0.0000000
  energy:             12.5957373

- temperature:        10.0000000
  free_energy:        12.5914242
  entropy:             1.8624306
  heat_capacity:       6.1506613
  energy:             12.6100486

- temperature:        20.0000000
  free_energy:        12.5233395
  entropy:            13.3243674
  heat_capacity:      30.9650239
  energy:             12.7898269

- temperature:        30.0000000
  free_energy:        12.3065850
  entropy:            30.4089264
  heat_capacity:      53.5833979
  energy:             13.2188527

- temperature:        40.0000000
  free_energy:        11.9135498
  entropy:            48.0971737
  heat_capacity:      69.1655415
  energy:             13.8374368

- temperature:        50.0000000
  free_energy:        11.3480581
  entropy:            64.8000071
  heat_capacity:      80.4670938
  energy:             14.5880585

- temperature:        60.0000000
  free_energy:        10.6215854
  entropy:            80.3002038
  heat_capacity:      89.5713473
  energy:             15.4395976

- temperature:        70.0000000
  free_energy:         9.7457070
  entropy:            94.7046690
  heat_capacity:      97.3234113
  energy:             16.3750339

- temperature:        80.0000000
  free_energy:         8.7306921
  entropy:           108.1481263
  heat_capacity:     104.0140695
  energy:             17.3825422

- temperature:        90.0000000
  free_energy:         7.5855792
  entropy:           120.7403970
  heat_capacity:     109.7740904
  energy:             18.4522150

- temperature:       100.0000000
  free_energy:         6.3184302
  entropy:           132.5683664
  heat_capacity:     114.7070525
  energy:             19.5752669

- temperature:       110.0000000
  free_energy:         4.9365191
  entropy:           143.7038718
  heat_capacity:     118.9166446
  energy:             20.7439450

- temperature:       120.0000000
  free_energy:         3.4464534
  entropy:           154.2089637
  heat_capacity:     122.5047646
  energy:             21.9515291

- temperature:       130.0000000
  free_energy:         1.8542571
  entropy:           164.1386748
  heat_capacity:     125.5658870
  energy:             23.1922848

- temperature:       140.0000000
  free_energy:         0.1654326
  entropy:           173.5424115
  heat_capacity:     128.1836433
  energy:             24.4613702

- temperature:       150.0000000
  free_energy:        -1.6149868
  entropy:           182.4647146
  heat_capacity:     130.4298186
  energy:             25.7547204

- temperature:       160.0000000
  free_energy:        -3.4823913
  entropy:           190.9457617
  heat_capacity:     132.3648568
  energy:             27.0689306

- temperature:       170.0000000
  free_energy:        -5.4325523
  entropy:           199.0217731
  heat_capacity:     134.0390824
  energy:             28.4011491

- temperature:       180.0000000
  free_energy:        -7.4615857
  entropy:           206.7253792
  heat_capacity:     135.4941462
  energy:             29.7489825

- temperature:       190.0000000
  free_energy:        -9.5659169
  entropy:           214.0859664
  heat_capacity:     136.7644383
  energy:             31.1104168

- temperature:       200.0000000
  free_energy:       -11.7422502
  entropy:           221.1300038
  heat_capacity:     137.8783537
  energy:             32.4837506

- temperature:       210.0000000
  free_energy:       -13.9875415
  entropy:           227.8813469
  heat_capacity:     138.8593743
  energy:             33.8675413

- temperature:       220.0000000
  free_energy:       -16.2989734
  entropy:           234.3615172
  heat_capacity:     139.7269703
  energy:             35.2605603

- temperature:       230.0000000
  free_energy:       -18.6739330
  entropy:           240.5899561
  heat_capacity:     140.4973388
  energy:             36.6617569

- temperature:       240.0000000
  free_energy:       -21.1099923
  entropy:           246.5842526
  heat_capacity:     141.1840044
  energy:             38.0702284

- temperature:       250.0000000
  free_energy:       -23.6048909
  entropy:           252.3603474
  heat_capacity:     141.7983056
  energy:             39.4851960

- temperature:       260.0000000
  free_energy:       -26.1565203
  entropy:           257.9327134
  heat_capacity:     142.3497867
  energy:             40.9059852

- temperature:       270.0000000
  free_energy:       -28.7629100
  entropy:           263.3145163
  heat_capacity:     142.8465154
  energy:             42.3320093

- temperature:       280.0000000
  free_energy:       -31.4222155
  entropy:           268.5177552
  heat_capacity:     143.2953398
  energy:             43.7627560

- temperature:       290.0000000
  free_energy:       -34.1327066
  entropy:           273.5533882
  heat_capacity:     143.7020958
  energy:             45.1977760

- temperature:       300.0000000
  free_energy:       -36.8927581
  entropy:           278.4314416
  heat_capacity:     144.0717773
  energy:             46.6366744

- temperature:       310.0000000
  free_energy:       -39.7008409
  entropy:           283.1611071
  heat_capacity:     144.4086736
  energy:             48.0791023

- temperature:       320.0000000
  free_energy:       -42.5555138
  entropy:           287.7508274
  heat_capacity:     144.7164834
  energy:             49.5247510

- temperature:       330.0000000
  free_energy:       -45.4554169
  entropy:           292.2083717
  heat_capacity:     144.9984073
  energy:             50.9733458

- temperature:       340.0000000
  free_energy:       -48.3992646
  entropy:           296.5409021
  heat_capacity:     145.2572248
  energy:             52.4246421

- temperature:       350.0000000
  free_energy:       -51.3858403
  entropy:           300.7550333
  heat_capacity:     145.4953580
  energy:             53.8784213

- temperature:       360.0000000
  free_energy:       -54.4139910
  entropy:           304.8568846
  heat_capacity:     145.7149241
  energy:             55.3344874

- temperature:       370.0000000
  free_energy:       -57.4826227
  entropy:           308.8521266
  heat_capacity:     145.9177802
  energy:             56.7926642

- temperature:       380.0000000
  free_energy:       -60.5906958
  entropy:           312.7460226
  heat_capacity:     146.1055597
  energy:             58.2527928

- temperature:       390.0000000
  free_energy:       -63.7372217
  entropy:           316.5434656
  heat_capacity:     146.2797036
  energy:             59.7147299

- temperature:       400.0000000
  free_energy:       -66.9212588
  entropy:           320.2490112
  heat_capacity:     146.4414867
  energy:             61.1783457

- temperature:       410.0000000
  free_energy:       -70.1419098
  entropy:           323.8669073
  heat_capacity:     146.5920399
  energy:             62.6435222

- temperature:       420.0000000
  free_energy:       -73.3983181
  entropy:           327.4011201
  heat_capacity:     146.7323690
  energy:             64.1101524

- temperature:       430.0000000
  free_energy:       -76.6896656
  entropy:           330.8553585
  heat_capacity:     146.8633707
  energy:             65.5781385

- temperature:       440.0000000
  free_energy:       -80.0151702
  entropy:           334.2330946
  heat_capacity:     146.9858465
  energy:             67.0473914

- temperature:       450.0000000
  free_energy:       -83.3740834
  entropy:           337.5375840
  heat_capacity:     147.1005143
  energy:             68.5178294

- temperature:       460.0000000
  free_energy:       -86.7656880
  entropy:           340.7718821
  heat_capacity:     147.2080186
  energy:             69.9893778

- temperature:       470.0000000
  free_energy:       -90.1892966
  entropy:           343.9388606
  heat_capacity:     147.3089395
  energy:             71.4619679

- temperature:       480.0000000
  free_energy:       -93.6442498
  entropy:           347.0412213
  heat_capacity:     147.4037997
  energy:             72.9355364

- temperature:       490.0000000
  free_energy:       -97.1299142
  entropy:           350.0815090
  heat_capacity:     147.4930716
  energy:             74.4100252

- temperature:       500.0000000
  free_energy:      -100.6456811
  entropy:           353.0621235
  heat_capacity:     147.5771827
  energy:             75.8853806

- temperature:       510.0000000
  free_energy:      -104.1909653
  entropy:           355.9853300
  heat_capacity:     147.6565208
  energy:             77.3615530

- temperature:       520.0000000
  free_energy:      -107.7652035
  entropy:           358.8532689
  heat_capacity:     147.7314379
  energy:             78.8384963

- temperature:       530.0000000
  free_energy:      -111.3678532
  entropy:           361.6679647
  heat_capacity:     147.8022547
  energy:             80.3161681

- temperature:       540.0000000
  free_energy:      -114.9983917
  entropy:           364.4313341
  heat_capacity:     147.8692632
  energy:             81.7945287

- temperature:       550.0000000
  free_energy:      -118.6563149
  entropy:           367.1451935
  heat_capacity:     147.9327302
  energy:             83.2735415

- temperature:       560.0000000
  free_energy:      -122.3411363
  entropy:           369.8112654
  heat_capacity:     147.9928996
  energy:             84.7531723

- temperature:       570.0000000
  free_energy:      -126.0523863
  entropy:           372.4311853
  heat_capacity:     148.0499947
  energy:             86.2333893

- temperature:       580.0000000
  free_energy:      -129.7896113
  entropy:           375.0065069
  heat_capacity:     148.1042205
  energy:             87.7141627

- temperature:       590.0000000
  free_energy:      -133.5523727
  entropy:           377.5387076
  heat_capacity:     148.1557651
  energy:             89.1954648

- temperature:       600.0000000
  free_energy:      -137.3402464
  entropy:           380.0291934
  heat_capacity:     148.2048016
  energy:             90.6772696

- temperature:       610.0000000
  free_energy:      -141.1528220
  entropy:           382.4793033
  heat_capacity:     148.2514893
  energy:             92.1595530

- temperature:       620.0000000
  free_energy:      -144.9897022
  entropy:           384.8903133
  heat_capacity:     148.2959753
  energy:             93.6422921

- temperature:       630.0000000
  free_energy:      -148.8505020
  entropy:           387.2634407
  heat_capacity:     148.3383954
  energy:             95.1254656

- temperature:       640.0000000
  free_energy:      -152.7348486
  entropy:           389.5998470
  heat_capacity:     148.3788748
  energy:             96.6090535

- temperature:       650.0000000
  free_energy:      -156.6423803
  entropy:           391.9006420
  heat_capacity:     148.4175298
  energy:             98.0930370

- temperature:       660.0000000
  free_energy:      -160.5727463
  entropy:           394.1668858
  heat_capacity:     148.4544680
  energy:             99.5773984

- temperature:       670.0000000
  free_energy:      -164.5256062
  entropy:           396.3995928
  heat_capacity:     148.4897891
  energy:            101.0621210

- temperature:       680.0000000
  free_energy:      -168.5006296
  entropy:           398.5997333
  heat_capacity:     148.5235859
  energy:            102.5471891

- temperature:       690.0000000
  free_energy:      -172.4974954
  entropy:           400.7682367
  heat_capacity:     148.5559445
  energy:            104.0325879

- temperature:       700.0000000
  free_energy:      -176.5158918
  entropy:           402.9059933
  heat_capacity:     148.5869450
  energy:            105.5183034

- temperature:       710.0000000
  free_energy:      -180.5555156
  entropy:           405.0138566
  heat_capacity:     148.6166623
  energy:            107.0043225

- temperature:       720.0000000
  free_energy:      -184.6160720
  entropy:           407.0926454
  heat_capacity:     148.6451659
  energy:            108.4906327

- temperature:       730.0000000
  free_energy:      -188.6972743
  entropy:           409.1431456
  heat_capacity:     148.6725208
  energy:            109.9772220

- temperature:       740.0000000
  free_energy:      -192.7988432
  entropy:           411.1661117
  heat_capacity:     148.6987877
  energy:            111.4640794

- temperature:       750.0000000
  free_energy:      -196.9205071
  entropy:           413.1622686
  heat_capacity:     148.7240234
  energy:            112.9511943

- temperature:       760.0000000
  free_energy:      -201.0620015
  entropy:           415.1323134
  heat_capacity:     148.7482811
  energy:            114.4385566

- temperature:       770.0000000
  free_energy:      -205.2230686
  entropy:           417.0769162
  heat_capacity:     148.7716104
  energy:            115.9261569

- temperature:       780.0000000
  free_energy:      -209.4034572
  entropy:           418.9967219
  heat_capacity:     148.7940581
  energy:            117.4139859

- temperature:       790.0000000
  free_energy:      -213.6029224
  entropy:           420.8923515
  heat_capacity:     148.8156678
  energy:            118.9020352

- temperature:       800.0000000
  free_energy:      -217.8212256
  entropy:           422.7644028
  heat_capacity:     148.8364807
  energy:            120.3902966

- temperature:       810.0000000
  free_energy:      -222.0581338
  entropy:           424.6134520
  heat_capacity:     148.8565354
  energy:            121.8787623

- temperature:       820.0000000
  free_energy:      -226.3134198
  entropy:           426.4400546
  heat_capacity:     148.8758681
  energy:            123.3674249

- temperature:       830.0000000
  free_energy:      -230.5868619
  entropy:           428.2447461
  heat_capacity:     148.8945130
  energy:            124.8562774

- temperature:       840.0000000
  free_energy:      -234.8782435
  entropy:           430.0280434
  heat_capacity:     148.9125024
  energy:            126.3453130

- temperature:       850.0000000
  free_energy:      -239.1873531
  entropy:           431.7904452
  heat_capacity:     148.9298664
  energy:            127.8345253

- temperature:       860.0000000
  free_energy:      -243.5139843
  entropy:           433.5324333
  heat_capacity:     148.9466337
  energy:            129.3239083

- temperature:       870.0000000
  free_energy:      -247.8579353
  entropy:           435.2544729
  heat_capacity:     148.9628312
  energy:            130.8134561

- temperature:       880.0000000
  free_energy:      -252.2190088
  entropy:           436.9570135
  heat_capacity:     148.9784845
  energy:            132.3031631

- temperature:       890.0000000
  free_energy:      -256.5970120
  entropy:           438.6404900
  heat_capacity:     148.9936175
  energy:            133.7930241

- temperature:       900.0000000
  free_energy:      -260.9917564
  entropy:           440.3053225
  heat_capacity:     149.0082531
  energy:            135.2830338

- temperature:       910.0000000
  free_energy:      -265.4030577
  entropy:           441.9519178
  heat_capacity:     149.0224127
  energy:            136.7731876

- temperature:       920.0000000
  free_energy:      -269.8307353
  entropy:           443.5806694
  heat_capacity:     149.0361168
  energy:            138.2634806

- temperature:       930.0000000
  free_energy:      -274.2746128
  entropy:           445.1919584
  heat_capacity:     149.0493846
  energy:            139.7539084

- temperature:       940.0000000
  free_energy:      -278.7345175
  entropy:           446.7861536
  heat_capacity:     149.0622344
  energy:            141.2444669

- temperature:       950.0000000
  free_energy:      -283.2102801
  entropy:           448.3636126
  heat_capacity:     149.0746836
  energy:            142.7351518

- temperature:       960.0000000
  free_energy:      -287.7017351
  entropy:           449.9246817
  heat_capacity:     149.0867486
  energy:            144.2259593

- temperature:       970.0000000
  free_energy:      -292.2087203
  entropy:           451.4696967
  heat_capacity:     149.0984450
  energy:            145.7168855

- temperature:       980.0000000
  free_energy:      -296.7310766
  entropy:           452.9989833
  heat_capacity:     149.1097877
  energy:            147.2079270

- temperature:       990.0000000
  free_energy:      -301.2686485
  entropy:           454.5128573
  heat_capacity:     149.1207908
  energy:            148.6990802

- temperature:      1000.0000000
  free_energy:      -305.8212834
  entropy:           456.0116251
  heat_capacity:     149.1314676
  energy:            150.1903417
