phonopy:
  version: "2.37.1"
  frequency_unit_conversion_factor: 15.633302
  symmetry_tolerance: 1.00000e-05

space_group:
  type: "Cm"
  number: 8
  Hall_symbol: "C -2y"

primitive_matrix:
- [ -1.000000000000000, -0.000000000000000,  0.000000000000000 ]
- [ -1.000000000000000, -1.000000000000000,  1.000000000000000 ]
- [ -1.000000000000000, -0.000000000000000,  1.000000000000000 ]

supercell_matrix:
- [   3,   0,   0 ]
- [   0,   3,   0 ]
- [   0,   0,   3 ]

primitive_cell:
  lattice:
  - [    -2.355244763506938,    -2.308536109147643,    -3.290400834895733 ] # a
  - [    -0.010314772218358,    -4.658663770117994,    -0.000000000000000 ] # b
  - [    -2.303430425593062,     2.308536109147642,     3.290400834895734 ] # c
  points:
  - symbol: Li # 1
    coordinates: [  0.000000000000000,  0.000000000000000,  0.000000000000000 ]
    mass: 6.940000
  - symbol: Sn # 2
    coordinates: [  0.747728958300000,  0.747728958300000,  0.248053038500000 ]
    mass: 118.710000
  - symbol: Sn # 3
    coordinates: [  0.252271041700000,  0.252271041700000,  0.752377764000000 ]
    mass: 118.710000
  reciprocal_lattice: # without 2pi
  - [    -0.214653299362815,     0.000475265011192,    -0.150600529239684 ] # a*
  - [     0.000000000000000,    -0.214653825505564,     0.150600529239768 ] # b*
  - [    -0.214653299362815,     0.000475265011192,     0.153313811346024 ] # c*

unit_cell:
  lattice:
  - [     4.658675189100000,     0.000000000000000,     0.000000000000000 ] # a
  - [     0.010314772218358,     4.658663770117993,     0.000000000000000 ] # b
  - [    -2.313745197811421,    -2.350127660970351,     3.290400834895733 ] # c
  points:
  - symbol: Li # 1
    coordinates: [  0.000000000000000,  0.000000000000000,  0.000000000000000 ]
    mass: 6.940000
    reduced_to: 1
  - symbol: Sn # 2
    coordinates: [  0.252271041700000,  0.752595121900000,  0.500324080200000 ]
    mass: 118.710000
    reduced_to: 2
  - symbol: Sn # 3
    coordinates: [  0.747728958300000,  0.247835680600000,  0.500106722300000 ]
    mass: 118.710000
    reduced_to: 3

supercell:
  lattice:
  - [    13.976025567300001,     0.000000000000000,     0.000000000000000 ] # a
  - [     0.030944316655073,    13.975991310353979,     0.000000000000000 ] # b
  - [    -6.941235593434262,    -7.050382982911055,     9.871202504687201 ] # c
  points:
  - symbol: Li # 1
    coordinates: [  0.000000000000000,  0.000000000000000,  0.000000000000000 ]
    mass: 6.940000
    reduced_to: 1
  - symbol: Li # 2
    coordinates: [  0.333333333333333,  0.000000000000000,  0.000000000000000 ]
    mass: 6.940000
    reduced_to: 1
  - symbol: Li # 3
    coordinates: [  0.666666666666667,  0.000000000000000,  0.000000000000000 ]
    mass: 6.940000
    reduced_to: 1
  - symbol: Li # 4
    coordinates: [  0.000000000000000,  0.333333333333333,  0.000000000000000 ]
    mass: 6.940000
    reduced_to: 1
  - symbol: Li # 5
    coordinates: [  0.333333333333333,  0.333333333333333,  0.000000000000000 ]
    mass: 6.940000
    reduced_to: 1
  - symbol: Li # 6
    coordinates: [  0.666666666666667,  0.333333333333333,  0.000000000000000 ]
    mass: 6.940000
    reduced_to: 1
  - symbol: Li # 7
    coordinates: [  0.000000000000000,  0.666666666666667,  0.000000000000000 ]
    mass: 6.940000
    reduced_to: 1
  - symbol: Li # 8
    coordinates: [  0.333333333333333,  0.666666666666667,  0.000000000000000 ]
    mass: 6.940000
    reduced_to: 1
  - symbol: Li # 9
    coordinates: [  0.666666666666667,  0.666666666666667,  0.000000000000000 ]
    mass: 6.940000
    reduced_to: 1
  - symbol: Li # 10
    coordinates: [  0.000000000000000,  0.000000000000000,  0.333333333333333 ]
    mass: 6.940000
    reduced_to: 1
  - symbol: Li # 11
    coordinates: [  0.333333333333333,  0.000000000000000,  0.333333333333333 ]
    mass: 6.940000
    reduced_to: 1
  - symbol: Li # 12
    coordinates: [  0.666666666666667,  0.000000000000000,  0.333333333333333 ]
    mass: 6.940000
    reduced_to: 1
  - symbol: Li # 13
    coordinates: [  0.000000000000000,  0.333333333333333,  0.333333333333333 ]
    mass: 6.940000
    reduced_to: 1
  - symbol: Li # 14
    coordinates: [  0.333333333333333,  0.333333333333333,  0.333333333333333 ]
    mass: 6.940000
    reduced_to: 1
  - symbol: Li # 15
    coordinates: [  0.666666666666667,  0.333333333333333,  0.333333333333333 ]
    mass: 6.940000
    reduced_to: 1
  - symbol: Li # 16
    coordinates: [  0.000000000000000,  0.666666666666667,  0.333333333333333 ]
    mass: 6.940000
    reduced_to: 1
  - symbol: Li # 17
    coordinates: [  0.333333333333333,  0.666666666666667,  0.333333333333333 ]
    mass: 6.940000
    reduced_to: 1
  - symbol: Li # 18
    coordinates: [  0.666666666666667,  0.666666666666667,  0.333333333333333 ]
    mass: 6.940000
    reduced_to: 1
  - symbol: Li # 19
    coordinates: [  0.000000000000000,  0.000000000000000,  0.666666666666667 ]
    mass: 6.940000
    reduced_to: 1
  - symbol: Li # 20
    coordinates: [  0.333333333333333,  0.000000000000000,  0.666666666666667 ]
    mass: 6.940000
    reduced_to: 1
  - symbol: Li # 21
    coordinates: [  0.666666666666667,  0.000000000000000,  0.666666666666667 ]
    mass: 6.940000
    reduced_to: 1
  - symbol: Li # 22
    coordinates: [  0.000000000000000,  0.333333333333333,  0.666666666666667 ]
    mass: 6.940000
    reduced_to: 1
  - symbol: Li # 23
    coordinates: [  0.333333333333333,  0.333333333333333,  0.666666666666667 ]
    mass: 6.940000
    reduced_to: 1
  - symbol: Li # 24
    coordinates: [  0.666666666666667,  0.333333333333333,  0.666666666666667 ]
    mass: 6.940000
    reduced_to: 1
  - symbol: Li # 25
    coordinates: [  0.000000000000000,  0.666666666666667,  0.666666666666667 ]
    mass: 6.940000
    reduced_to: 1
  - symbol: Li # 26
    coordinates: [  0.333333333333333,  0.666666666666667,  0.666666666666667 ]
    mass: 6.940000
    reduced_to: 1
  - symbol: Li # 27
    coordinates: [  0.666666666666667,  0.666666666666667,  0.666666666666667 ]
    mass: 6.940000
    reduced_to: 1
  - symbol: Sn # 28
    coordinates: [  0.084090347233333,  0.250865040633333,  0.166774693400000 ]
    mass: 118.710000
    reduced_to: 28
  - symbol: Sn # 29
    coordinates: [  0.417423680566667,  0.250865040633333,  0.166774693400000 ]
    mass: 118.710000
    reduced_to: 28
  - symbol: Sn # 30
    coordinates: [  0.750757013900000,  0.250865040633333,  0.166774693400000 ]
    mass: 118.710000
    reduced_to: 28
  - symbol: Sn # 31
    coordinates: [  0.084090347233333,  0.584198373966667,  0.166774693400000 ]
    mass: 118.710000
    reduced_to: 28
  - symbol: Sn # 32
    coordinates: [  0.417423680566667,  0.584198373966667,  0.166774693400000 ]
    mass: 118.710000
    reduced_to: 28
  - symbol: Sn # 33
    coordinates: [  0.750757013900000,  0.584198373966667,  0.166774693400000 ]
    mass: 118.710000
    reduced_to: 28
  - symbol: Sn # 34
    coordinates: [  0.084090347233333,  0.917531707300000,  0.166774693400000 ]
    mass: 118.710000
    reduced_to: 28
  - symbol: Sn # 35
    coordinates: [  0.417423680566667,  0.917531707300000,  0.166774693400000 ]
    mass: 118.710000
    reduced_to: 28
  - symbol: Sn # 36
    coordinates: [  0.750757013900000,  0.917531707300000,  0.166774693400000 ]
    mass: 118.710000
    reduced_to: 28
  - symbol: Sn # 37
    coordinates: [  0.084090347233333,  0.250865040633333,  0.500108026733333 ]
    mass: 118.710000
    reduced_to: 28
  - symbol: Sn # 38
    coordinates: [  0.417423680566667,  0.250865040633333,  0.500108026733333 ]
    mass: 118.710000
    reduced_to: 28
  - symbol: Sn # 39
    coordinates: [  0.750757013900000,  0.250865040633333,  0.500108026733333 ]
    mass: 118.710000
    reduced_to: 28
  - symbol: Sn # 40
    coordinates: [  0.084090347233333,  0.584198373966667,  0.500108026733333 ]
    mass: 118.710000
    reduced_to: 28
  - symbol: Sn # 41
    coordinates: [  0.417423680566667,  0.584198373966667,  0.500108026733333 ]
    mass: 118.710000
    reduced_to: 28
  - symbol: Sn # 42
    coordinates: [  0.750757013900000,  0.584198373966667,  0.500108026733333 ]
    mass: 118.710000
    reduced_to: 28
  - symbol: Sn # 43
    coordinates: [  0.084090347233333,  0.917531707300000,  0.500108026733333 ]
    mass: 118.710000
    reduced_to: 28
  - symbol: Sn # 44
    coordinates: [  0.417423680566667,  0.917531707300000,  0.500108026733333 ]
    mass: 118.710000
    reduced_to: 28
  - symbol: Sn # 45
    coordinates: [  0.750757013900000,  0.917531707300000,  0.500108026733333 ]
    mass: 118.710000
    reduced_to: 28
  - symbol: Sn # 46
    coordinates: [  0.084090347233333,  0.250865040633333,  0.833441360066667 ]
    mass: 118.710000
    reduced_to: 28
  - symbol: Sn # 47
    coordinates: [  0.417423680566667,  0.250865040633333,  0.833441360066667 ]
    mass: 118.710000
    reduced_to: 28
  - symbol: Sn # 48
    coordinates: [  0.750757013900000,  0.250865040633333,  0.833441360066667 ]
    mass: 118.710000
    reduced_to: 28
  - symbol: Sn # 49
    coordinates: [  0.084090347233333,  0.584198373966667,  0.833441360066667 ]
    mass: 118.710000
    reduced_to: 28
  - symbol: Sn # 50
    coordinates: [  0.417423680566667,  0.584198373966667,  0.833441360066667 ]
    mass: 118.710000
    reduced_to: 28
  - symbol: Sn # 51
    coordinates: [  0.750757013900000,  0.584198373966667,  0.833441360066667 ]
    mass: 118.710000
    reduced_to: 28
  - symbol: Sn # 52
    coordinates: [  0.084090347233333,  0.917531707300000,  0.833441360066667 ]
    mass: 118.710000
    reduced_to: 28
  - symbol: Sn # 53
    coordinates: [  0.417423680566667,  0.917531707300000,  0.833441360066667 ]
    mass: 118.710000
    reduced_to: 28
  - symbol: Sn # 54
    coordinates: [  0.750757013900000,  0.917531707300000,  0.833441360066667 ]
    mass: 118.710000
    reduced_to: 28
  - symbol: Sn # 55
    coordinates: [  0.249242986100000,  0.082611893533333,  0.166702240766667 ]
    mass: 118.710000
    reduced_to: 55
  - symbol: Sn # 56
    coordinates: [  0.582576319433333,  0.082611893533333,  0.166702240766667 ]
    mass: 118.710000
    reduced_to: 55
  - symbol: Sn # 57
    coordinates: [  0.915909652766667,  0.082611893533333,  0.166702240766667 ]
    mass: 118.710000
    reduced_to: 55
  - symbol: Sn # 58
    coordinates: [  0.249242986100000,  0.415945226866667,  0.166702240766667 ]
    mass: 118.710000
    reduced_to: 55
  - symbol: Sn # 59
    coordinates: [  0.582576319433333,  0.415945226866667,  0.166702240766667 ]
    mass: 118.710000
    reduced_to: 55
  - symbol: Sn # 60
    coordinates: [  0.915909652766667,  0.415945226866667,  0.166702240766667 ]
    mass: 118.710000
    reduced_to: 55
  - symbol: Sn # 61
    coordinates: [  0.249242986100000,  0.749278560200000,  0.166702240766667 ]
    mass: 118.710000
    reduced_to: 55
  - symbol: Sn # 62
    coordinates: [  0.582576319433333,  0.749278560200000,  0.166702240766667 ]
    mass: 118.710000
    reduced_to: 55
  - symbol: Sn # 63
    coordinates: [  0.915909652766667,  0.749278560200000,  0.166702240766667 ]
    mass: 118.710000
    reduced_to: 55
  - symbol: Sn # 64
    coordinates: [  0.249242986100000,  0.082611893533333,  0.500035574100000 ]
    mass: 118.710000
    reduced_to: 55
  - symbol: Sn # 65
    coordinates: [  0.582576319433333,  0.082611893533333,  0.500035574100000 ]
    mass: 118.710000
    reduced_to: 55
  - symbol: Sn # 66
    coordinates: [  0.915909652766667,  0.082611893533333,  0.500035574100000 ]
    mass: 118.710000
    reduced_to: 55
  - symbol: Sn # 67
    coordinates: [  0.249242986100000,  0.415945226866667,  0.500035574100000 ]
    mass: 118.710000
    reduced_to: 55
  - symbol: Sn # 68
    coordinates: [  0.582576319433333,  0.415945226866667,  0.500035574100000 ]
    mass: 118.710000
    reduced_to: 55
  - symbol: Sn # 69
    coordinates: [  0.915909652766667,  0.415945226866667,  0.500035574100000 ]
    mass: 118.710000
    reduced_to: 55
  - symbol: Sn # 70
    coordinates: [  0.249242986100000,  0.749278560200000,  0.500035574100000 ]
    mass: 118.710000
    reduced_to: 55
  - symbol: Sn # 71
    coordinates: [  0.582576319433333,  0.749278560200000,  0.500035574100000 ]
    mass: 118.710000
    reduced_to: 55
  - symbol: Sn # 72
    coordinates: [  0.915909652766667,  0.749278560200000,  0.500035574100000 ]
    mass: 118.710000
    reduced_to: 55
  - symbol: Sn # 73
    coordinates: [  0.249242986100000,  0.082611893533333,  0.833368907433333 ]
    mass: 118.710000
    reduced_to: 55
  - symbol: Sn # 74
    coordinates: [  0.582576319433333,  0.082611893533333,  0.833368907433333 ]
    mass: 118.710000
    reduced_to: 55
  - symbol: Sn # 75
    coordinates: [  0.915909652766667,  0.082611893533333,  0.833368907433333 ]
    mass: 118.710000
    reduced_to: 55
  - symbol: Sn # 76
    coordinates: [  0.249242986100000,  0.415945226866667,  0.833368907433333 ]
    mass: 118.710000
    reduced_to: 55
  - symbol: Sn # 77
    coordinates: [  0.582576319433333,  0.415945226866667,  0.833368907433333 ]
    mass: 118.710000
    reduced_to: 55
  - symbol: Sn # 78
    coordinates: [  0.915909652766667,  0.415945226866667,  0.833368907433333 ]
    mass: 118.710000
    reduced_to: 55
  - symbol: Sn # 79
    coordinates: [  0.249242986100000,  0.749278560200000,  0.833368907433333 ]
    mass: 118.710000
    reduced_to: 55
  - symbol: Sn # 80
    coordinates: [  0.582576319433333,  0.749278560200000,  0.833368907433333 ]
    mass: 118.710000
    reduced_to: 55
  - symbol: Sn # 81
    coordinates: [  0.915909652766667,  0.749278560200000,  0.833368907433333 ]
    mass: 118.710000
    reduced_to: 55

displacements:
- atom:    1
  displacement:
    [   0.0100000000000000,  0.0000000000000000,  0.0000000000000000 ]
  forces:
  - [  -0.0294861234724522,  0.0011227277573198,  0.0015725151170045 ]
  - [  -0.0004921795334667,  0.0012124344939366,  0.0017074812203646 ]
  - [  -0.0004754365072586,  0.0012143908534199,  0.0017095073126256 ]
  - [  -0.0009980354225263,  0.0011918278178200,  0.0017568758921698 ]
  - [  -0.0012387200258672,  0.0012854664819315,  0.0017442260868847 ]
  - [  -0.0012394519289955,  0.0011560366256163,  0.0017441271338612 ]
  - [  -0.0009967227233574,  0.0011904328130186,  0.0017565991729498 ]
  - [  -0.0012384650763124,  0.0011520211119205,  0.0017441044328734 ]
  - [  -0.0012383537832648,  0.0012827061582357,  0.0017433487810194 ]
  - [  -0.0009752097539604,  0.0015280011575669,  0.0015507722273469 ]
  - [  -0.0009372683707625,  0.0009179976768792,  0.0019479560432956 ]
  - [  -0.0011313231661916,  0.0012279691873118,  0.0017265060450882 ]
  - [  -0.0011021329555660,  0.0009071298991330,  0.0015910975635052 ]
  - [  -0.0010834985878319,  0.0015174301806837,  0.0019168145954609 ]
  - [  -0.0011626954656094,  0.0012185885570943,  0.0017400989308953 ]
  - [  -0.0011522306594998,  0.0012274936307222,  0.0017169157508761 ]
  - [  -0.0011544993612915,  0.0012279268121347,  0.0017395997419953 ]
  - [  -0.0012803757563233,  0.0012263554381207,  0.0017298476304859 ]
  - [  -0.0009731524623930,  0.0015257010236382,  0.0015547201037407 ]
  - [  -0.0011306852102280,  0.0012277308851480,  0.0017248522490263 ]
  - [  -0.0009397082030773,  0.0009164634975605,  0.0019535264000297 ]
  - [  -0.0011552765499800,  0.0012286455603316,  0.0017178580164909 ]
  - [  -0.0012788651511073,  0.0012282778043300,  0.0017334793228656 ]
  - [  -0.0011512816417962,  0.0012268857099116,  0.0017428586725146 ]
  - [  -0.0010754305403680,  0.0009151053382084,  0.0015831775963306 ]
  - [  -0.0011394666507840,  0.0012284610420465,  0.0017265209462494 ]
  - [  -0.0010602980619296,  0.0015290986048058,  0.0019096634350717 ]
  - [   0.0133926114067435,  0.0117177320644259, -0.0010620467364788 ]
  - [   0.0126348445191979,  0.0111574772745371, -0.0010502003133297 ]
  - [   0.0126147493720055,  0.0121157327666879, -0.0010994919575751 ]
  - [   0.0131648872047663,  0.0116236032918096, -0.0010829148814082 ]
  - [   0.0131688332185149,  0.0116266552358866, -0.0009574266150594 ]
  - [   0.0131683079525828,  0.0116310091689229, -0.0012117614969611 ]
  - [   0.0131962401792407,  0.0115567101165652, -0.0010984558612108 ]
  - [   0.0125877000391483,  0.0121170952916145, -0.0010545346885920 ]
  - [   0.0125939855352044,  0.0111365346238017, -0.0010817651636899 ]
  - [   0.0130484057590365,  0.0116236843168736, -0.0008286754600704 ]
  - [   0.0130348484963179,  0.0116033963859081, -0.0013210014440119 ]
  - [   0.0130917215719819,  0.0116181597113609, -0.0010796411661431 ]
  - [   0.0132416654378176,  0.0115896556526423, -0.0011556207900867 ]
  - [   0.0132499169558287,  0.0116470335051417, -0.0010263157309964 ]
  - [   0.0130645036697388,  0.0116127198562026, -0.0010958823841065 ]
  - [   0.0132254436612129,  0.0116571504622698, -0.0011598940473050 ]
  - [   0.0132290050387383,  0.0115827741101384, -0.0009994790889323 ]
  - [   0.0130522092804313,  0.0116341691464186, -0.0010757545242086 ]
  - [   0.0127357775345445,  0.0113571397960186, -0.0010864643845707 ]
  - [   0.0133436396718025,  0.0116047095507383, -0.0010970976436511 ]
  - [   0.0127160977572203,  0.0119246514514089, -0.0010432734852657 ]
  - [   0.0127546861767769,  0.0118819577619433, -0.0011164142051712 ]
  - [   0.0133451055735350,  0.0116082737222314, -0.0010850717080757 ]
  - [   0.0127299772575498,  0.0113321477547288, -0.0010372324613854 ]
  - [   0.0211039744317532,  0.0117050353437662, -0.0066187558695674 ]
  - [   0.0133729772642255,  0.0116196107119322, -0.0010787725914270 ]
  - [   0.0209203921258450,  0.0115573313087225,  0.0042881919071078 ]
  - [  -0.0041286498308182, -0.0128985755145550,  0.0048086857423186 ]
  - [  -0.0117324208840728, -0.0128447990864515, -0.0006590347038582 ]
  - [  -0.0040873819962144, -0.0127646718174219, -0.0060865124687552 ]
  - [  -0.0123842619359493, -0.0131229180842638, -0.0006069443188608 ]
  - [  -0.0117764715105295, -0.0128525979816914, -0.0006556960288435 ]
  - [  -0.0123824123293161, -0.0125619946047664, -0.0006680719088763 ]
  - [  -0.0123910065740347, -0.0125556737184525, -0.0006247619166970 ]
  - [  -0.0117842415347695, -0.0128529490903020, -0.0006552542326972 ]
  - [  -0.0123817399144173, -0.0131220910698175, -0.0006684833206236 ]
  - [  -0.0120637463405728, -0.0128374639898539, -0.0006467191269621 ]
  - [  -0.0118949301540852, -0.0128777306526899, -0.0005643691401929 ]
  - [  -0.0118882330134511, -0.0128158722072840, -0.0007402733899653 ]
  - [  -0.0120772626250982, -0.0128428498283029, -0.0006450838409364 ]
  - [  -0.0118976896628737, -0.0128032453358173, -0.0005677553126588 ]
  - [  -0.0118854288011789, -0.0128848087042570, -0.0007322021992877 ]
  - [  -0.0120233707129955, -0.0128505229949951, -0.0006569179240614 ]
  - [  -0.0120947733521461, -0.0128527674823999, -0.0008775647729635 ]
  - [  -0.0120625346899033, -0.0128435855731368, -0.0003985658986494 ]
  - [  -0.0125311613082886, -0.0133298123255372, -0.0006534681888297 ]
  - [  -0.0125189125537872, -0.0123656112700701, -0.0006427849875763 ]
  - [  -0.0119140129536390, -0.0129683203995228, -0.0006575876614079 ]
  - [  -0.0119499061256647, -0.0128384353592992, -0.0007876984309405 ]
  - [  -0.0119559876620770, -0.0128332134336233, -0.0005208587972447 ]
  - [  -0.0119562465697527, -0.0128395454958081, -0.0006554441060871 ]
  - [  -0.0125164333730936, -0.0123322457075119, -0.0006645257817581 ]
  - [  -0.0124816559255123, -0.0133007010444999, -0.0006268420256674 ]
  - [  -0.0117347687482834, -0.0126824779435992, -0.0006145709194243 ]
- atom:    1
  displacement:
    [  -0.0100000000000000,  0.0000000000000000,  0.0000000000000000 ]
  forces:
  - [   0.0270493533462286,  0.0013161596143618,  0.0019083985826001 ]
  - [  -0.0019625031854957,  0.0012242933735251,  0.0017723126802593 ]
  - [  -0.0019451860571280,  0.0012235201429576,  0.0017713464330882 ]
  - [  -0.0014565790770575,  0.0012016327818856,  0.0017007892020047 ]
  - [  -0.0012004498858005,  0.0011545232264325,  0.0017363262595609 ]
  - [  -0.0011995374225080,  0.0012849596096203,  0.0017379885539412 ]
  - [  -0.0014551522908732,  0.0011965195881203,  0.0017002518288791 ]
  - [  -0.0011986554600298,  0.0012808534083888,  0.0017369178822264 ]
  - [  -0.0011999851558357,  0.0011531222844496,  0.0017363142687827 ]
  - [  -0.0014145779423416,  0.0009276491473429,  0.0019030168186873 ]
  - [  -0.0014495393261313,  0.0015377153176814,  0.0015068752691150 ]
  - [  -0.0012600396294147,  0.0012281306553632,  0.0017301224870607 ]
  - [  -0.0013385144993663,  0.0015324503183365,  0.0018844134174287 ]
  - [  -0.0013545935507864,  0.0009188367985189,  0.0015600242186338 ]
  - [  -0.0012735305353999,  0.0012173491995782,  0.0017419774085283 ]
  - [  -0.0012352701742202,  0.0012259719660506,  0.0017382665537298 ]
  - [  -0.0012394150253385,  0.0012279635993764,  0.0017125911545008 ]
  - [  -0.0011113833170384,  0.0012259904760867,  0.0017225022893399 ]
  - [  -0.0014121115673333,  0.0009272584575228,  0.0019081039354205 ]
  - [  -0.0012595206499100,  0.0012281505623832,  0.0017285821959376 ]
  - [  -0.0014519151300192,  0.0015361675759777,  0.0015073996037245 ]
  - [  -0.0012381969718263,  0.0012271078303456,  0.0017393361777067 ]
  - [  -0.0011099599068984,  0.0012280814116821,  0.0017250024247915 ]
  - [  -0.0012363048736006,  0.0012269516009837,  0.0017158219125122 ]
  - [  -0.0013117596972734,  0.0015407538739964,  0.0018766336143017 ]
  - [  -0.0012503861216828,  0.0012272280873731,  0.0017285386566073 ]
  - [  -0.0013316102558747,  0.0009284765692428,  0.0015492115635425 ]
  - [   0.0129552688449621,  0.0114609906449914, -0.0011354563757777 ]
  - [   0.0137014677748084,  0.0120828328654170, -0.0011141961440444 ]
  - [   0.0137272886931896,  0.0111237736418843, -0.0010651007760316 ]
  - [   0.0131745738908648,  0.0116200465708971, -0.0010849079117179 ]
  - [   0.0131630208343267,  0.0116265555843711, -0.0012024110183120 ]
  - [   0.0131649570539594,  0.0116246854886413, -0.0009459952125326 ]
  - [   0.0131400572136045,  0.0117384968325496, -0.0010868674144149 ]
  - [   0.0137377958744764,  0.0111455684527755, -0.0010974286124110 ]
  - [   0.0137383742257953,  0.0121241351589561, -0.0010715961689129 ]
  - [   0.0132638476788998,  0.0116110090166330, -0.0013326822081581 ]
  - [   0.0132984193041921,  0.0116183031350374, -0.0008666290668771 ]
  - [   0.0132232811301947,  0.0116186048835516, -0.0010774221736938 ]
  - [   0.0130921527743340,  0.0116615705192089, -0.0010003274073824 ]
  - [   0.0131054120138288,  0.0115806628018618, -0.0011656682472676 ]
  - [   0.0132755246013403,  0.0116285048425198, -0.0010760523146018 ]
  - [   0.0130825303494930,  0.0115874223411083, -0.0009873860981315 ]
  - [   0.0130855431780219,  0.0116532733663917, -0.0011573649244383 ]
  - [   0.0132525507360697,  0.0116130262613297, -0.0010762687306851 ]
  - [   0.0135851548984647,  0.0119184302166104, -0.0010483704973012 ]
  - [   0.0129970237612724,  0.0116094872355461, -0.0010961169609800 ]
  - [   0.0135888904333115,  0.0113277770578861, -0.0011046770960093 ]
  - [   0.0135896224528551,  0.0113538280129433, -0.0010540820658207 ]
  - [   0.0129793649539351,  0.0116175077855587, -0.0010833288542926 ]
  - [   0.0135817173868418,  0.0118958503007889, -0.0011205347254872 ]
  - [   0.0052778869867325,  0.0115339569747448,  0.0043663918040693 ]
  - [   0.0129435425624251,  0.0116171706467867, -0.0010806780774146 ]
  - [   0.0053174337372184,  0.0116899795830250, -0.0065297009423375 ]
  - [  -0.0197149552404881, -0.0127785727381706, -0.0060129761695862 ]
  - [  -0.0121606439352036, -0.0128467548638582, -0.0006611519493163 ]
  - [  -0.0198815092444420, -0.0129224145784974,  0.0048681017942727 ]
  - [  -0.0115359025076032, -0.0125622265040874, -0.0006902676541358 ]
  - [  -0.0121420640498400, -0.0128439953550696, -0.0006534518906847 ]
  - [  -0.0115470401942730, -0.0130915110930800, -0.0006060672458261 ]
  - [  -0.0115218134596944, -0.0131478952243924, -0.0006860739085823 ]
  - [  -0.0121308118104935, -0.0128479162231088, -0.0006541354232468 ]
  - [  -0.0115329902619123, -0.0125587387010455, -0.0006309419404715 ]
  - [  -0.0118646174669266, -0.0128576094284654, -0.0006489326478913 ]
  - [  -0.0120384618639946, -0.0128062013536692, -0.0007222297135741 ]
  - [  -0.0120312487706542, -0.0128848068416119, -0.0005688300589100 ]
  - [  -0.0118655040860176, -0.0128281749784946, -0.0006265919655561 ]
  - [  -0.0120421200990677, -0.0128709012642503, -0.0007067247061059 ]
  - [  -0.0120348446071148, -0.0128141082823277, -0.0005777764599770 ]
  - [  -0.0118924472481012, -0.0128501802682877, -0.0006540184840560 ]
  - [  -0.0118311867117882, -0.0128387864679098, -0.0004129968583584 ]
  - [  -0.0118491621688008, -0.0128562692552805, -0.0009062438039109 ]
  - [  -0.0113905742764473, -0.0123422164469957, -0.0006408856716007 ]
  - [  -0.0113714728504419, -0.0133344549685717, -0.0006855675019324 ]
  - [  -0.0119782919064164, -0.0127733787521720, -0.0006505388300866 ]
  - [  -0.0119534181430936, -0.0128443371504545, -0.0005225609056652 ]
  - [  -0.0119624193757772, -0.0128325754776597, -0.0007652576314285 ]
  - [  -0.0119466809555888, -0.0128426207229495, -0.0006570197874680 ]
  - [  -0.0114030744880438, -0.0133266113698483, -0.0006296877982095 ]
  - [  -0.0114149227738380, -0.0123753696680069, -0.0006891500670463 ]
  - [  -0.0121571924537420, -0.0129526443779469, -0.0006922967731953 ]
- atom:    1
  displacement:
    [   0.0000221409988885,  0.0099999754887784,  0.0000000000000000 ]
  forces:
  - [  -0.0013774721883237, -0.0270142368972301,  0.0019299569539726 ]
  - [  -0.0012203338555992,  0.0014485642313957,  0.0017110666958615 ]
  - [  -0.0012240440119058,  0.0014488947344944,  0.0017110712360591 ]
  - [  -0.0012303807307035,  0.0019172540633008,  0.0017610522918403 ]
  - [  -0.0011533403303474,  0.0011990135535598,  0.0017366169486195 ]
  - [  -0.0012857050169259,  0.0011989114573225,  0.0017380658537149 ]
  - [  -0.0012300107628107,  0.0019331438234076,  0.0017614477546886 ]
  - [  -0.0012814509682357,  0.0011980143608525,  0.0017369585111737 ]
  - [  -0.0011554104276001,  0.0011999974958599,  0.0017357375472784 ]
  - [  -0.0008936196099967,  0.0013631463516504,  0.0015464868629351 ]
  - [  -0.0015053169336170,  0.0014804789097980,  0.0015059993602335 ]
  - [  -0.0011957180686295,  0.0012713659089059,  0.0017131929052994 ]
  - [  -0.0015307203866541,  0.0013420034665614,  0.0018854078371078 ]
  - [  -0.0009206593967974,  0.0014364557573572,  0.0019142474047840 ]
  - [  -0.0012172618880868,  0.0012585644144565,  0.0017499064560980 ]
  - [  -0.0011936696246266,  0.0012819871772081,  0.0017299663741142 ]
  - [  -0.0011960463598371,  0.0012915796833113,  0.0017293840646744 ]
  - [  -0.0011959008406848,  0.0011417126515880,  0.0017223055474460 ]
  - [  -0.0008940068073571,  0.0013661365956068,  0.0015488686040044 ]
  - [  -0.0011947862803936,  0.0012699696235359,  0.0017146188765764 ]
  - [  -0.0015023332089186,  0.0014840734656900,  0.0015065278857946 ]
  - [  -0.0011952946661040,  0.0012831180356443,  0.0017277989536524 ]
  - [  -0.0011943823192269,  0.0011438048677519,  0.0017247288487852 ]
  - [  -0.0011944735888392,  0.0012905176263303,  0.0017294138669968 ]
  - [  -0.0015082585159689,  0.0013457818422467,  0.0018773777410388 ]
  - [  -0.0011941577540711,  0.0012698830105364,  0.0017396782059222 ]
  - [  -0.0008941307896748,  0.0014431811869144,  0.0019058061297983 ]
  - [   0.0132719976827502,  0.0195424407720566,  0.0044246837496758 ]
  - [   0.0128911798819900,  0.0112011963501573, -0.0010653221979737 ]
  - [   0.0134293474256992,  0.0112072648480535, -0.0010548387654126 ]
  - [   0.0131711224094033,  0.0118355071172118, -0.0010836906731129 ]
  - [   0.0131655810400844,  0.0117997573688626, -0.0010773083195090 ]
  - [   0.0131608722731471,  0.0118103250861168, -0.0010766452178359 ]
  - [   0.0131297018378973,  0.0193794965744019, -0.0064438292756677 ]
  - [   0.0134654715657234,  0.0111889550462365, -0.0011098841205239 ]
  - [   0.0128784496337175,  0.0111999595537782, -0.0011210301890969 ]
  - [   0.0131470710039139,  0.0115121398121119, -0.0010658986866474 ]
  - [   0.0131780076771975,  0.0115113388746977, -0.0010885121300817 ]
  - [   0.0131571386009455,  0.0115524586290121, -0.0010767348576337 ]
  - [   0.0131296347826719,  0.0117015391588211, -0.0009989577811211 ]
  - [   0.0132142007350922,  0.0116868438199162, -0.0010097163030878 ]
  - [   0.0131757557392120,  0.0115136764943600, -0.0013334021205083 ]
  - [   0.0131871588528156,  0.0116939926519990, -0.0011419173097238 ]
  - [   0.0131230568513274,  0.0116888573393226, -0.0011556670069695 ]
  - [   0.0131449513137341,  0.0114892423152924, -0.0008383534150198 ]
  - [   0.0126906959339976,  0.0110991671681404, -0.0011016241041943 ]
  - [   0.0131709296256304,  0.0116084897890687, -0.0012170332483947 ]
  - [   0.0136410426348448,  0.0110460566356778, -0.0010998444631696 ]
  - [   0.0136619135737419,  0.0110653424635530, -0.0010697417892516 ]
  - [   0.0131653714925051,  0.0116159394383430, -0.0009499886655249 ]
  - [   0.0126666976138949,  0.0110510122030973, -0.0010742091108114 ]
  - [   0.0132710365578532,  0.0118223810568452, -0.0011098370887339 ]
  - [   0.0131597556173801,  0.0116139966994524, -0.0010795246344060 ]
  - [   0.0130767710506916,  0.0116564081981778, -0.0010620327666402 ]
  - [  -0.0120769795030355, -0.0128039624541998, -0.0006521034520119 ]
  - [  -0.0119447819888592, -0.0128501532599330, -0.0006619524210691 ]
  - [  -0.0117920432239771, -0.0126283643767238, -0.0006994405994192 ]
  - [  -0.0124594625085592, -0.0134176993742585, -0.0006404382875189 ]
  - [  -0.0119560798630118, -0.0128482561558485, -0.0005232620751485 ]
  - [  -0.0114648826420307, -0.0133897289633751, -0.0006170347332954 ]
  - [  -0.0114779770374298, -0.0134214013814926, -0.0006758847739547 ]
  - [  -0.0119580384343863, -0.0128456410020590, -0.0007789533119649 ]
  - [  -0.0124150924384594, -0.0133673585951328, -0.0006801835261285 ]
  - [  -0.0119717344641685, -0.0129807945340872, -0.0004277711268514 ]