phonopy:
  version: "2.37.1"
  frequency_unit_conversion_factor: 15.633302
  symmetry_tolerance: 1.00000e-05

space_group:
  type: "P1"
  number: 1
  Hall_symbol: "P 1"

primitive_matrix:
- [ -1.000000000000000,  0.000000000000000, -0.000000000000000 ]
- [  0.000000000000000, -1.000000000000000, -0.000000000000000 ]
- [  0.000000000000000,  0.000000000000000,  1.000000000000000 ]

supercell_matrix:
- [   3,   0,   0 ]
- [   0,   3,   0 ]
- [   0,   0,   1 ]

primitive_cell:
  lattice:
  - [    -4.148996569352351,     0.000000000000000,     0.000000000000000 ] # a
  - [    -0.000269954340017,    -4.165549465950326,     0.000000000000000 ] # b
  - [    -0.002658848761652,    -2.080528188125152,    10.209921397296757 ] # c
  points:
  - symbol: Li # 1
    coordinates: [  0.032808221100054,  0.739002278835541,  0.308918951616911 ]
    mass: 6.940000
  - symbol: Li # 2
    coordinates: [  0.532751237581219,  0.632140109545393,  0.524557531610990 ]
    mass: 6.940000
  - symbol: Li # 3
    coordinates: [  0.532673014742056,  0.034561499100581,  0.718854833942156 ]
    mass: 6.940000
  - symbol: Li # 4
    coordinates: [  0.032750506645961,  0.342660032613190,  0.101409507228876 ]
    mass: 6.940000
  - symbol: Ga # 5
    coordinates: [  0.032608210289685,  0.131792677306776,  0.524119253071878 ]
    mass: 69.723000
  - symbol: Ga # 6
    coordinates: [  0.032773484896901,  0.935642920524562,  0.917276557573674 ]
    mass: 69.723000
  - symbol: Ga # 7
    coordinates: [  0.032772806525751,  0.538007036573710,  0.711488964839411 ]
    mass: 69.723000
  - symbol: Ga # 8
    coordinates: [  0.532594673427770,  0.841979147928636,  0.101684062480739 ]
    mass: 69.723000
  - symbol: Ga # 9
    coordinates: [  0.532621509313071,  0.444151949954635,  0.898544712844591 ]
    mass: 69.723000
  - symbol: Sn # 10
    coordinates: [  0.532827764126047,  0.234015138812562,  0.319594859749796 ]
    mass: 118.710000
  reciprocal_lattice: # without 2pi
  - [    -0.241022132287783,     0.000015619781060,    -0.000059583612792 ] # a*
  - [    -0.000000000000000,    -0.240064368020141,    -0.048919150813697 ] # b*
  - [    -0.000000000000000,    -0.000000000000000,     0.097943946979334 ] # c*

unit_cell:
  lattice:
  - [     4.148996569352351,     0.000000000000000,     0.000000000000000 ] # a
  - [     0.000269954340017,     4.165549465950325,     0.000000000000000 ] # b
  - [    -0.002658848761652,    -2.080528188125151,    10.209921397296755 ] # c
  points:
  - symbol: Li # 1
    coordinates: [  0.967191778899946,  0.260997721164459,  0.308918951616911 ]
    mass: 6.940000
    reduced_to: 1
  - symbol: Li # 2
    coordinates: [  0.467248762418781,  0.367859890454607,  0.524557531610990 ]
    mass: 6.940000
    reduced_to: 2
  - symbol: Li # 3
    coordinates: [  0.467326985257944,  0.965438500899420,  0.718854833942156 ]
    mass: 6.940000
    reduced_to: 3
  - symbol: Li # 4
    coordinates: [  0.967249493354039,  0.657339967386810,  0.101409507228876 ]
    mass: 6.940000
    reduced_to: 4
  - symbol: Ga # 5
    coordinates: [  0.967391789710315,  0.868207322693224,  0.524119253071878 ]
    mass: 69.723000
    reduced_to: 5
  - symbol: Ga # 6
    coordinates: [  0.967226515103099,  0.064357079475438,  0.917276557573674 ]
    mass: 69.723000
    reduced_to: 6
  - symbol: Ga # 7
    coordinates: [  0.967227193474249,  0.461992963426290,  0.711488964839411 ]
    mass: 69.723000
    reduced_to: 7
  - symbol: Ga # 8
    coordinates: [  0.467405326572230,  0.158020852071364,  0.101684062480739 ]
    mass: 69.723000
    reduced_to: 8
  - symbol: Ga # 9
    coordinates: [  0.467378490686929,  0.555848050045365,  0.898544712844591 ]
    mass: 69.723000
    reduced_to: 9
  - symbol: Sn # 10
    coordinates: [  0.467172235873953,  0.765984861187438,  0.319594859749796 ]
    mass: 118.710000
    reduced_to: 10

supercell:
  lattice:
  - [    12.446989708057052,     0.000000000000000,     0.000000000000000 ] # a
  - [     0.000809863020050,    12.496648397850976,     0.000000000000000 ] # b
  - [    -0.002658848761652,    -2.080528188125151,    10.209921397296755 ] # c
  points:
  - symbol: Li # 1
    coordinates: [  0.322397259633315,  0.086999240388153,  0.308918951616911 ]
    mass: 6.940000
    reduced_to: 1
  - symbol: Li # 2
    coordinates: [  0.655730592966649,  0.086999240388153,  0.308918951616911 ]
    mass: 6.940000
    reduced_to: 1
  - symbol: Li # 3
    coordinates: [  0.989063926299982,  0.086999240388153,  0.308918951616911 ]
    mass: 6.940000
    reduced_to: 1
  - symbol: Li # 4
    coordinates: [  0.322397259633315,  0.420332573721486,  0.308918951616911 ]
    mass: 6.940000
    reduced_to: 1
  - symbol: Li # 5
    coordinates: [  0.655730592966649,  0.420332573721486,  0.308918951616911 ]
    mass: 6.940000
    reduced_to: 1
  - symbol: Li # 6
    coordinates: [  0.989063926299982,  0.420332573721486,  0.308918951616911 ]
    mass: 6.940000
    reduced_to: 1
  - symbol: Li # 7
    coordinates: [  0.322397259633315,  0.753665907054820,  0.308918951616911 ]
    mass: 6.940000
    reduced_to: 1
  - symbol: Li # 8
    coordinates: [  0.655730592966649,  0.753665907054820,  0.308918951616911 ]
    mass: 6.940000
    reduced_to: 1
  - symbol: Li # 9
    coordinates: [  0.989063926299982,  0.753665907054820,  0.308918951616911 ]
    mass: 6.940000
    reduced_to: 1
  - symbol: Li # 10
    coordinates: [  0.155749587472927,  0.122619963484869,  0.524557531610990 ]
    mass: 6.940000
    reduced_to: 10
  - symbol: Li # 11
    coordinates: [  0.489082920806260,  0.122619963484869,  0.524557531610990 ]
    mass: 6.940000
    reduced_to: 10
  - symbol: Li # 12
    coordinates: [  0.822416254139594,  0.122619963484869,  0.524557531610990 ]
    mass: 6.940000
    reduced_to: 10
  - symbol: Li # 13
    coordinates: [  0.155749587472927,  0.455953296818203,  0.524557531610990 ]
    mass: 6.940000
    reduced_to: 10
  - symbol: Li # 14
    coordinates: [  0.489082920806260,  0.455953296818203,  0.524557531610990 ]
    mass: 6.940000
    reduced_to: 10
  - symbol: Li # 15
    coordinates: [  0.822416254139594,  0.455953296818203,  0.524557531610990 ]
    mass: 6.940000
    reduced_to: 10
  - symbol: Li # 16
    coordinates: [  0.155749587472927,  0.789286630151536,  0.524557531610990 ]
    mass: 6.940000
    reduced_to: 10
  - symbol: Li # 17
    coordinates: [  0.489082920806260,  0.789286630151536,  0.524557531610990 ]
    mass: 6.940000
    reduced_to: 10
  - symbol: Li # 18
    coordinates: [  0.822416254139594,  0.789286630151536,  0.524557531610990 ]
    mass: 6.940000
    reduced_to: 10
  - symbol: Li # 19
    coordinates: [  0.155775661752648,  0.321812833633140,  0.718854833942156 ]
    mass: 6.940000
    reduced_to: 19
  - symbol: Li # 20
    coordinates: [  0.489108995085981,  0.321812833633140,  0.718854833942156 ]
    mass: 6.940000
    reduced_to: 19
  - symbol: Li # 21
    coordinates: [  0.822442328419315,  0.321812833633140,  0.718854833942156 ]
    mass: 6.940000
    reduced_to: 19
  - symbol: Li # 22
    coordinates: [  0.155775661752648,  0.655146166966473,  0.718854833942156 ]
    mass: 6.940000
    reduced_to: 19
  - symbol: Li # 23
    coordinates: [  0.489108995085981,  0.655146166966473,  0.718854833942156 ]
    mass: 6.940000
    reduced_to: 19
  - symbol: Li # 24
    coordinates: [  0.822442328419315,  0.655146166966473,  0.718854833942156 ]
    mass: 6.940000
    reduced_to: 19
  - symbol: Li # 25
    coordinates: [  0.155775661752648,  0.988479500299806,  0.718854833942156 ]
    mass: 6.940000
    reduced_to: 19
  - symbol: Li # 26
    coordinates: [  0.489108995085981,  0.988479500299806,  0.718854833942156 ]
    mass: 6.940000
    reduced_to: 19
  - symbol: Li # 27
    coordinates: [  0.822442328419315,  0.988479500299806,  0.718854833942156 ]
    mass: 6.940000
    reduced_to: 19
  - symbol: Li # 28
    coordinates: [  0.322416497784680,  0.219113322462270,  0.101409507228876 ]
    mass: 6.940000
    reduced_to: 28
  - symbol: Li # 29
    coordinates: [  0.655749831118013,  0.219113322462270,  0.101409507228876 ]
    mass: 6.940000
    reduced_to: 28
  - symbol: Li # 30
    coordinates: [  0.989083164451346,  0.219113322462270,  0.101409507228876 ]
    mass: 6.940000
    reduced_to: 28
  - symbol: Li # 31
    coordinates: [  0.322416497784680,  0.552446655795603,  0.101409507228876 ]
    mass: 6.940000
    reduced_to: 28
  - symbol: Li # 32
    coordinates: [  0.655749831118013,  0.552446655795603,  0.101409507228876 ]
    mass: 6.940000
    reduced_to: 28
  - symbol: Li # 33
    coordinates: [  0.989083164451346,  0.552446655795603,  0.101409507228876 ]
    mass: 6.940000
    reduced_to: 28
  - symbol: Li # 34
    coordinates: [  0.322416497784680,  0.885779989128937,  0.101409507228876 ]
    mass: 6.940000
    reduced_to: 28
  - symbol: Li # 35
    coordinates: [  0.655749831118013,  0.885779989128937,  0.101409507228876 ]
    mass: 6.940000
    reduced_to: 28
  - symbol: Li # 36
    coordinates: [  0.989083164451346,  0.885779989128937,  0.101409507228876 ]
    mass: 6.940000
    reduced_to: 28
  - symbol: Ga # 37
    coordinates: [  0.322463929903438,  0.289402440897741,  0.524119253071878 ]
    mass: 69.723000
    reduced_to: 37
  - symbol: Ga # 38
    coordinates: [  0.655797263236772,  0.289402440897741,  0.524119253071878 ]
    mass: 69.723000
    reduced_to: 37
  - symbol: Ga # 39
    coordinates: [  0.989130596570105,  0.289402440897741,  0.524119253071878 ]
    mass: 69.723000
    reduced_to: 37
  - symbol: Ga # 40
    coordinates: [  0.322463929903438,  0.622735774231075,  0.524119253071878 ]
    mass: 69.723000
    reduced_to: 37
  - symbol: Ga # 41
    coordinates: [  0.655797263236772,  0.622735774231075,  0.524119253071878 ]
    mass: 69.723000
    reduced_to: 37
  - symbol: Ga # 42
    coordinates: [  0.989130596570105,  0.622735774231075,  0.524119253071878 ]
    mass: 69.723000
    reduced_to: 37
  - symbol: Ga # 43
    coordinates: [  0.322463929903438,  0.956069107564408,  0.524119253071878 ]
    mass: 69.723000
    reduced_to: 37
  - symbol: Ga # 44
    coordinates: [  0.655797263236772,  0.956069107564408,  0.524119253071878 ]
    mass: 69.723000
    reduced_to: 37
  - symbol: Ga # 45
    coordinates: [  0.989130596570105,  0.956069107564408,  0.524119253071878 ]
    mass: 69.723000
    reduced_to: 37
  - symbol: Ga # 46
    coordinates: [  0.322408838367700,  0.021452359825146,  0.917276557573674 ]
    mass: 69.723000
    reduced_to: 46
  - symbol: Ga # 47
    coordinates: [  0.655742171701033,  0.021452359825146,  0.917276557573674 ]
    mass: 69.723000
    reduced_to: 46
  - symbol: Ga # 48
    coordinates: [  0.989075505034366,  0.021452359825146,  0.917276557573674 ]
    mass: 69.723000
    reduced_to: 46
  - symbol: Ga # 49
    coordinates: [  0.322408838367700,  0.354785693158479,  0.917276557573674 ]
    mass: 69.723000
    reduced_to: 46
  - symbol: Ga # 50
    coordinates: [  0.655742171701033,  0.354785693158479,  0.917276557573674 ]
    mass: 69.723000
    reduced_to: 46
  - symbol: Ga # 51
    coordinates: [  0.989075505034366,  0.354785693158479,  0.917276557573674 ]
    mass: 69.723000
    reduced_to: 46
  - symbol: Ga # 52
    coordinates: [  0.322408838367700,  0.688119026491813,  0.917276557573674 ]
    mass: 69.723000
    reduced_to: 46
  - symbol: Ga # 53
    coordinates: [  0.655742171701033,  0.688119026491813,  0.917276557573674 ]
    mass: 69.723000
    reduced_to: 46
  - symbol: Ga # 54
    coordinates: [  0.989075505034366,  0.688119026491813,  0.917276557573674 ]
    mass: 69.723000
    reduced_to: 46
  - symbol: Ga # 55
    coordinates: [  0.322409064491416,  0.153997654475430,  0.711488964839411 ]
    mass: 69.723000
    reduced_to: 55
  - symbol: Ga # 56
    coordinates: [  0.655742397824750,  0.153997654475430,  0.711488964839411 ]
    mass: 69.723000
    reduced_to: 55
  - symbol: Ga # 57
    coordinates: [  0.989075731158083,  0.153997654475430,  0.711488964839411 ]
    mass: 69.723000
    reduced_to: 55
  - symbol: Ga # 58
    coordinates: [  0.322409064491416,  0.487330987808763,  0.711488964839411 ]
    mass: 69.723000
    reduced_to: 55
  - symbol: Ga # 59
    coordinates: [  0.655742397824750,  0.487330987808763,  0.711488964839411 ]
    mass: 69.723000
    reduced_to: 55
  - symbol: Ga # 60
    coordinates: [  0.989075731158083,  0.487330987808763,  0.711488964839411 ]
    mass: 69.723000
    reduced_to: 55
  - symbol: Ga # 61
    coordinates: [  0.322409064491416,  0.820664321142097,  0.711488964839411 ]
    mass: 69.723000
    reduced_to: 55
  - symbol: Ga # 62
    coordinates: [  0.655742397824750,  0.820664321142097,  0.711488964839411 ]
    mass: 69.723000
    reduced_to: 55
  - symbol: Ga # 63
    coordinates: [  0.989075731158083,  0.820664321142097,  0.711488964839411 ]
    mass: 69.723000
    reduced_to: 55
  - symbol: Ga # 64
    coordinates: [  0.155801775524077,  0.052673617357121,  0.101684062480739 ]
    mass: 69.723000
    reduced_to: 64
  - symbol: Ga # 65
    coordinates: [  0.489135108857410,  0.052673617357121,  0.101684062480739 ]
    mass: 69.723000
    reduced_to: 64
  - symbol: Ga # 66
    coordinates: [  0.822468442190743,  0.052673617357121,  0.101684062480739 ]
    mass: 69.723000
    reduced_to: 64
  - symbol: Ga # 67
    coordinates: [  0.155801775524077,  0.386006950690455,  0.101684062480739 ]
    mass: 69.723000
    reduced_to: 64
  - symbol: Ga # 68
    coordinates: [  0.489135108857410,  0.386006950690455,  0.101684062480739 ]
    mass: 69.723000
    reduced_to: 64
  - symbol: Ga # 69
    coordinates: [  0.822468442190743,  0.386006950690455,  0.101684062480739 ]
    mass: 69.723000
    reduced_to: 64
  - symbol: Ga # 70
    coordinates: [  0.155801775524077,  0.719340284023788,  0.101684062480739 ]
    mass: 69.723000
    reduced_to: 64
  - symbol: Ga # 71
    coordinates: [  0.489135108857410,  0.719340284023788,  0.101684062480739 ]
    mass: 69.723000
    reduced_to: 64
  - symbol: Ga # 72
    coordinates: [  0.822468442190743,  0.719340284023788,  0.101684062480739 ]
    mass: 69.723000
    reduced_to: 64
  - symbol: Ga # 73
    coordinates: [  0.155792830228976,  0.185282683348455,  0.898544712844591 ]
    mass: 69.723000
    reduced_to: 73
  - symbol: Ga # 74
    coordinates: [  0.489126163562310,  0.185282683348455,  0.898544712844591 ]
    mass: 69.723000
    reduced_to: 73
  - symbol: Ga # 75
    coordinates: [  0.822459496895643,  0.185282683348455,  0.898544712844591 ]
    mass: 69.723000
    reduced_to: 73
  - symbol: Ga # 76
    coordinates: [  0.155792830228976,  0.518616016681788,  0.898544712844591 ]
    mass: 69.723000
    reduced_to: 73
  - symbol: Ga # 77
    coordinates: [  0.489126163562310,  0.518616016681788,  0.898544712844591 ]
    mass: 69.723000
    reduced_to: 73
  - symbol: Ga # 78
    coordinates: [  0.822459496895643,  0.518616016681788,  0.898544712844591 ]
    mass: 69.723000
    reduced_to: 73
  - symbol: Ga # 79
    coordinates: [  0.155792830228976,  0.851949350015122,  0.898544712844591 ]
    mass: 69.723000
    reduced_to: 73
  - symbol: Ga # 80
    coordinates: [  0.489126163562310,  0.851949350015122,  0.898544712844591 ]
    mass: 69.723000
    reduced_to: 73
  - symbol: Ga # 81
    coordinates: [  0.822459496895643,  0.851949350015122,  0.898544712844591 ]
    mass: 69.723000
    reduced_to: 73
  - symbol: Sn # 82
    coordinates: [  0.155724078624651,  0.255328287062479,  0.319594859749796 ]
    mass: 118.710000
    reduced_to: 82
  - symbol: Sn # 83
    coordinates: [  0.489057411957984,  0.255328287062479,  0.319594859749796 ]
    mass: 118.710000
    reduced_to: 82
  - symbol: Sn # 84
    coordinates: [  0.822390745291318,  0.255328287062479,  0.319594859749796 ]
    mass: 118.710000
    reduced_to: 82
  - symbol: Sn # 85
    coordinates: [  0.155724078624651,  0.588661620395813,  0.319594859749796 ]
    mass: 118.710000
    reduced_to: 82
  - symbol: Sn # 86
    coordinates: [  0.489057411957984,  0.588661620395813,  0.319594859749796 ]
    mass: 118.710000
    reduced_to: 82
  - symbol: Sn # 87
    coordinates: [  0.822390745291318,  0.588661620395813,  0.319594859749796 ]
    mass: 118.710000
    reduced_to: 82
  - symbol: Sn # 88
    coordinates: [  0.155724078624651,  0.921994953729146,  0.319594859749796 ]
    mass: 118.710000
    reduced_to: 82
  - symbol: Sn # 89
    coordinates: [  0.489057411957984,  0.921994953729146,  0.319594859749796 ]
    mass: 118.710000
    reduced_to: 82
  - symbol: Sn # 90
    coordinates: [  0.822390745291318,  0.921994953729146,  0.319594859749796 ]
    mass: 118.710000
    reduced_to: 82

displacements:
- atom:    1
  displacement:
    [   0.0100000000000000,  0.0000000000000000,  0.0000000000000000 ]
  forces:
  - [  -0.0204246267676353, -0.0028085876256227,  0.0121817085891962 ]
  - [   0.0001891404390335, -0.0028135720640421,  0.0122517831623554 ]
  - [   0.0002034185454249, -0.0028151217848063,  0.0121504552662373 ]
  - [   0.0003065485507250, -0.0028148181736469,  0.0121999215334654 ]
  - [  -0.0003251507878304, -0.0033060591667891,  0.0122088100761175 ]
  - [  -0.0003271497553214, -0.0023179184645414,  0.0121913086622953 ]
  - [   0.0003068726509809, -0.0028133252635598,  0.0122002288699150 ]
  - [  -0.0003243554383516, -0.0023231133818626,  0.0122093353420496 ]
  - [  -0.0003268719010521, -0.0033097979612648,  0.0121921077370644 ]
  - [   0.0014934085775167,  0.0043122600764036,  0.0347314625978470 ]
  - [   0.0015097307041287,  0.0043103434145451,  0.0372659042477608 ]
  - [   0.0002219160378445,  0.0043118698522449,  0.0359900444746017 ]
  - [   0.0003405240713619,  0.0043707396835089,  0.0360079109668732 ]
  - [   0.0003395067760721,  0.0042624082416296,  0.0359697565436363 ]
  - [   0.0002251545083709,  0.0043119732290506,  0.0359911806881428 ]
  - [   0.0003403567243367,  0.0042710304260254,  0.0360076576471329 ]
  - [   0.0003393446677364,  0.0043627331033349,  0.0359712950885296 ]
  - [   0.0002194082626374,  0.0043125459924340,  0.0359915196895599 ]
  - [  -0.0003335766959935,  0.0011221787426621, -0.0307322721928358 ]
  - [  -0.0003327867016196,  0.0010592045728117, -0.0307359658181667 ]
  - [  -0.0002912233176176,  0.0010917423060164, -0.0307341404259205 ]
  - [  -0.0003500835737213,  0.0011025014100596, -0.0307139046490192 ]
  - [  -0.0003501027822495,  0.0010825587669387, -0.0307538229972124 ]
  - [  -0.0003492020186968,  0.0010923241497949, -0.0307335723191500 ]
  - [  -0.0003661593946163,  0.0010501218494028, -0.0307304523885250 ]
  - [  -0.0003646506229416,  0.0011358228512108, -0.0307396259158850 ]
  - [  -0.0002280091284774,  0.0010914175072685, -0.0307336486876011 ]
  - [   0.0006960481405258, -0.0000442933524027, -0.0014341697096825 ]
  - [   0.0004322081804276,  0.0000858860439621, -0.0014430321753025 ]
  - [   0.0004280590801500, -0.0001642590505071, -0.0014389660209417 ]
  - [   0.0004269741475582, -0.0000396568793803, -0.0014398377388716 ]
  - [   0.0004005823284388, -0.0000383025035262, -0.0014592949301004 ]
  - [   0.0004006451927125, -0.0000417766277678, -0.0014204885810614 ]
  - [   0.0006889998912811, -0.0000337049132213, -0.0014351382851601 ]
  - [   0.0004318244755268, -0.0001664014416747, -0.0014398265630007 ]
  - [   0.0004291363293305,  0.0000880814041011, -0.0014459900557995 ]
  - [  -0.0021660542115569, -0.0012790907640010,  0.1070671081542969 ]
  - [  -0.0017181690782309, -0.0012329665478319,  0.1071058660745621 ]
  - [  -0.0017167744226754, -0.0013075773604214,  0.1070531308650970 ]
  - [  -0.0017426852136850, -0.0012717647477984,  0.1070812791585922 ]
  - [  -0.0017451392486691, -0.0012663318775594,  0.1071127355098724 ]
  - [  -0.0017446237616241, -0.0012776560615748,  0.1070478260517120 ]
  - [  -0.0021637035533786, -0.0012636126484722,  0.1070659458637238 ]
  - [  -0.0017177872359753, -0.0013141654198989,  0.1071181818842888 ]
  - [  -0.0017157723195851, -0.0012305380078033,  0.1070398837327957 ]
  - [   0.0013394036795944,  0.0068614976480603, -0.0616573691368103 ]
  - [   0.0011075783986598,  0.0068646352738142, -0.0614225193858147 ]
  - [   0.0011081467382610,  0.0068578245118260, -0.0618833750486374 ]
  - [   0.0012759363744408,  0.0068627744913101, -0.0616557821631432 ]
  - [   0.0011918868403882,  0.0068347025662661, -0.0616375654935837 ]
  - [   0.0011919746175408,  0.0068886689841747, -0.0616703256964684 ]
  - [   0.0012794313952327,  0.0068629728630185, -0.0616561770439148 ]
  - [   0.0011910221073776,  0.0068860137835145, -0.0616205856204033 ]
  - [   0.0011910563334823,  0.0068414388224483, -0.0616898387670517 ]
  - [   0.0013465213123709, -0.0031482044141740, -0.0108616128563881 ]
  - [   0.0013707275502384, -0.0030896114185452, -0.0111383646726608 ]
  - [   0.0013697517570108, -0.0032069014851004, -0.0105899646878242 ]
  - [   0.0015661134384573, -0.0031650655437261, -0.0108596831560135 ]
  - [   0.0014951494522393, -0.0032229351345450, -0.0109485313296318 ]
  - [   0.0014933110214770, -0.0030729039572179, -0.0107820183038712 ]
  - [   0.0015771989710629, -0.0031670401804149, -0.0108589455485344 ]
  - [   0.0014900430105627, -0.0031310489866883, -0.0109905749559402 ]
  - [   0.0014877927023917, -0.0031655584461987, -0.0107378438115120 ]
  - [  -0.0002875383652281, -0.0057081738486886, -0.1415399312973022 ]
  - [  -0.0002631136449054, -0.0056982231326401, -0.1485829949378967 ]
  - [  -0.0019327672198415, -0.0057025523856282, -0.1450442671775818 ]
  - [  -0.0019969386048615, -0.0056330859661102, -0.1450165659189224 ]
  - [  -0.0019990301225334, -0.0057753692381084, -0.1450725644826889 ]
  - [  -0.0019180071540177, -0.0057032182812691, -0.1450461447238922 ]
  - [  -0.0019964864477515, -0.0057751554995775, -0.1450194567441940 ]
  - [  -0.0019981837831438, -0.0056253895163536, -0.1450673043727875 ]
  - [  -0.0019191392930225, -0.0057027256116271, -0.1450449526309967 ]
  - [  -0.0011320812627673, -0.0035344909410924,  0.1301780343055725 ]
  - [  -0.0011333553120494, -0.0030482918955386,  0.1299882531166077 ]
  - [  -0.0009678530041128, -0.0032932027243078,  0.1300851106643677 ]
  - [  -0.0010485029779375, -0.0032934020273387,  0.1301135122776031 ]
  - [  -0.0010476271854714, -0.0032862429507077,  0.1300532519817352 ]
  - [  -0.0010228781029582, -0.0032942530233413,  0.1300842016935349 ]
  - [  -0.0011319585610181, -0.0030508388299495,  0.1301717162132263 ]
  - [  -0.0011317075695843, -0.0035307840444148,  0.1299926191568375 ]
  - [  -0.0009644930250943, -0.0032939324155450,  0.1300834268331528 ]
  - [   0.0056506693363190, -0.0009617114556022, -0.0365485772490501 ]
  - [   0.0057231504470110,  0.0090783610939980, -0.0346564650535583 ]
  - [   0.0015926035121083,  0.0040012011304498, -0.0356168746948242 ]
  - [   0.0015517547726631,  0.0040025068446994, -0.0355099365115166 ]
  - [   0.0015516784042120,  0.0040034726262093, -0.0357253253459930 ]
  - [   0.0016145773697644,  0.0040035340934992, -0.0356172248721123 ]
  - [   0.0056116962805390,  0.0089305303990841, -0.0365441218018532 ]
  - [   0.0056861573830247, -0.0010389719391242, -0.0346606299281120 ]
  - [   0.0015911839436740,  0.0040058027952909, -0.0356158837676048 ]
- atom:    1
  displacement:
    [  -0.0100000000000000,  0.0000000000000000,  0.0000000000000000 ]
  forces:
  - [   0.0207843501120806, -0.0028233919292688,  0.0122232958674431 ]
  - [   0.0001546032726765, -0.0028146896511316,  0.0121514331549406 ]
  - [   0.0001690746867098, -0.0028141234070063,  0.0122522190213203 ]
  - [   0.0000521633774042, -0.0028158966451883,  0.0121991522610188 ]
  - [   0.0006851404905319, -0.0023181345313787,  0.0121921002864838 ]
  - [   0.0006829215562902, -0.0033064894378185,  0.0122087150812149 ]
  - [   0.0000524949282408, -0.0028124474920332,  0.0121995080262423 ]
  - [   0.0006856638938189, -0.0033096023835242,  0.0121919587254524 ]
  - [   0.0006834177765995, -0.0023227902129292,  0.0122095737606287 ]
  - [  -0.0010697051184252,  0.0043109226971865,  0.0372647456824780 ]
  - [  -0.0010567303979769,  0.0043125655502081,  0.0347291603684425 ]
  - [   0.0002166162739741,  0.0043121017515659,  0.0359901413321495 ]
  - [   0.0001010267078527,  0.0042710248380899,  0.0359677076339722 ]
  - [   0.0001002502976917,  0.0043621868826449,  0.0360104516148567 ]
  - [   0.0002138432755601,  0.0043121580965817,  0.0359912961721420 ]
  - [   0.0001011456915876,  0.0043719410896301,  0.0359691865742207 ]
  - [   0.0001002010831144,  0.0042620957829058,  0.0360099039971828 ]
  - [   0.0002198890724685,  0.0043122661300004,  0.0359918475151062 ]
  - [  -0.0003664010437205,  0.0010589931625873, -0.0307367220520973 ]
  - [  -0.0003662859671749,  0.0011226945789531, -0.0307327024638653 ]
  - [  -0.0004072191950399,  0.0010918679181486, -0.0307342782616615 ]
  - [  -0.0003492811811157,  0.0010826052166522, -0.0307533070445061 ]
  - [  -0.0003493446856737,  0.0011023880215362, -0.0307141598314047 ]
  - [  -0.0003511001705192,  0.0010922029614449, -0.0307334177196026 ]
  - [  -0.0003348066238686,  0.0011358808260411, -0.0307397693395615 ]
  - [  -0.0003340413677506,  0.0010500208009034, -0.0307305566966534 ]
  - [  -0.0004730007785838,  0.0010914518497884, -0.0307340398430824 ]
  - [   0.0001239404082298, -0.0000460417359136, -0.0014327000826597 ]
  - [   0.0003915391862392, -0.0001638664980419, -0.0014405362308025 ]
  - [   0.0003862266312353,  0.0000864434987307, -0.0014433320611715 ]
  - [   0.0003920570015907, -0.0000398370902985, -0.0014401264488697 ]
  - [   0.0004177857190371, -0.0000412603840232, -0.0014206860214472 ]
  - [   0.0004181216645520, -0.0000386892934330, -0.0014593601226807 ]
  - [   0.0001292042434216, -0.0000312848133035, -0.0014332290738821 ]
  - [   0.0003896541893482,  0.0000876029371284, -0.0014465581625700 ]
  - [   0.0003862315206788, -0.0001666952739470, -0.0014404729008675 ]
  - [  -0.0013225795701146, -0.0012796684168279,  0.1070668995380402 ]
  - [  -0.0017726784572005, -0.0013073638547212,  0.1070516109466553 ]
  - [  -0.0017694052075967, -0.0012331685284153,  0.1071054339408875 ]
  - [  -0.0017444957047701, -0.0012718697544187,  0.1070812121033669 ]
  - [  -0.0017441762611270, -0.0012780532706529,  0.1070482209324837 ]
  - [  -0.0017437669448555, -0.0012661846121773,  0.1071128323674202 ]
  - [  -0.0013238508254290, -0.0012628232361749,  0.1070650219917297 ]
  - [  -0.0017726393416524, -0.0012306059943512,  0.1070393919944763 ]
  - [  -0.0017689904198050, -0.0013138479553163,  0.1071165502071381 ]
  - [   0.0011031848844141,  0.0068617281503975, -0.0616584792733192 ]
  - [   0.0013351095840335,  0.0068578133359551, -0.0618829727172852 ]
  - [   0.0013371109962463,  0.0068648550659418, -0.0614209324121475 ]
  - [   0.0011666624341160,  0.0068630268797278, -0.0616559535264969 ]
  - [   0.0012516560964286,  0.0068879872560501, -0.0616708621382713 ]
  - [   0.0012517074355856,  0.0068356357514858, -0.0616372972726822 ]
  - [   0.0011633774265647,  0.0068630492314696, -0.0616567879915237 ]
  - [   0.0012537359725684,  0.0068405847996473, -0.0616896003484726 ]
  - [   0.0012541300384328,  0.0068863565102220, -0.0616209656000137 ]
  - [   0.0016306431498379, -0.0031482719350606, -0.0108615085482597 ]
  - [   0.0016117026098073, -0.0032073818147182, -0.0105900391936302 ]
  - [   0.0016108039999381, -0.0030893778894097, -0.0111376941204071 ]
  - [   0.0014040078967810, -0.0031652303878218, -0.0108595415949821 ]
  - [   0.0014845425030217, -0.0030716983601451, -0.0107815712690353 ]
  - [   0.0014827020931989, -0.0032238601706922, -0.0109482333064079 ]
  - [   0.0013937912881374, -0.0031668450683355, -0.0108588337898254 ]
  - [   0.0014899316010997, -0.0031652627512813, -0.0107374563813210 ]
  - [   0.0014881067909300, -0.0031313404906541, -0.0109901130199432 ]
  - [  -0.0036629836540669, -0.0056988149881363, -0.1486001908779144 ]
  - [  -0.0036158508155495, -0.0057074427604675, -0.1415561735630035 ]
  - [  -0.0019800311420113, -0.0057026180438697, -0.1450446844100952 ]
  - [  -0.0019172412576154, -0.0057760244235396, -0.1450724005699158 ]
  - [  -0.0019183800322935, -0.0056335246190429, -0.1450150161981583 ]
  - [  -0.0019943881779909, -0.0057031493633986, -0.1450464129447937 ]
  - [  -0.0019171572057530, -0.0056256488896906, -0.1450671404600143 ]
  - [  -0.0019178197253495, -0.0057744393125176, -0.1450185030698776 ]
  - [  -0.0019985223188996, -0.0057027507573366, -0.1450451314449310 ]
  - [  -0.0009474341059104, -0.0030476963147521,  0.1299864649772644 ]
  - [  -0.0009492271346971, -0.0035354516003281,  0.1301791071891785 ]
  - [  -0.0011153731029481, -0.0032932921312749,  0.1300852745771408 ]
  - [  -0.0010307998163626, -0.0032945650164038,  0.1300553530454636 ]
  - [  -0.0010296890977770, -0.0032850541174412,  0.1301113814115524 ]
  - [  -0.0010584883857518, -0.0032943391706795,  0.1300840079784393 ]
  - [  -0.0009464746108279, -0.0035395710729063,  0.1299941688776016 ]
  - [  -0.0009462403249927, -0.0030426597222686,  0.1301688104867935 ]
  - [  -0.0011170194484293, -0.0032936993520707,  0.1300832182168961 ]
  - [  -0.0025794110260904,  0.0090797850862145, -0.0346564650535583 ]
  - [  -0.0025037964805961, -0.0009592108544894, -0.0365485548973083 ]
  - [   0.0015523687470704,  0.0040009263902903, -0.0356170162558556 ]
  - [   0.0015933569520712,  0.0040037729777396, -0.0357257351279259 ]
  - [   0.0015929043292999,  0.0040020379237831, -0.0355092808604240 ]
  - [   0.0015319872181863,  0.0040034400299191, -0.0356172770261765 ]
  - [  -0.0025388875510544, -0.0010342653840780, -0.0346619486808777 ]
  - [  -0.0024711466394365,  0.0089355893433094, -0.0365441516041756 ]
  - [   0.0015557117294520,  0.0040062451735139, -0.0356163606047630 ]
- atom:    1
  displacement:
    [   0.0000006480641789,  0.0099999999790006,  0.0000000000000000 ]
  forces:
  - [   0.0001854766160250, -0.0240692663937807,  0.0121686346828938 ]
  - [   0.0001781601458788, -0.0027451701462269,  0.0122003722935915 ]
  - [   0.0001801007310860, -0.0027455426752567,  0.0122001282870770 ]
  - [   0.0001788344234228, -0.0026508234441280,  0.0118827987462282 ]