1
Lattice="2.9765703113242217 0.0 -1.6557102899416705 -1.0885604373448823 2.8281746577042517 -1.554931401137189 0.0 0.0 3.40607507" Properties=species:S:1:pos:R:3:forces:R:3 structure_index=0 total_energy=-3.9374818801879883 stress="0.1494777351617813 -0.03287982940673828 -0.01916554942727089 -0.03287982940673828 0.21823816001415253 0.05591290816664696 -0.01916554942727089 0.05591292679309845 0.1707964539527893" pbc="T T T"
Sn       0.00000000       0.00000000       0.00000000      -0.00000000      -0.00000000      -0.00000000
4
Lattice="4.093719982575785 9.267633049346379e-09 -2.162185742768528e-09 9.267633707666761e-09 4.093719994562727 -1.1981131589153211e-08 -2.1621859934365815e-09 -1.1981131839821264e-08 4.0937199803660835" Properties=species:S:1:pos:R:3:forces:R:3 structure_index=1 total_energy=-11.680112838745117 stress="-0.03343517705798149 4.318777087064518e-07 -2.717664244755724e-07 4.543605882645352e-07 -0.033434364944696426 8.443614518682807e-08 -2.660583220404078e-07 6.334323643386597e-08 -0.03343550115823746" pbc="T T T"
Li      -0.00000000      -0.00000000      -0.00000000       0.00000003      -0.00000005       0.00000012
Ga       2.04685999       0.00000000       2.04685999      -0.00000001       0.00000008       0.00000001
Ga       0.00000000       2.04685999       2.04685998      -0.00000007      -0.00000006       0.00000005
Ga       2.04686000       2.04686000      -0.00000001       0.00000004       0.00000002      -0.00000018
8
Lattice="5.637067156850833 0.016256262115783553 -1.9779182845646726 -3.6457485185296497 4.299454423991384 1.977918422814802 -0.8267312164223253 0.3814636532084875 9.71244730846949" Properties=species:S:1:pos:R:3:forces:R:3 structure_index=2 total_energy=-31.50271987915039 stress="-0.026797067373991013 -0.002014891477301717 -0.005747443530708551 -0.002014892641454935 -0.030236292630434036 0.0026531529147177935 -0.005747435614466667 0.002653158036991954 0.0030442483257502317" pbc="T T T"
Sn       0.58229377       2.34858725       4.85622372      -0.00000088      -0.00000081      -0.00000000
Sn       0.99565941       2.15785532       0.00000000      -0.00000044       0.00000007      -0.00000001
Sn      -0.61109697       0.30549824       7.28433557      -0.00258105      -0.00559132      -0.00000017
Sn       1.77568423       4.39167610       2.42811202       0.00258011       0.00559283      -0.00000025
Sn      -1.85265562       3.49070212       7.05073151       0.00134608      -0.00814552       0.00860740
Sn       2.61803019       1.42787641       7.51793956      -0.00706972      -0.00426265      -0.00860787
Sn       3.01724308       1.20647220       2.66171591      -0.00134412       0.00814522      -0.00860726
Sn      -1.45344278       3.26929788       2.19450785       0.00707002       0.00426217       0.00860816
2
Lattice="2.6527002517304723 -6.620354230323828e-08 -0.8209432597104969 -3.555807368355586e-08 3.070815083484443 1.3741859974690507e-07 0.00019393672049208417 2.0626320754651872e-07 4.696910412901921" Properties=species:S:1:pos:R:3:forces:R:3 structure_index=3 total_energy=-6.003222465515137 stress="0.008654722943902016 -9.193959158437792e-07 0.004029219038784504 -8.160272386703582e-07 0.1598842591047287 -2.0919026155752363e-06 0.004029192496091127 -2.265828243253054e-06 0.020409006625413895" pbc="T T T"
Ga       2.29839235       2.30311137       2.73047168      -0.00207645      -0.00000027      -0.00670887
Ga       0.35450180       0.76770385       1.14549561       0.00207645       0.00000027       0.00670887
18
Lattice="8.469089439759772 0.12473638116640064 5.0882944324668266e-08 -2.6916332370584075 8.030949759250229 -3.094614657268528e-07 2.827852773580438e-08 -1.7236406505751713e-07 4.663009301203665" Properties=species:S:1:pos:R:3:forces:R:3 structure_index=4 total_energy=-49.25574493408203 stress="-0.012882646173238754 0.000737568421754986 -6.704171369165124e-07 0.0007375122513622046 -0.012361547909677029 -8.839019756123889e-07 -1.0243968517897883e-06 -1.039145672621089e-06 0.018416928127408028" pbc="T T T"
Li       0.00000027       0.00000021      -0.00000001       0.00000023       0.00000036       0.00000107
Li       2.88872843       4.07784346       2.33150454      -0.00000046      -0.00000067       0.00000018
Li       3.78108677       5.33753189      -0.00000021       0.00238709       0.00336953       0.00000011
Li       1.99637044       2.81815573      -0.00000012      -0.00238783      -0.00337086       0.00000006
Li       6.55323615       1.48192019       2.33150465       0.00814514      -0.00576970      -0.00000008
Li      -0.77577916       6.67376673       2.33150440      -0.00814494       0.00576978       0.00000031
Li       2.96996060       7.89382917      -0.00000029       0.00470019       0.01368017      -0.00000014
Li       2.80749583       0.26185838       0.00000002      -0.00469964      -0.01368132      -0.00000020
Li       6.46170830       5.42028852      -0.00000019       0.01134570       0.00897135      -0.00000000
Li      -0.68425081       2.73539838      -0.00000013      -0.01134794      -0.00897230       0.00000001
Li       1.99103988       6.63860101       2.33150445      -0.00709270       0.00020833       0.00000004
Li       3.78641758       1.51708598       2.33150462       0.00709074      -0.00020960       0.00000037
Li       5.60227157       4.08041821       2.33150457       0.00254951      -0.00662156       0.00000022
Li       0.17518523       4.07526912       2.33150452      -0.00254970       0.00661974       0.00000003
Sn       4.80729124       6.78616301       2.33150447       0.01714608       0.02420290      -0.00000084
Sn       0.97016577       1.36952441       2.33150462      -0.01714768      -0.02420490      -0.00000045
Sn       4.89183657       2.65884788      -0.00000005       0.02177290      -0.01541677      -0.00000011
Sn       0.88561896       5.49683730      -0.00000020      -0.02176672       0.01542548      -0.00000054
4
Lattice="4.596085155670514 -4.992135981941215e-09 2.653551121291222 1.5320283801235675 4.333231047051893 2.6535511219724492 -1.9032294375283252e-07 -1.3374431490284354e-07 5.307102572231451" Properties=species:S:1:pos:R:3:forces:R:3 structure_index=5 total_energy=-14.728408813476562 stress="0.04683804139494896 2.246605390610057e-06 -2.0444840629352257e-06 2.1350861061364412e-06 0.046837277710437775 -2.38962093135342e-06 -2.147129862350994e-06 -2.251095111205359e-06 0.04684293270111084" pbc="T T T"
Ga       0.00000001      -0.00000000       0.00000001       0.00000007      -0.00000004      -0.00000039
Sn       1.53202834       1.08330773       2.65355119       0.00000017       0.00000014       0.00000015
Sn       4.59608498       3.24992320       7.96065362      -0.00000012       0.00000015      -0.00000017
Sn       3.06405669       2.16661544       5.30710241      -0.00000012      -0.00000024       0.00000040
1
Lattice="2.645381558657189 0.0 1.5273117550000004 0.8817938528857298 2.494089651936449 1.5273117550000004 0.0 0.0 3.05462351" Properties=species:S:1:pos:R:3:forces:R:3 structure_index=6 total_energy=-1.9010138511657715 stress="-5.745323505834676e-05 8.078720270532358e-07 -9.52334104908914e-08 8.289256925309019e-07 -5.757588587584905e-05 6.148649589476918e-08 -5.8757322562996706e-08 5.539693503919807e-08 -5.6188720918726176e-05" pbc="T T T"
Li       0.00000000       0.00000000       0.00000000      -0.00000000      -0.00000000      -0.00000000
20
Lattice="6.997108482013189 -0.14114702113660493 2.5837289188591694 1.7527018166185304 6.775508982440264 2.583729607729347 -0.18615468310223293 -0.14114709030787725 7.456575874824649" Properties=species:S:1:pos:R:3:forces:R:3 structure_index=7 total_energy=-58.116172790527344 stress="-0.010611413978040218 0.004170290660113096 0.00810166448354721 0.004170446190983057 -0.012942535802721977 0.006148647982627153 0.008101831190288067 0.006148651707917452 -0.0041645606979727745" pbc="T T T"
Li       6.81795162       2.93985138      10.05062075      -0.00419835       0.01190207      -0.00618950
Li       4.67098942       5.77140115      10.05062116       0.01032575      -0.00725542      -0.00619064
Li       3.89266631       0.72181377       2.57341355      -0.01032583       0.00725561       0.00619083
Li       7.61168336       5.77140121       8.05576829      -0.00956866      -0.00725525       0.00730743
Li       0.95197238       0.72181367       4.56826623       0.00956880       0.00725584      -0.00730822
Li       1.74570409       3.55336362       2.57341382       0.00419914      -0.01189970       0.00619079
Ga       3.64501021       1.04235913       5.37325827      -0.00724598       0.00047797      -0.01068127
Ga       5.13193428       1.07570117       7.56519346       0.00997552       0.00873261       0.01470445
Ga       2.42947113       1.84209677       7.57775411      -0.00955762      -0.00724741      -0.01575120
Ga       4.91864528       5.45085591       7.25077604       0.00724578      -0.00047708       0.01068244
Ga       6.13418444       4.65111812       5.04628019       0.00955833       0.00724537       0.01574990
Ga       6.57614908       3.26483436       7.25077580       0.00149626       0.00710563       0.01068018
Ga       3.43172138       5.41751355       5.05884076      -0.00997611      -0.00873189      -0.01470568
Ga       0.71098320       0.53908836       1.04808938       0.01369828       0.01038723       0.02019987
Ga       4.30586645       3.26483438       8.79084749       0.00937037       0.00710559       0.00533632
Ga       6.14270498       1.84209676       5.05884033      -0.01110020      -0.00724813      -0.01470391
Ga       1.98750650       3.22838036       5.37325863      -0.00149610      -0.00710531      -0.01068022
Ga       2.42095059       4.65111824       7.56519392       0.01109971       0.00724773       0.01470511
Ga       4.25778921       3.22838041       3.83318695      -0.00937113      -0.00710542      -0.00533615
Ga       7.85267223       5.95412637      11.57594490      -0.01369794      -0.01039003      -0.02020053
4
Lattice="4.207885917804672 -0.05302094496841315 -3.913214907187016 -0.8340548175244391 4.124738177519592 -3.913214689437024 0.04393304638728075 0.05302102810336833 5.746096363978786" Properties=species:S:1:pos:R:3:forces:R:3 structure_index=8 total_energy=-14.438350677490234 stress="0.01774267852306366 0.008946964517235756 -0.017195390537381172 0.008946984075009823 0.021128397434949875 -0.020751075819134712 -0.01719542033970356 -0.020751141011714935 0.05021794140338898" pbc="T T T"
Li       0.00000001       0.00000000      -0.00000001       0.00000002       0.00000014       0.00000015
Sn       2.96936724       1.01792935      -1.04016667      -0.00000001       0.00000020       0.00000076
Sn       0.44839688       3.10680888      -1.04016654       0.00000058       0.00000009      -0.00000111
Sn       1.68691557       2.03585865      -3.91321481      -0.00000060      -0.00000043       0.00000019
1
Lattice="2.961277859094481 3.7012970543671114e-08 1.7096945567939308 0.9870926616054676 2.7919195971255437 1.7096945446502734 1.4116551272158777e-08 -4.8909731523888756e-09 3.419389089137277" Properties=species:S:1:pos:R:3:forces:R:3 structure_index=9 total_energy=-3.9378504753112793 stress="-0.1280604898929596 5.195835228732903e-07 -5.216009526520793e-07 5.046089768256934e-07 -0.12806124985218048 -4.897623284705332e-07 -5.208775633036566e-07 -4.934765343023173e-07 -0.1280624121427536" pbc="T T T"
Sn       0.00000000       0.00000000       0.00000000      -0.00000000      -0.00000000      -0.00000000
6
Lattice="5.200835453323088 -0.013281418239499396 -4.2412522479279614e-08 -3.2445119480509272 4.064727309314027 6.276586595662963e-08 -3.565755950407574e-08 3.906808164513684e-08 4.413321558977751" Properties=species:S:1:pos:R:3:forces:R:3 structure_index=10 total_energy=-15.398235321044922 stress="0.06402616947889328 -0.0032698665745556355 -3.910357406766707e-07 -0.0032696742564439774 0.058834008872509 3.541757962466363e-07 -5.080845539850998e-07 3.4543683113952284e-07 -0.05115333944559097" pbc="T T T"
Li       0.24426314       2.38010091       1.10333041       0.01020980      -0.00493000      -0.00000005
Li       1.71206034       1.67134502       3.30999116      -0.01021006       0.00492990       0.00000003
Li      -1.20137513       3.07815693       3.30999120       0.02872885      -0.01387199       0.00000010
Li       3.15769862       0.97328900       1.10333039      -0.02872868       0.01387219      -0.00000009
Ga      -2.57998198       3.74384542       1.10333045       0.00928436      -0.00448311      -0.00000015
Ga       4.53630543       0.30760050       3.30999113      -0.00928429       0.00448305       0.00000017
6
Lattice="4.98798715190284 -7.626236614327327e-09 -1.763519873759551 -2.4939936292626603 4.319723862714027 -1.7635200082117874 6.882915507660584e-08 -4.5454093322553466e-08 5.290559817129737" Properties=species:S:1:pos:R:3:forces:R:3 structure_index=11 total_energy=-17.992952346801758 stress="-0.06670963019132614 2.3076704565028194e-06 2.270745653731865e-06 2.2958070076128934e-06 -0.06670460850000381 3.810671387327602e-06 2.243099743282073e-06 3.8536231841135304e-06 -0.0667102187871933" pbc="T T T"
Ga       1.55874594       3.77975836      -2.20439993       0.00000042      -0.00000023       0.00000060
Ga       1.24699681       1.07993093       2.20439993      -0.00000042       0.00000151       0.00000016
Ga      -0.31174921       2.69982739       0.44087996       0.00000028       0.00000048      -0.00000013
Ga       4.05273961       0.53996545       2.20439996      -0.00000001      -0.00000036      -0.00000003
Ga       2.18224439       1.61989644      -0.44087997       0.00000009      -0.00000051      -0.00000009
Ga      -1.24699677       3.23979286       3.08615985      -0.00000037      -0.00000089      -0.00000050
4
Lattice="4.255133522798372 -0.11026552990799966 -3.9365757441193403 -0.8871019120841239 4.163095349880994 -3.9365772856787657 0.0916358395050927 0.11026532645040431 5.796068159699259" Properties=species:S:1:pos:R:3:forces:R:3 structure_index=12 total_energy=-14.776891708374023 stress="-0.04052489250898361 0.005233269650489092 -0.010165580548346043 0.00523324403911829 -0.038584545254707336 -0.012236174196004868 -0.010165398940443993 -0.012236109934747219 -0.021110130473971367" pbc="T T T"
Ga       0.00000005       0.00000010      -0.00000012      -0.00000022      -0.00000028       0.00000021
Sn       3.01539246       1.01320739      -1.03854198       0.00000027       0.00000086      -0.00000037
Sn       0.44427492       3.14988773      -1.03854267      -0.00000013      -0.00000023       0.00000030
Sn       1.68401583       2.02641484      -3.93657661       0.00000007      -0.00000035      -0.00000015
4
Lattice="3.0579885209897015 1.0283843803586738e-07 -1.1816370604936017e-08 -1.528994484815783 2.648295666221556 3.227298909749053e-09 -3.780445274505108e-08 -9.90391480700514e-09 9.97133828534668" Properties=species:S:1:pos:R:3:forces:R:3 structure_index=13 total_energy=-7.603254795074463 stress="0.03350643068552017 -6.252436151044094e-07 1.633778623499893e-07 -6.036458444214077e-07 0.03350597620010376 3.009202487191942e-07 1.7458657453062187e-07 2.3279486072169675e-07 -0.02157048135995865" pbc="T T T"
Li       0.00000000      -0.00000000      -0.00000000       0.00000002       0.00000003      -0.00000023
Li      -0.00000017       1.76553048       2.49283457      -0.00000005       0.00000005       0.00000022
Li      -0.00000002      -0.00000001       4.98566914       0.00000003       0.00000002      -0.00000000
Li       1.52899416       0.88276528       7.47850371       0.00000000      -0.00000010       0.00000002
4
Lattice="3.5566629256028937 -0.7264497494500789 -2.6529980306099334 -1.3374266195221824 3.3747410316681763 -2.652996483792046 0.6087543617879634 0.7264498638631552 4.395186748736928" Properties=species:S:1:pos:R:3:forces:R:3 structure_index=14 total_energy=-9.597143173217773 stress="0.10925675928592682 -0.01328844390809536 0.02660958282649517 -0.013288400135934353 0.10456731170415878 0.031773991882801056 0.026609713211655617 0.03177375718951225 0.05676070228219032" pbc="T T T"
Li       2.63751773       0.66207279      -0.45540415       0.00000007       0.00000009       0.00000003
Li       0.19047291       2.71266833      -0.45540361      -0.00000014      -0.00000065       0.00000041
Li       1.10961814       1.32414552      -2.65299749       0.00000000       0.00000097       0.00000049
Ga       0.00000004       0.00000015       0.00000021       0.00000004      -0.00000043      -0.00000094
6
Lattice="3.180796401387076 -2.197347224695571e-09 -6.81449783808933e-08 -3.312096764831004e-08 5.095123676543283 1.3328162116943354 -1.6497499241820042e-07 -0.10486417150742071 7.769770629645337" Properties=species:S:1:pos:R:3:forces:R:3 structure_index=15 total_energy=-19.573684692382812 stress="0.015343836508691311 -9.142599424194486e-07 -4.472356636142649e-07 -8.319392463818076e-07 -0.03642772138118744 -0.0044272649101912975 -3.629831155649299e-07 -0.004427425563335419 -0.006636537611484528" pbc="T T T"
Li       1.59039808       1.29136219       5.55444492       0.00000023      -0.00868764       0.02778779
Li       1.59039818       2.54756186       0.66640808      -0.00000002       0.00000009      -0.00000014
Li       1.59039813       3.69889735       3.54814185       0.00000006       0.00868717      -0.02778773
Sn      -0.00000007       1.18942376       2.94349731      -0.00000004      -0.03898463      -0.01643378
Sn      -0.00000014       3.80083572       6.15908952      -0.00000026       0.03898515       0.01643413
Sn       0.00000000      -0.00000004       0.00000003       0.00000004      -0.00000015      -0.00000027
108
Lattice="12.053012891588658 2.4934947010485387e-07 6.958809658313045 4.017671284362761 11.363688560936032 6.95880951037692 1.278408447817594e-07 -9.078688437072163e-08 13.91761909519933" Properties=species:S:1:pos:R:3:forces:R:3 structure_index=16 total_energy=-282.987060546875 stress="0.0037252837792038918 -1.6385008905217546e-07 9.05023853192688e-07 -4.89133128667163e-07 0.0037195675540715456 -5.474548174788652e-07 6.624776460739668e-07 6.733213098186752e-08 0.0037183102685958147" pbc="T T T"
Li      14.84822240      10.49927771      25.71787244      -0.01848128      -0.01306923      -0.03201133
Li       6.46259520      10.49927746      20.87642856       0.03696290      -0.01306768       0.00000048
Li      12.05301308       2.59323320      20.87642879       0.00000046       0.03920428      -0.00000005
Li      14.84822237      10.49927777      16.03498505      -0.01848147      -0.01306937       0.03201027
Li       2.70222281       1.91075996       4.68038670      -0.00203509      -0.00143897      -0.00352419
Li       6.64856738       1.91076004       6.95880964       0.00407032      -0.00143900      -0.00000071
Li       4.01767113       5.63140888       6.95880954      -0.00000012       0.00431710       0.00000027
Li       2.70222291       1.91075995       9.23723241      -0.00203522      -0.00143911       0.00352484
Li       9.34119808       6.60522404      16.17942794      -0.00872237      -0.00616853      -0.01510833
Li       5.42363029       6.60522382      13.91761900       0.01744543      -0.00616772       0.00000129
Li       8.03534201       2.91170643      13.91761911       0.00000012       0.01850218       0.00000126
Li       9.34119824       6.60522404      11.65581021      -0.00872208      -0.00616849       0.01510757
Li      10.88085997       7.69392905      18.84619977       0.00452823       0.00320234       0.00784543
Li      14.39731985       7.69392911      20.87642870      -0.00905881       0.00320253       0.00000017
Li      12.05301331      11.00927899      20.87642864       0.00000039      -0.00960837      -0.00000009
Li      10.88085997       7.69392901      22.90665761       0.00452798       0.00320237      -0.00784511
Li      13.34586656       9.43695191      13.91761915      -0.00636026      -0.00449734       0.00000081
Li       2.72481774       1.92673681      13.91761911       0.00636044       0.00449739       0.00000005
Li      10.69060424       1.92673694      18.51666777      -0.00317996       0.00449803      -0.00550993
Li       5.38008001       9.43695174       9.31857058       0.00317954      -0.00449803       0.00550897
Li       5.38008011       9.43695165      18.51666769       0.00317946      -0.00449771      -0.00550967
Li      10.69060415       1.92673704       9.31857059      -0.00318059       0.00449809       0.00550984
Li      -0.00000011      -0.00000004      -0.00000000       0.00000085       0.00000011       0.00000134
Li      12.12656853      11.32617223      25.49683809      -0.00980855      -0.00323294      -0.01094243
Li       8.01484349      11.32617218      23.12293282       0.01437924      -0.00323280       0.00302222
Li      13.35003299       3.78107528      18.62992466       0.00174522       0.01463592      -0.00302306
Li      16.01762806      11.32617232      23.25033404      -0.00457181      -0.00323298      -0.01396484
Li      14.72060803       7.65764648      16.25601933      -0.00631706      -0.00816886       0.01094228
Li      16.01762807      11.32617234      18.50252326      -0.00457210      -0.00323297       0.01396559
Li       6.71782346       7.65764629      20.87642860       0.01263523      -0.00816962      -0.00000025
Li       9.45897339       3.78107513      20.87642876      -0.00349001       0.01463622      -0.00000022
Li      14.72060816       7.65764646      25.49683821      -0.00631757      -0.00817001      -0.01094194
Li      12.12656844      11.32617230      16.25601930      -0.00980834      -0.00323296       0.01094155
Li       8.01484337      11.32617221      18.62992461       0.01438139      -0.00323276      -0.00302329
Li      13.35003304       3.78107523      23.12293285       0.00174591       0.01463585       0.00302262
Li      14.81500805      10.47579167      20.87642870       0.00550983       0.00389593       0.00000014
Li       9.29101834       6.56974139      20.87642866      -0.00550989      -0.00389533      -0.00000014
Li      13.43401054       6.56974144      23.26838618       0.00275531      -0.00389631       0.00477007
Li      10.67201593      10.47579155      18.48447126      -0.00275585       0.00389553      -0.00477033
Li      10.67201593      10.47579156      23.26838615      -0.00275523       0.00389554       0.00477001
Li      13.43401056       6.56974156      18.48447125       0.00275531      -0.00389681      -0.00477050
Li       4.01767106       2.84092218       6.95880957      -0.00000035       0.00000015      -0.00000005
Li       7.95068319       2.76246380       9.10141291       0.02183601      -0.00125141       0.01056380
Li      12.24862893       2.76246392      11.58283274      -0.02006606      -0.00125158      -0.01362868
Li       6.68735259      10.62729571      16.25240549      -0.00786890      -0.01850171       0.01362890
Li       3.90671407       2.76246370      11.43619933      -0.00176934      -0.00125163       0.02419170
Li       5.25470396       6.57515404      18.73382547       0.00609865       0.02100525      -0.01056412
Li       3.90671416       2.76246369      16.39903898      -0.00177001      -0.00125090      -0.02419226
Li      13.59661876       6.57515426      13.91761925      -0.01219784       0.02100398      -0.00000085
Li      10.73132174      10.62729584      13.91761918       0.01573766      -0.01850212       0.00000035
Li       5.25470387       6.57515407       9.10141280       0.00609875       0.02100495       0.01056317
Li       7.95068328       2.76246375      18.73382548       0.02183624      -0.00125172      -0.01056381
Li      12.24862897       2.76246385      16.25240561      -0.02006585      -0.00125121       0.01362968
Li       6.68735255      10.62729577      11.58283262      -0.00786946      -0.01850238      -0.01362845
Li       5.27916389       3.73293224       9.14377892       0.01591777       0.01125478       0.02757056
Li       1.49468549       3.73293215       6.95880952      -0.03183484       0.01125570      -0.00000025
Li       4.01767102       0.16489209       6.95880960      -0.00000002      -0.03376617       0.00000054
Li       5.27916384       3.73293227       4.77384006       0.01591711       0.01125457      -0.02756972
Li       3.98779450       8.47016009      16.13406729       0.01793210       0.00081437       0.01168340
Li       8.13961558       8.47016017      18.53112207      -0.01908416       0.00081420      -0.00968827
Li      10.69894952       4.85071567       9.30411624      -0.00559426      -0.01826426       0.00968819
Li      11.97861671       8.47016033      11.52056433       0.00115168       0.00081460       0.02137162
Li       9.31500902       0.93634148      11.70117108       0.00674528       0.01663499      -0.01168291
Li      11.97861677       8.47016033      16.31467422       0.00115141       0.00081453      -0.02137275
Li       5.47600795       0.93634139      13.91761921      -0.01349074       0.01663470      -0.00000000
Li       2.70812731       4.85071546      13.91761914       0.01118650      -0.01826411       0.00000014
Li       9.31500909       0.93634145      16.13406737       0.00674565       0.01663531       0.01168290
Li       3.98779442       8.47016013      11.70117102       0.01793171       0.00081480      -0.01168333
Li       8.13961552       8.47016028       9.30411627      -0.01908309       0.00081442       0.00968821
Li      10.69894957       4.85071560      18.53112207      -0.00559374      -0.01826422      -0.00968778
Li       4.24127899       5.60667601      11.60436662      -0.00262799      -0.02074517      -0.03539317
Li      11.93570923       5.60667605      16.04674740       0.03196634      -0.02074501      -0.01542065
Li       9.26459518       9.38420149      11.78849066      -0.00890318       0.03705341       0.01542140
Li       7.92903798       5.60667603       9.47523830      -0.02933795      -0.02074506      -0.01997218
Li       6.69978507       2.12982365      16.23087153      -0.02043465       0.00443730       0.03539407
Li       7.92903817       5.60667604      18.36000003      -0.02933724      -0.02074444       0.01997248
Li      10.70645615       2.12982386      13.91761921       0.04086918       0.00443710       0.00000062
Li       5.57683619       9.38420146      13.91761905       0.01780671       0.03705315       0.00000028
Li       6.69978501       2.12982360      11.60436670      -0.02043516       0.00443740      -0.03539335
Li       4.24127914       5.60667593      16.23087155      -0.00262808      -0.02074537       0.03539389
Li      11.93570917       5.60667619      11.78849072       0.03196603      -0.02074455       0.01542228
Li       9.26459526       9.38420148      16.04674752      -0.00890317       0.03705319      -0.01542092
Li       8.03534220       5.68184445      13.91761918      -0.00000037       0.00000049       0.00000130
Li      12.05301322       8.52276651      20.87642866       0.00000017       0.00000124      -0.00000017
Li       6.79579903       4.80535512      11.77066773      -0.00076764      -0.00054132      -0.00132893
Li      10.51442833       4.80535516      13.91761922       0.00153314      -0.00054164       0.00000118
Li       8.03534226       8.31131206      13.91761914      -0.00000076       0.00162641       0.00000143
Li       6.79579911       4.80535511      16.06457054      -0.00076648      -0.00054191       0.00132531
Sn      13.43024752       9.49661819      23.26186820      -0.00833668      -0.00589585      -0.01443963
Sn       9.29854472       9.49661804      20.87642870       0.01667468      -0.00589569       0.00000006
Sn      12.05301323       5.60121179      20.87642882       0.00000102       0.01768600      -0.00000005
Sn      13.43024748       9.49661811      18.49098917      -0.00833664      -0.00589562       0.01443954
Sn       6.80248396       4.81008211       6.95880956      -0.01022114      -0.00722705       0.00000104
Sn       1.23285822       0.87176229       6.95880954       0.01022091       0.00722664      -0.00000021
Sn       5.41007742       0.87176236       9.37052798      -0.00511132       0.00722680      -0.00885211
Sn       2.62526467       4.81008200       4.54709102       0.00511078      -0.00722673       0.00885120
Sn       2.62526474       4.81008205       9.37052798       0.00511013      -0.00722712      -0.00885271
Sn       5.41007733       0.87176236       4.54709109      -0.00511033       0.00722691       0.00885175
Sn      10.80864915       7.64286839      13.91761915      -0.01165065      -0.00823934       0.00000123
Sn       5.26203503       3.72082023      13.91761901       0.01165329       0.00823981       0.00000176
Sn       9.42199569       3.72082023      16.31937343      -0.00582746       0.00823974      -0.01009285
Sn       6.64868868       7.64286829      11.51586506       0.00582505      -0.00823979       0.01008873
Sn       6.64868868       7.64286828      16.31937329       0.00582596      -0.00823855      -0.01009293
Sn       9.42199559       3.72082032      11.51586507      -0.00582448       0.00823948       0.01008871
Sn       1.34108893       0.94829305       2.32283398       0.00043160       0.00030468       0.00074486
Sn       9.37083512       0.94829319       6.95880955      -0.00086237       0.00030466       0.00000141
Sn       4.01767117       8.51880962       6.95880946       0.00000016      -0.00091262       0.00000111
Sn       1.34108903       0.94829295      11.59478512       0.00043080       0.00030511      -0.00074636
1