# Thermal properties / unit cell (natom)

unit:
  temperature:   K
  free_energy:   kJ/mol
  entropy:       J/K/mol
  heat_capacity: J/K/mol

natom: 20   
cutoff_frequency: 0.00000
num_modes: 171360
num_integrated_modes: 171359

zero_point_energy:      63.1283679

thermal_properties:
- temperature:         0.0000000
  free_energy:        63.1283679
  entropy:             0.0000000
  heat_capacity:       0.0000000
  energy:             63.1283679

- temperature:        10.0000000
  free_energy:        63.1237976
  entropy:             1.6828048
  heat_capacity:       5.3750158
  energy:             63.1406256

- temperature:        20.0000000
  free_energy:        63.0543661
  entropy:            14.8862692
  heat_capacity:      42.0559106
  energy:             63.3520915

- temperature:        30.0000000
  free_energy:        62.7810884
  entropy:            41.3327011
  heat_capacity:      91.3766603
  energy:             64.0210694

- temperature:        40.0000000
  free_energy:        62.2085326
  entropy:            73.6816046
  heat_capacity:     134.1748926
  energy:             65.1557968

- temperature:        50.0000000
  free_energy:        61.3026435
  entropy:           107.5655353
  heat_capacity:     169.9367445
  energy:             66.6809202

- temperature:        60.0000000
  free_energy:        60.0575362
  entropy:           141.3878190
  heat_capacity:     201.5224769
  energy:             68.5408053

- temperature:        70.0000000
  free_energy:        58.4767579
  entropy:           174.6576860
  heat_capacity:     230.4967049
  energy:             70.7027959

- temperature:        80.0000000
  free_energy:        56.5667880
  entropy:           207.2077629
  heat_capacity:     257.2587590
  energy:             73.1434090

- temperature:        90.0000000
  free_energy:        54.3353103
  entropy:           238.9460587
  heat_capacity:     281.7659679
  energy:             75.8404556

- temperature:       100.0000000
  free_energy:        51.7908126
  entropy:           269.8011597
  heat_capacity:     303.9367198
  energy:             78.7709286

- temperature:       110.0000000
  free_energy:        48.9424161
  entropy:           299.7182393
  heat_capacity:     323.7805215
  energy:             81.9114224

- temperature:       120.0000000
  free_energy:        45.7996946
  entropy:           328.6619497
  heat_capacity:     341.4033361
  energy:             85.2391286

- temperature:       130.0000000
  free_energy:        42.3724755
  entropy:           356.6167327
  heat_capacity:     356.9756283
  energy:             88.7326507

- temperature:       140.0000000
  free_energy:        38.6706517
  entropy:           383.5844704
  heat_capacity:     370.6990162
  energy:             92.3724775

- temperature:       150.0000000
  free_energy:        34.7040248
  entropy:           409.5809249
  heat_capacity:     382.7818432
  energy:             96.1411635

- temperature:       160.0000000
  free_energy:        30.4821850
  entropy:           434.6320595
  heat_capacity:     393.4241508
  energy:            100.0233145

- temperature:       170.0000000
  free_energy:        26.0144254
  entropy:           458.7707901
  heat_capacity:     402.8097610
  energy:            104.0054598

- temperature:       180.0000000
  free_energy:        21.3096866
  entropy:           482.0343563
  heat_capacity:     411.1030195
  energy:            108.0758708

- temperature:       190.0000000
  free_energy:        16.3765238
  entropy:           504.4623085
  heat_capacity:     418.4483152
  energy:            112.2243624

- temperature:       200.0000000
  free_energy:        11.2230912
  entropy:           526.0950305
  heat_capacity:     424.9711067
  energy:            116.4420973

- temperature:       210.0000000
  free_energy:         5.8571399
  entropy:           546.9726929
  heat_capacity:     430.7796629
  energy:            120.7214054

- temperature:       220.0000000
  free_energy:         0.2860233
  entropy:           567.1345374
  heat_capacity:     435.9670528
  energy:            125.0556215

- temperature:       230.0000000
  free_energy:        -5.4832911
  entropy:           586.6184107
  heat_capacity:     440.6131274
  energy:            129.4389433

- temperature:       240.0000000
  free_energy:       -11.4442058
  entropy:           605.4604783
  heat_capacity:     444.7863644
  energy:            133.8663090

- temperature:       250.0000000
  free_energy:       -17.5904760
  entropy:           623.6950690
  heat_capacity:     448.5455191
  energy:            138.3332913

- temperature:       260.0000000
  free_energy:       -23.9161906
  entropy:           641.3546104
  heat_capacity:     451.9410679
  energy:            142.8360081

- temperature:       270.0000000
  free_energy:       -30.4157533
  entropy:           658.4696273
  heat_capacity:     455.0164504
  energy:            147.3710461

- temperature:       280.0000000
  free_energy:       -37.0838638
  entropy:           675.0687826
  heat_capacity:     457.8091291
  energy:            151.9353954

- temperature:       290.0000000
  free_energy:       -43.9154992
  entropy:           691.1789445
  heat_capacity:     460.3514879
  energy:            156.5263947

- temperature:       300.0000000
  free_energy:       -50.9058967
  entropy:           706.8252713
  heat_capacity:     462.6715905
  energy:            161.1416847

- temperature:       310.0000000
  free_energy:       -58.0505371
  entropy:           722.0313047
  heat_capacity:     464.7938203
  energy:            165.7791673

- temperature:       320.0000000
  free_energy:       -65.3451287
  entropy:           736.8190667
  heat_capacity:     466.7394190
  energy:            170.4369726

- temperature:       330.0000000
  free_energy:       -72.7855930
  entropy:           751.2091578
  heat_capacity:     468.5269412
  energy:            175.1134290

- temperature:       340.0000000
  free_energy:       -80.3680507
  entropy:           765.2208518
  heat_capacity:     470.1726375
  energy:            179.8070389

- temperature:       350.0000000
  free_energy:       -88.0888090
  entropy:           778.8721880
  heat_capacity:     471.6907784
  energy:            184.5164568

- temperature:       360.0000000
  free_energy:       -95.9443497
  entropy:           792.1800584
  heat_capacity:     473.0939279
  energy:            189.2404713

- temperature:       370.0000000
  free_energy:      -103.9313181
  entropy:           805.1602900
  heat_capacity:     474.3931762
  energy:            193.9779892

- temperature:       380.0000000
  free_energy:      -112.0465129
  entropy:           817.8277218
  heat_capacity:     475.5983370
  energy:            198.7280213

- temperature:       390.0000000
  free_energy:      -120.2868764
  entropy:           830.1962764
  heat_capacity:     476.7181154
  energy:            203.4896714

- temperature:       400.0000000
  free_energy:      -128.6494859
  entropy:           842.2790270
  heat_capacity:     477.7602522
  energy:            208.2621249

- temperature:       410.0000000
  free_energy:      -137.1315453
  entropy:           854.0882586
  heat_capacity:     478.7316457
  energy:            213.0446407

- temperature:       420.0000000
  free_energy:      -145.7303779
  entropy:           865.6355251
  heat_capacity:     479.6384582
  energy:            217.8365427

- temperature:       430.0000000
  free_energy:      -154.4434189
  entropy:           876.9317023
  heat_capacity:     480.4862059
  energy:            222.6372130

- temperature:       440.0000000
  free_energy:      -163.2682092
  entropy:           887.9870355
  heat_capacity:     481.2798373
  energy:            227.4460864

- temperature:       450.0000000
  free_energy:      -172.2023891
  entropy:           898.8111853
  heat_capacity:     482.0238010
  energy:            232.2626443

- temperature:       460.0000000
  free_energy:      -181.2436927
  entropy:           909.4132675
  heat_capacity:     482.7221038
  energy:            237.0864103

- temperature:       470.0000000
  free_energy:      -190.3899430
  entropy:           919.8018919
  heat_capacity:     483.3783619
  energy:            241.9169463

- temperature:       480.0000000
  free_energy:      -199.6390462
  entropy:           929.9851970
  heat_capacity:     483.9958448
  energy:            246.7538483

- temperature:       490.0000000
  free_energy:      -208.9889882
  entropy:           939.9708816
  heat_capacity:     484.5775140
  energy:            251.5967438

- temperature:       500.0000000
  free_energy:      -218.4378295
  entropy:           949.7662353
  heat_capacity:     485.1260571
  energy:            256.4452882

- temperature:       510.0000000
  free_energy:      -227.9837015
  entropy:           959.3781651
  heat_capacity:     485.6439166
  energy:            261.2991627

- temperature:       520.0000000
  free_energy:      -237.6248032
  entropy:           968.8132210
  heat_capacity:     486.1333166
  energy:            266.1580717

- temperature:       530.0000000
  free_energy:      -247.3593971
  entropy:           978.0776190
  heat_capacity:     486.5962852
  energy:            271.0217409

- temperature:       540.0000000
  free_energy:      -257.1858065
  entropy:           987.1772629
  heat_capacity:     487.0346745
  energy:            275.8899155

- temperature:       550.0000000
  free_energy:      -267.1024119
  entropy:           996.1177638
  heat_capacity:     487.4501791
  energy:            280.7623582

- temperature:       560.0000000
  free_energy:      -277.1076491
  entropy:          1004.9044590
  heat_capacity:     487.8443511
  energy:            285.6388480

- temperature:       570.0000000
  free_energy:      -287.2000054
  entropy:          1013.5424285
  heat_capacity:     488.2186142
  energy:            290.5191788

- temperature:       580.0000000
  free_energy:      -297.3780180
  entropy:          1022.0365109
  heat_capacity:     488.5742766
  energy:            295.4031583

- temperature:       590.0000000
  free_energy:      -307.6402714
  entropy:          1030.3913183
  heat_capacity:     488.9125412
  energy:            300.2906064

- temperature:       600.0000000
  free_energy:      -317.9853948
  entropy:          1038.6112494
  heat_capacity:     489.2345165
  energy:            305.1813548

- temperature:       610.0000000
  free_energy:      -328.4120608
  entropy:          1046.7005027
  heat_capacity:     489.5412242
  energy:            310.0752458

- temperature:       620.0000000
  free_energy:      -338.9189827
  entropy:          1054.6630875
  heat_capacity:     489.8336080
  energy:            314.9721315

- temperature:       630.0000000
  free_energy:      -349.5049131
  entropy:          1062.5028354
  heat_capacity:     490.1125404
  energy:            319.8718732

- temperature:       640.0000000
  free_energy:      -360.1686422
  entropy:          1070.2234100
  heat_capacity:     490.3788286
  energy:            324.7743402

- temperature:       650.0000000
  free_energy:      -370.9089958
  entropy:          1077.8283167
  heat_capacity:     490.6332208
  energy:            329.6794101

- temperature:       660.0000000
  free_energy:      -381.7248342
  entropy:          1085.3209113
  heat_capacity:     490.8764108
  energy:            334.5869673

- temperature:       670.0000000
  free_energy:      -392.6150504
  entropy:          1092.7044082
  heat_capacity:     491.1090430
  energy:            339.4969031

- temperature:       680.0000000
  free_energy:      -403.5785689
  entropy:          1099.9818881
  heat_capacity:     491.3317164
  energy:            344.4091150

- temperature:       690.0000000
  free_energy:      -414.6143446
  entropy:          1107.1563054
  heat_capacity:     491.5449883
  energy:            349.3235061

- temperature:       700.0000000
  free_energy:      -425.7213610
  entropy:          1114.2304944
  heat_capacity:     491.7493777
  energy:            354.2399851

- temperature:       710.0000000
  free_energy:      -436.8986295
  entropy:          1121.2071762
  heat_capacity:     491.9453687
  energy:            359.1584657

- temperature:       720.0000000
  free_energy:      -448.1451882
  entropy:          1128.0889642
  heat_capacity:     492.1334127
  energy:            364.0788660

- temperature:       730.0000000
  free_energy:      -459.4601008
  entropy:          1134.8783694
  heat_capacity:     492.3139316
  energy:            369.0011088

- temperature:       740.0000000
  free_energy:      -470.8424557
  entropy:          1141.5778062
  heat_capacity:     492.4873196
  energy:            373.9251209

- temperature:       750.0000000
  free_energy:      -482.2913648
  entropy:          1148.1895967
  heat_capacity:     492.6539459
  energy:            378.8508327

- temperature:       760.0000000
  free_energy:      -493.8059629
  entropy:          1154.7159754
  heat_capacity:     492.8141557
  energy:            383.7781784

- temperature:       770.0000000
  free_energy:      -505.3854068
  entropy:          1161.1590939
  heat_capacity:     492.9682730
  energy:            388.7070955

- temperature:       780.0000000
  free_energy:      -517.0288742
  entropy:          1167.5210241
  heat_capacity:     493.1166015
  energy:            393.6375246

- temperature:       790.0000000
  free_energy:      -528.7355633
  entropy:          1173.8037626
  heat_capacity:     493.2594263
  energy:            398.5694092

- temperature:       800.0000000
  free_energy:      -540.5046919
  entropy:          1180.0092344
  heat_capacity:     493.3970152
  energy:            403.5026957

- temperature:       810.0000000
  free_energy:      -552.3354966
  entropy:          1186.1392957
  heat_capacity:     493.5296200
  energy:            408.4373329

- temperature:       820.0000000
  free_energy:      -564.2272324
  entropy:          1192.1957374
  heat_capacity:     493.6574778
  energy:            413.3732722

- temperature:       830.0000000
  free_energy:      -576.1791717
  entropy:          1198.1802881
  heat_capacity:     493.7808114
  energy:            418.3104674

- temperature:       840.0000000
  free_energy:      -588.1906041
  entropy:          1204.0946169
  heat_capacity:     493.8998312
  energy:            423.2488741

- temperature:       850.0000000
  free_energy:      -600.2608354
  entropy:          1209.9403361
  heat_capacity:     494.0147352
  energy:            428.1884503

- temperature:       860.0000000
  free_energy:      -612.3891873
  entropy:          1215.7190035
  heat_capacity:     494.1257103
  energy:            433.1291557

- temperature:       870.0000000
  free_energy:      -624.5749970
  entropy:          1221.4321252
  heat_capacity:     494.2329331
  energy:            438.0709520

- temperature:       880.0000000
  free_energy:      -636.8176162
  entropy:          1227.0811575
  heat_capacity:     494.3365703
  energy:            443.0138024

- temperature:       890.0000000
  free_energy:      -649.1164112
  entropy:          1232.6675091
  heat_capacity:     494.4367794
  energy:            447.9576719

- temperature:       900.0000000
  free_energy:      -661.4707620
  entropy:          1238.1925434
  heat_capacity:     494.5337095
  energy:            452.9025271

- temperature:       910.0000000
  free_energy:      -673.8800621
  entropy:          1243.6575799
  heat_capacity:     494.6275017
  energy:            457.8483357

- temperature:       920.0000000
  free_energy:      -686.3437179
  entropy:          1249.0638967
  heat_capacity:     494.7182895
  energy:            462.7950671

- temperature:       930.0000000
  free_energy:      -698.8611484
  entropy:          1254.4127315
  heat_capacity:     494.8061996
  energy:            467.7426919

- temperature:       940.0000000
  free_energy:      -711.4317849
  entropy:          1259.7052838
  heat_capacity:     494.8913519
  energy:            472.6911819

- temperature:       950.0000000
  free_energy:      -724.0550704
  entropy:          1264.9427163
  heat_capacity:     494.9738602
  energy:            477.6405101

- temperature:       960.0000000
  free_energy:      -736.7304593
  entropy:          1270.1261561
  heat_capacity:     495.0538326
  energy:            482.5906506

- temperature:       970.0000000
  free_energy:      -749.4574172
  entropy:          1275.2566967
  heat_capacity:     495.1313716
  energy:            487.5415786

- temperature:       980.0000000
  free_energy:      -762.2354204
  entropy:          1280.3353986
  heat_capacity:     495.2065748
  energy:            492.4932703

- temperature:       990.0000000
  free_energy:      -775.0639558
  entropy:          1285.3632913
  heat_capacity:     495.2795347
  energy:            497.4457027

- temperature:      1000.0000000
  free_energy:      -787.9425202
  entropy:          1290.3413740
  heat_capacity:     495.3503395
  energy:            502.3988538
