phonopy:
  version: "2.37.1"
  frequency_unit_conversion_factor: 15.633302
  symmetry_tolerance: 1.00000e-05

space_group:
  type: "P4/mbm"
  number: 127
  Hall_symbol: "-P 4 2ab"

primitive_matrix:
- [  1.000000000000000,  0.000000000000000, -0.000000000000000 ]
- [  0.000000000000000,  1.000000000000000,  0.000000000000000 ]
- [  0.000000000000000,  0.000000000000000,  1.000000000000000 ]

supercell_matrix:
- [   1,   0,   0 ]
- [   0,   1,   0 ]
- [   0,   0,   4 ]

primitive_cell:
  lattice:
  - [    10.407763864814344,     0.000000000000000,     0.000000000000000 ] # a
  - [    -0.000000119490477,    10.407764012672246,     0.000000000000000 ] # b
  - [     0.000000003339516,     0.000000009909156,     3.156514677922893 ] # c
  points:
  - symbol: Li # 1
    coordinates: [  0.173986020595336,  0.673986022161852,  0.500000001839433 ]
    mass: 6.940000
  - symbol: Li # 2
    coordinates: [  0.826013979890245,  0.326013979772556,  0.500000001607157 ]
    mass: 6.940000
  - symbol: Li # 3
    coordinates: [  0.326013978984037,  0.173986018958322,  0.500000001699752 ]
    mass: 6.940000
  - symbol: Li # 4
    coordinates: [  0.673986020564120,  0.826013978890234,  0.500000001736607 ]
    mass: 6.940000
  - symbol: Sn # 5
    coordinates: [  0.294963058981655,  0.430019924708284,  0.999999999446204 ]
    mass: 118.710000
  - symbol: Sn # 6
    coordinates: [  0.705036940692509,  0.569980076950964,  0.999999999456074 ]
    mass: 118.710000
  - symbol: Sn # 7
    coordinates: [  0.569980077940207,  0.294963060768244,  0.999999999457778 ]
    mass: 118.710000
  - symbol: Sn # 8
    coordinates: [  0.430019923458767,  0.705036939759551,  0.999999999429782 ]
    mass: 118.710000
  - symbol: Sn # 9
    coordinates: [  0.205036938725232,  0.930019922906637,  0.999999999186912 ]
    mass: 118.710000
  - symbol: Sn # 10
    coordinates: [  0.794963062190341,  0.069980075550539,  0.999999999151710 ]
    mass: 118.710000
  - symbol: Sn # 11
    coordinates: [  0.930019925019026,  0.794963059737253,  0.999999999385213 ]
    mass: 118.710000
  - symbol: Sn # 12
    coordinates: [  0.069980075626336,  0.205036940405228,  0.999999999342969 ]
    mass: 118.710000
  - symbol: Sn # 13
    coordinates: [  0.999999998907568,  0.499999998462795,  0.999999999129065 ]
    mass: 118.710000
  - symbol: Sn # 14
    coordinates: [  0.499999998440940,  0.000000000965532,  0.999999999129643 ]
    mass: 118.710000
  reciprocal_lattice: # without 2pi
  - [     0.096082118405925,     0.000000001103109,    -0.000000000101653 ] # a*
  - [     0.000000000000000,     0.096082117040934,    -0.000000000301628 ] # b*
  - [     0.000000000000000,     0.000000000000000,     0.316805116413410 ] # c*

unit_cell:
  lattice:
  - [    10.407763864814344,     0.000000000000000,     0.000000000000000 ] # a
  - [    -0.000000119490477,    10.407764012672246,     0.000000000000000 ] # b
  - [     0.000000003339516,     0.000000009909156,     3.156514677922893 ] # c
  points:
  - symbol: Li # 1
    coordinates: [  0.173986020595336,  0.673986022161852,  0.500000001839433 ]
    mass: 6.940000
    reduced_to: 1
  - symbol: Li # 2
    coordinates: [  0.826013979890245,  0.326013979772556,  0.500000001607157 ]
    mass: 6.940000
    reduced_to: 2
  - symbol: Li # 3
    coordinates: [  0.326013978984037,  0.173986018958322,  0.500000001699752 ]
    mass: 6.940000
    reduced_to: 3
  - symbol: Li # 4
    coordinates: [  0.673986020564120,  0.826013978890234,  0.500000001736607 ]
    mass: 6.940000
    reduced_to: 4
  - symbol: Sn # 5
    coordinates: [  0.294963058981655,  0.430019924708284,  0.999999999446204 ]
    mass: 118.710000
    reduced_to: 5
  - symbol: Sn # 6
    coordinates: [  0.705036940692509,  0.569980076950964,  0.999999999456074 ]
    mass: 118.710000
    reduced_to: 6
  - symbol: Sn # 7
    coordinates: [  0.569980077940207,  0.294963060768244,  0.999999999457778 ]
    mass: 118.710000
    reduced_to: 7
  - symbol: Sn # 8
    coordinates: [  0.430019923458767,  0.705036939759551,  0.999999999429782 ]
    mass: 118.710000
    reduced_to: 8
  - symbol: Sn # 9
    coordinates: [  0.205036938725232,  0.930019922906637,  0.999999999186912 ]
    mass: 118.710000
    reduced_to: 9
  - symbol: Sn # 10
    coordinates: [  0.794963062190341,  0.069980075550539,  0.999999999151710 ]
    mass: 118.710000
    reduced_to: 10
  - symbol: Sn # 11
    coordinates: [  0.930019925019026,  0.794963059737253,  0.999999999385213 ]
    mass: 118.710000
    reduced_to: 11
  - symbol: Sn # 12
    coordinates: [  0.069980075626336,  0.205036940405228,  0.999999999342969 ]
    mass: 118.710000
    reduced_to: 12
  - symbol: Sn # 13
    coordinates: [  0.999999998907568,  0.499999998462795,  0.999999999129065 ]
    mass: 118.710000
    reduced_to: 13
  - symbol: Sn # 14
    coordinates: [  0.499999998440940,  0.000000000965532,  0.999999999129643 ]
    mass: 118.710000
    reduced_to: 14

supercell:
  lattice:
  - [    10.407763864814344,     0.000000000000000,     0.000000000000000 ] # a
  - [    -0.000000119490477,    10.407764012672246,     0.000000000000000 ] # b
  - [     0.000000013358064,     0.000000039636625,    12.626058711691574 ] # c
  points:
  - symbol: Li # 1
    coordinates: [  0.173986020595336,  0.673986022161852,  0.125000000459858 ]
    mass: 6.940000
    reduced_to: 1
  - symbol: Li # 2
    coordinates: [  0.173986020595336,  0.673986022161852,  0.375000000459858 ]
    mass: 6.940000
    reduced_to: 1
  - symbol: Li # 3
    coordinates: [  0.173986020595336,  0.673986022161852,  0.625000000459858 ]
    mass: 6.940000
    reduced_to: 1
  - symbol: Li # 4
    coordinates: [  0.173986020595336,  0.673986022161852,  0.875000000459858 ]
    mass: 6.940000
    reduced_to: 1
  - symbol: Li # 5
    coordinates: [  0.826013979890245,  0.326013979772556,  0.125000000401789 ]
    mass: 6.940000
    reduced_to: 5
  - symbol: Li # 6
    coordinates: [  0.826013979890245,  0.326013979772556,  0.375000000401789 ]
    mass: 6.940000
    reduced_to: 5
  - symbol: Li # 7
    coordinates: [  0.826013979890245,  0.326013979772556,  0.625000000401789 ]
    mass: 6.940000
    reduced_to: 5
  - symbol: Li # 8
    coordinates: [  0.826013979890245,  0.326013979772556,  0.875000000401789 ]
    mass: 6.940000
    reduced_to: 5
  - symbol: Li # 9
    coordinates: [  0.326013978984037,  0.173986018958322,  0.125000000424938 ]
    mass: 6.940000
    reduced_to: 9
  - symbol: Li # 10
    coordinates: [  0.326013978984037,  0.173986018958322,  0.375000000424938 ]
    mass: 6.940000
    reduced_to: 9
  - symbol: Li # 11
    coordinates: [  0.326013978984037,  0.173986018958322,  0.625000000424938 ]
    mass: 6.940000
    reduced_to: 9
  - symbol: Li # 12
    coordinates: [  0.326013978984037,  0.173986018958322,  0.875000000424938 ]
    mass: 6.940000
    reduced_to: 9
  - symbol: Li # 13
    coordinates: [  0.673986020564120,  0.826013978890234,  0.125000000434152 ]
    mass: 6.940000
    reduced_to: 13
  - symbol: Li # 14
    coordinates: [  0.673986020564120,  0.826013978890234,  0.375000000434152 ]
    mass: 6.940000
    reduced_to: 13
  - symbol: Li # 15
    coordinates: [  0.673986020564120,  0.826013978890234,  0.625000000434152 ]
    mass: 6.940000
    reduced_to: 13
  - symbol: Li # 16
    coordinates: [  0.673986020564120,  0.826013978890234,  0.875000000434152 ]
    mass: 6.940000
    reduced_to: 13
  - symbol: Sn # 17
    coordinates: [  0.294963058981655,  0.430019924708284,  0.249999999861551 ]
    mass: 118.710000
    reduced_to: 17
  - symbol: Sn # 18
    coordinates: [  0.294963058981655,  0.430019924708284,  0.499999999861551 ]
    mass: 118.710000
    reduced_to: 17
  - symbol: Sn # 19
    coordinates: [  0.294963058981655,  0.430019924708284,  0.749999999861551 ]
    mass: 118.710000
    reduced_to: 17
  - symbol: Sn # 20
    coordinates: [  0.294963058981655,  0.430019924708284,  0.999999999861551 ]
    mass: 118.710000
    reduced_to: 17
  - symbol: Sn # 21
    coordinates: [  0.705036940692509,  0.569980076950964,  0.249999999864018 ]
    mass: 118.710000
    reduced_to: 21
  - symbol: Sn # 22
    coordinates: [  0.705036940692509,  0.569980076950964,  0.499999999864018 ]
    mass: 118.710000
    reduced_to: 21
  - symbol: Sn # 23
    coordinates: [  0.705036940692509,  0.569980076950964,  0.749999999864018 ]
    mass: 118.710000
    reduced_to: 21
  - symbol: Sn # 24
    coordinates: [  0.705036940692509,  0.569980076950964,  0.999999999864018 ]
    mass: 118.710000
    reduced_to: 21
  - symbol: Sn # 25
    coordinates: [  0.569980077940207,  0.294963060768244,  0.249999999864444 ]
    mass: 118.710000
    reduced_to: 25
  - symbol: Sn # 26
    coordinates: [  0.569980077940207,  0.294963060768244,  0.499999999864444 ]
    mass: 118.710000
    reduced_to: 25
  - symbol: Sn # 27
    coordinates: [  0.569980077940207,  0.294963060768244,  0.749999999864444 ]
    mass: 118.710000
    reduced_to: 25
  - symbol: Sn # 28
    coordinates: [  0.569980077940207,  0.294963060768244,  0.999999999864444 ]
    mass: 118.710000
    reduced_to: 25
  - symbol: Sn # 29
    coordinates: [  0.430019923458767,  0.705036939759551,  0.249999999857446 ]
    mass: 118.710000
    reduced_to: 29
  - symbol: Sn # 30
    coordinates: [  0.430019923458767,  0.705036939759551,  0.499999999857446 ]
    mass: 118.710000
    reduced_to: 29
  - symbol: Sn # 31
    coordinates: [  0.430019923458767,  0.705036939759551,  0.749999999857446 ]
    mass: 118.710000
    reduced_to: 29
  - symbol: Sn # 32
    coordinates: [  0.430019923458767,  0.705036939759551,  0.999999999857446 ]
    mass: 118.710000
    reduced_to: 29
  - symbol: Sn # 33
    coordinates: [  0.205036938725232,  0.930019922906637,  0.249999999796728 ]
    mass: 118.710000
    reduced_to: 33
  - symbol: Sn # 34
    coordinates: [  0.205036938725232,  0.930019922906637,  0.499999999796728 ]
    mass: 118.710000
    reduced_to: 33
  - symbol: Sn # 35
    coordinates: [  0.205036938725232,  0.930019922906637,  0.749999999796728 ]
    mass: 118.710000
    reduced_to: 33
  - symbol: Sn # 36
    coordinates: [  0.205036938725232,  0.930019922906637,  0.999999999796728 ]
    mass: 118.710000
    reduced_to: 33
  - symbol: Sn # 37
    coordinates: [  0.794963062190341,  0.069980075550539,  0.249999999787928 ]
    mass: 118.710000
    reduced_to: 37
  - symbol: Sn # 38
    coordinates: [  0.794963062190341,  0.069980075550539,  0.499999999787928 ]
    mass: 118.710000
    reduced_to: 37
  - symbol: Sn # 39
    coordinates: [  0.794963062190341,  0.069980075550539,  0.749999999787928 ]
    mass: 118.710000
    reduced_to: 37
  - symbol: Sn # 40
    coordinates: [  0.794963062190341,  0.069980075550539,  0.999999999787928 ]
    mass: 118.710000
    reduced_to: 37
  - symbol: Sn # 41
    coordinates: [  0.930019925019026,  0.794963059737253,  0.249999999846303 ]
    mass: 118.710000
    reduced_to: 41
  - symbol: Sn # 42
    coordinates: [  0.930019925019026,  0.794963059737253,  0.499999999846303 ]
    mass: 118.710000
    reduced_to: 41
  - symbol: Sn # 43
    coordinates: [  0.930019925019026,  0.794963059737253,  0.749999999846303 ]
    mass: 118.710000
    reduced_to: 41
  - symbol: Sn # 44
    coordinates: [  0.930019925019026,  0.794963059737253,  0.999999999846303 ]
    mass: 118.710000
    reduced_to: 41
  - symbol: Sn # 45
    coordinates: [  0.069980075626336,  0.205036940405228,  0.249999999835742 ]
    mass: 118.710000
    reduced_to: 45
  - symbol: Sn # 46
    coordinates: [  0.069980075626336,  0.205036940405228,  0.499999999835742 ]
    mass: 118.710000
    reduced_to: 45
  - symbol: Sn # 47
    coordinates: [  0.069980075626336,  0.205036940405228,  0.749999999835742 ]
    mass: 118.710000
    reduced_to: 45
  - symbol: Sn # 48
    coordinates: [  0.069980075626336,  0.205036940405228,  0.999999999835742 ]
    mass: 118.710000
    reduced_to: 45
  - symbol: Sn # 49
    coordinates: [  0.999999998907568,  0.499999998462795,  0.249999999782266 ]
    mass: 118.710000
    reduced_to: 49
  - symbol: Sn # 50
    coordinates: [  0.999999998907568,  0.499999998462795,  0.499999999782266 ]
    mass: 118.710000
    reduced_to: 49
  - symbol: Sn # 51
    coordinates: [  0.999999998907568,  0.499999998462795,  0.749999999782266 ]
    mass: 118.710000
    reduced_to: 49
  - symbol: Sn # 52
    coordinates: [  0.999999998907568,  0.499999998462795,  0.999999999782266 ]
    mass: 118.710000
    reduced_to: 49
  - symbol: Sn # 53
    coordinates: [  0.499999998440940,  0.000000000965532,  0.249999999782411 ]
    mass: 118.710000
    reduced_to: 53
  - symbol: Sn # 54
    coordinates: [  0.499999998440940,  0.000000000965532,  0.499999999782411 ]
    mass: 118.710000
    reduced_to: 53
  - symbol: Sn # 55
    coordinates: [  0.499999998440940,  0.000000000965532,  0.749999999782411 ]
    mass: 118.710000
    reduced_to: 53
  - symbol: Sn # 56
    coordinates: [  0.499999998440940,  0.000000000965532,  0.999999999782411 ]
    mass: 118.710000
    reduced_to: 53

displacements:
- atom:    1
  displacement:
    [   0.0063606527603591,  0.0000000000242237,  0.0077163525361492 ]
  forces:
  - [   0.0031922585330904,  0.0105707868933678, -0.0121827181428671 ]
  - [   0.0135824559256434,  0.0138469738885760,  0.0017581270076334 ]
  - [   0.0138487927615643,  0.0139693273231387, -0.0009396928362548 ]
  - [   0.0134620591998100,  0.0137210860848427,  0.0018205619417131 ]
  - [  -0.0139813488349319, -0.0141739975661039,  0.0001408280804753 ]
  - [  -0.0138112781569362, -0.0139482989907265,  0.0001117279753089 ]
  - [  -0.0139390630647540, -0.0139302834868431, -0.0000301096588373 ]
  - [  -0.0145799871534109, -0.0147176748141646, -0.0005217995494604 ]
  - [  -0.0139663573354483,  0.0139826443046331,  0.0001417826861143 ]
  - [  -0.0141117433086038,  0.0139468107372522, -0.0002494407817721 ]
  - [  -0.0139462323859334,  0.0139397811144590, -0.0000083753839135 ]
  - [  -0.0138543229550123,  0.0138955367729068, -0.0000311248004436 ]
  - [   0.0137002561241388, -0.0139811113476753,  0.0001386776566505 ]
  - [   0.0135469734668732, -0.0140498131513596, -0.0001635095104575 ]
  - [   0.0140280760824680, -0.0139386150985956, -0.0000082990154624 ]
  - [   0.0135183818638325, -0.0137926544994116, -0.0001110322773457 ]
  - [   0.0065416675060987,  0.0355837717652321,  0.0008798585622571 ]
  - [   0.0058526098728180,  0.0373509228229523, -0.0000103811617009 ]
  - [   0.0058382302522659,  0.0374501422047615, -0.0000805828021839 ]
  - [   0.0055610695853829,  0.0377707071602345,  0.0004024338559248 ]
  - [  -0.0064922058954835, -0.0372214578092098, -0.0000363882281817 ]
  - [  -0.0058063026517630, -0.0374074801802635,  0.0001062270021066 ]
  - [  -0.0058266622945666, -0.0374675057828426, -0.0000181816867553 ]
  - [  -0.0063745249062777, -0.0372527390718460, -0.0001139085507020 ]
  - [  -0.0374362543225288,  0.0058331806212664, -0.0000344606232829 ]
  - [  -0.0374412462115288,  0.0058888271450996,  0.0000181489740498 ]
  - [  -0.0373901128768921,  0.0058452766388655,  0.0000135484151542 ]
  - [  -0.0375919640064240,  0.0059731416404247, -0.0000379486591555 ]
  - [   0.0428750365972519, -0.0049332920461893,  0.0024220279883593 ]
  - [   0.0375112779438496, -0.0058959219604731,  0.0002828346332535 ]
  - [   0.0373376347124577, -0.0058501930907369, -0.0001137853250839 ]
  - [   0.0385766886174679, -0.0057077901437879, -0.0001333589025307 ]
  - [  -0.0055468035861850,  0.0399297885596752,  0.0013715147506446 ]
  - [  -0.0058918036520481,  0.0375206619501114,  0.0001409248798154 ]
  - [  -0.0058461446315050,  0.0373486392199993,  0.0000271368189715 ]
  - [  -0.0062960498034954,  0.0357247628271580,  0.0008710122201592 ]
  - [   0.0057937242090702, -0.0374058261513710, -0.0000198475318030 ]
  - [   0.0058808224275708, -0.0374533869326115, -0.0000255013001151 ]
  - [   0.0058387704193592, -0.0374012589454651,  0.0000551948323846 ]
  - [   0.0059321373701096, -0.0375597812235355, -0.0000509339151904 ]
  - [   0.0378862470388412,  0.0059235254302621,  0.0001233979128301 ]
  - [   0.0373762212693691,  0.0058428496122360, -0.0000663998653181 ]
  - [   0.0374723225831985,  0.0058296630159020, -0.0000264546833932 ]
  - [   0.0399864949285984,  0.0049703791737556,  0.0011184922186658 ]
  - [  -0.0374945178627968, -0.0058879479765892, -0.0000674100592732 ]
  - [  -0.0374059341847897, -0.0058346046134830,  0.0000345263979398 ]
  - [  -0.0374686978757381, -0.0058545153588057,  0.0000523846247233 ]
  - [  -0.0375187881290913, -0.0057728830724955, -0.0000820714631118 ]
  - [   0.0000626563560218,  0.0000212075538002, -0.0000058636069298 ]
  - [  -0.0000629625865258, -0.0000588856637478, -0.0000062203034759 ]
  - [   0.0000241801608354,  0.0000272038741969,  0.0003019124269485 ]
  - [   0.0049157692119479,  0.0048640808090568,  0.0028883209452033 ]
  - [   0.0000888498034328,  0.0000828463817015, -0.0000319940154441 ]
  - [  -0.0000310074101435, -0.0000291022297461, -0.0000398947158828 ]
  - [   0.0000368290347978,  0.0000387935724575, -0.0000037245918065 ]
  - [  -0.0001561496901559, -0.0001663770817686,  0.0000298272352666 ]
- atom:    1
  displacement:
    [  -0.0063606527603591, -0.0000000000242237, -0.0077163525361492 ]
  forces:
  - [   0.0247135106474161,  0.0173887051641941,  0.0121951084583998 ]
  - [   0.0143357431516051,  0.0140702305361629, -0.0017144079320133 ]
  - [   0.0140752950683236,  0.0139501010999084,  0.0009397424291819 ]
  - [   0.0144668752327561,  0.0141963008791208, -0.0018595787696540 ]
  - [  -0.0139344604685903, -0.0137441800907254, -0.0001379614695907 ]
  - [  -0.0141055919229984, -0.0139708183705807, -0.0001139827072620 ]
  - [  -0.0139750931411982, -0.0139884008094668,  0.0000308156013489 ]
  - [  -0.0133277392014861, -0.0131935775279999,  0.0005274098366499 ]
  - [  -0.0139551721513271,  0.0139404842630029, -0.0001395409926772 ]
  - [  -0.0138106085360050,  0.0139815136790276,  0.0002392437309027 ]
  - [  -0.0139724425971508,  0.0139806624501944,  0.0000078380107880 ]
  - [  -0.0140663888305426,  0.0140249002724886,  0.0000345353037119 ]
  - [   0.0142226088792086, -0.0139390733093023, -0.0001426171511412 ]
  - [   0.0143599156290293, -0.0138753084465861,  0.0001526046544313 ]
  - [   0.0138928275555372, -0.0139794331043959,  0.0000078454613686 ]
  - [   0.0144258448854089, -0.0141312070190907,  0.0001273201778531 ]
  - [   0.0051976637914777,  0.0392232649028301, -0.0008616686100140 ]
  - [   0.0058796545490623,  0.0375007316470146,  0.0000126969534904 ]
  - [   0.0058930497616529,  0.0374050885438919,  0.0000802165595815 ]
  - [   0.0061690239235759,  0.0371037423610687, -0.0003926129429601 ]
  - [  -0.0052459808066487, -0.0376223325729370,  0.0000355135416612 ]
  - [  -0.0059171104803681, -0.0374440550804138, -0.0001037699403241 ]
  - [  -0.0058964062482119, -0.0373831056058407,  0.0000189653947018 ]
  - [  -0.0053689740598202, -0.0375953428447247,  0.0001113078906201 ]
  - [  -0.0374247021973133,  0.0058920495212078,  0.0000356998643838 ]
  - [  -0.0374187268316746,  0.0058394279330969, -0.0000175643363036 ]
  - [  -0.0374698787927628,  0.0058819148689508, -0.0000139023177326 ]
  - [  -0.0372660718858242,  0.0057571530342102,  0.0000369187910110 ]
  - [   0.0321816951036453, -0.0067746918648481, -0.0023219988215715 ]
  - [   0.0373389050364494, -0.0058329366147518, -0.0002777340705507 ]
  - [   0.0375078804790974, -0.0058802114799619,  0.0001106053823605 ]
  - [   0.0362525284290314, -0.0060272552073002,  0.0001410356926499 ]
  - [  -0.0061967009678483,  0.0349663905799389, -0.0013597010402009 ]
  - [  -0.0058342143893242,  0.0373348034918308, -0.0001424482907169 ]
  - [  -0.0058811325579882,  0.0375059209764004, -0.0000256864586845 ]
  - [  -0.0054238177835941,  0.0391284488141537, -0.0008655635174364 ]
  - [   0.0059338901191950, -0.0374495722353458,  0.0000225316616707 ]
  - [   0.0058488575741649, -0.0374002084136009,  0.0000253694015555 ]
  - [   0.0058925207704306, -0.0374505147337914, -0.0000592504511587 ]
  - [   0.0057972986251116, -0.0372895523905754,  0.0000524107017554 ]
  - [   0.0369787439703941,  0.0057965815067291, -0.0001318337162957 ]
  - [   0.0374714545905590,  0.0058840755373240,  0.0000700441305526 ]
  - [   0.0373732373118401,  0.0058982046321034,  0.0000210586586036 ]
  - [   0.0347707197070122,  0.0067963209003210, -0.0011638154974207 ]
  - [  -0.0373609922826290, -0.0058445874601603,  0.0000679986551404 ]
  - [  -0.0374483242630959, -0.0058937491849065, -0.0000334338983521 ]
  - [  -0.0373897328972816, -0.0058729639276862, -0.0000527716474608 ]
  - [  -0.0373265743255615, -0.0059702256694436,  0.0000799749395810 ]
  - [  -0.0000365388696082,  0.0000055099953897, -0.0000153938308358 ]
  - [   0.0000607938854955,  0.0000566547969356,  0.0000071097165346 ]
  - [  -0.0000289407325909, -0.0000337551464327, -0.0003131022676826 ]
  - [  -0.0050296904519200, -0.0049980618059635, -0.0029777577146888 ]
  - [  -0.0000840950087877, -0.0000764756696299,  0.0000338442041539 ]
  - [   0.0000314261269523,  0.0000281098473351,  0.0000391709618270 ]
  - [  -0.0000355496158591, -0.0000386544270441,  0.0000015234691091 ]
  - [   0.0001597292430233,  0.0001629708276596, -0.0000283674453385 ]
- atom:   17
  displacement:
    [   0.0063606527603591,  0.0000000000242237,  0.0077163525361492 ]
  forces:
  - [   0.0144222863018513,  0.0129418764263391,  0.0010234080255032 ]
  - [   0.0138570237904787,  0.0141542879864573,  0.0002348616253585 ]
  - [   0.0139004634693265,  0.0139596564695239, -0.0000546120572835 ]
  - [   0.0139842303469777,  0.0139058744534850, -0.0000382536090910 ]
  - [  -0.0145664522424340, -0.0139273637905717, -0.0000234637409449 ]
  - [  -0.0144738070666790, -0.0139128100126982, -0.0001259092241526 ]
  - [  -0.0138376168906689, -0.0139518901705742,  0.0000514741986990 ]
  - [  -0.0139872645959258, -0.0139300692826509,  0.0000353520736098 ]
  - [  -0.0143163120374084,  0.0149451764300466,  0.0008026566356421 ]
  - [  -0.0137166837230325,  0.0118910782039165,  0.0014336341992021 ]
  - [  -0.0138947106897831,  0.0137322666123509,  0.0000615399330854 ]
  - [  -0.0140344873070717,  0.0142076676711440,  0.0001070955768228 ]
  - [   0.0139781394973397, -0.0139999929815531, -0.0000931778922677 ]
  - [   0.0139413885772228, -0.0139964362606406,  0.0000201156362891 ]
  - [   0.0140052028000355, -0.0139598585665226, -0.0000025071203709 ]
  - [   0.0139051834121346, -0.0139650003984571,  0.0000344580039382 ]
  - [  -0.0062457183375955,  0.0394098609685898, -0.0162466131150723 ]
  - [   0.0059311501681805,  0.0372623838484287,  0.0042910752817988 ]
  - [   0.0059154210612178,  0.0374213010072708,  0.0029349073302001 ]
  - [   0.0060199983417988,  0.0375069119036198,  0.0039544915780425 ]
  - [  -0.0042203664779663, -0.0377280041575432,  0.0000653403112665 ]
  - [  -0.0062417555600405, -0.0374655388295650, -0.0001588998711668 ]
  - [  -0.0058614416047931, -0.0374320559203625, -0.0000235777697526 ]
  - [  -0.0058658197522163, -0.0373892448842525,  0.0001526106789242 ]
  - [  -0.0339157395064831,  0.0057707019150257,  0.0001387157244608 ]
  - [  -0.0370839685201645,  0.0053854500874877,  0.0007942234515212 ]
  - [  -0.0374264009296894,  0.0058681331574917, -0.0002394410548732 ]
  - [  -0.0373150929808617,  0.0059660300612450, -0.0001387050142512 ]
  - [   0.0381528846919537, -0.0057868864387274,  0.0001422545174137 ]
  - [   0.0376876443624496, -0.0051133353263140,  0.0005642436444759 ]
  - [   0.0374099984765053, -0.0058688726276159, -0.0002404620172456 ]
  - [   0.0373153388500214, -0.0062498115003109,  0.0000879775616340 ]
  - [  -0.0064349919557571,  0.0379753038287163,  0.0000296499929391 ]
  - [  -0.0056330934166908,  0.0374316275119781, -0.0000409731292166 ]
  - [  -0.0058775926008821,  0.0374328605830669, -0.0000302030239254 ]
  - [  -0.0057613365352154,  0.0374557487666607, -0.0001437911996618 ]
  - [   0.0069696642458439, -0.0381232760846615,  0.0000444214674644 ]
  - [   0.0057275556027889, -0.0373892635107040, -0.0000333447824232 ]
  - [   0.0058851847425103, -0.0374227836728096, -0.0000031731324270 ]
  - [   0.0056535862386227, -0.0373804792761803,  0.0000265548587777 ]
  - [   0.0374665558338165,  0.0049608889967203, -0.0000243916874751 ]
  - [   0.0374483540654182,  0.0059391502290964,  0.0000359272235073 ]
  - [   0.0374362766742706,  0.0058578867465258,  0.0000104408827610 ]
  - [   0.0372726693749428,  0.0060803014785051, -0.0000784707517596 ]
  - [  -0.0365988910198212, -0.0041893497109413,  0.0002359781647101 ]
  - [  -0.0375900268554688, -0.0060511939227581,  0.0000888768699951 ]
  - [  -0.0374332703649998, -0.0058475453406572, -0.0002005988499150 ]
  - [  -0.0371284633874893, -0.0060007292777300,  0.0001253883237951 ]
  - [   0.0045776618644595, -0.0007709674537182,  0.0000302819535136 ]
  - [  -0.0000717136426829,  0.0001197681413032, -0.0000416627153754 ]
  - [   0.0000041504972614, -0.0000113288406283, -0.0002859262749553 ]
  - [   0.0006650156574324, -0.0000530545366928,  0.0008181594312191 ]
  - [  -0.0000159917253768,  0.0002529307967052,  0.0000569708645344 ]
  - [  -0.0001001046621241,  0.0002369850699324, -0.0001430776901543 ]
  - [  -0.0000050005619414,  0.0000020620936994, -0.0000128514366224 ]
  - [   0.0001210951886605, -0.0001569784071762, -0.0000089892419055 ]
- atom:   17
  displacement:
    [  -0.0063606527603591, -0.0000000000242237, -0.0077163525361492 ]
  forces:
  - [   0.0134799936786294,  0.0150212589651346, -0.0010501586366445 ]
  - [   0.0140630295500159,  0.0137742636725307, -0.0002291346900165 ]
  - [   0.0140251833945513,  0.0139604210853577,  0.0000489638186991 ]
  - [   0.0139412311837077,  0.0140145309269428,  0.0000424990430474 ]
  - [  -0.0133476722985506, -0.0139884930104017,  0.0000262660905719 ]
  - [  -0.0134407766163349, -0.0140052083879709,  0.0001216800883412 ]
  - [  -0.0140775106847286, -0.0139678083360195, -0.0000516604632139 ]
  - [  -0.0139277027919888, -0.0139909945428371, -0.0000342801213264 ]
  - [  -0.0136014660820365,  0.0129817193374038, -0.0008037444204092 ]
  - [  -0.0142080523073673,  0.0160152912139893, -0.0014276085421443 ]
  - [  -0.0140234753489494,  0.0141921713948250, -0.0000682678073645 ]
  - [  -0.0138835869729519,  0.0137149868533015, -0.0000992389395833 ]
  - [   0.0139437448233366, -0.0139181958511472,  0.0000926945358515 ]
  - [   0.0139810238033533, -0.0139209590852261, -0.0000201845541596 ]
  - [   0.0139157697558403, -0.0139584876596928,  0.0000013234093785 ]
  - [   0.0140158999711275, -0.0139535162597895, -0.0000327080488205 ]
  - [   0.0181030966341496,  0.0354476533830166,  0.0162837337702513 ]
  - [   0.0057712681591511,  0.0375852920114994, -0.0040082824416459 ]
  - [   0.0058224834501743,  0.0374344065785408, -0.0029388740658760 ]
  - [   0.0057322168722749,  0.0373484380543232, -0.0042390180751681 ]
  - [  -0.0075048096477985, -0.0371222980320454, -0.0000682182726450 ]
  - [  -0.0054821437224746, -0.0373856164515018,  0.0001600793912075 ]
  - [  -0.0058631654828787, -0.0374192781746387,  0.0000219517969526 ]
  - [  -0.0058635557070374, -0.0374598950147629, -0.0001530093140900 ]
  - [  -0.0408382304012775,  0.0058967955410480, -0.0001541868550703 ]
  - [  -0.0377812236547470,  0.0063427835702896, -0.0007886556559242 ]
  - [  -0.0374335683882236,  0.0058596432209015,  0.0002422358375043 ]
  - [  -0.0375593267381191,  0.0057690907269716,  0.0001467795227654 ]
  - [   0.0366949886083603, -0.0059109320864081, -0.0001504233805463 ]
  - [   0.0371538698673248, -0.0066274097189307, -0.0005609541549347 ]
  - [   0.0374373868107796, -0.0058611026033759,  0.0002413060865365 ]
  - [   0.0375250875949860, -0.0054962057620287, -0.0000858887942741 ]
  - [  -0.0052912738174200,  0.0368784181773663, -0.0000294860801660 ]
  - [  -0.0060917083173990,  0.0374257601797581,  0.0000389113556594 ]
  - [  -0.0058493325486779,  0.0374224148690701,  0.0000303184497170 ]
  - [  -0.0059651546180248,  0.0373926758766174,  0.0001464916422265 ]
  - [   0.0047728493809700, -0.0367301516234875, -0.0000438338611275 ]
  - [   0.0060046231374145, -0.0374673306941986,  0.0000340611441061 ]
  - [   0.0058468440547585, -0.0374281518161297,  0.0000012156669982 ]
  - [   0.0060756523162127, -0.0374756157398224, -0.0000258191721514 ]
  - [   0.0373854525387287,  0.0067695006728172,  0.0000240742811002 ]
  - [   0.0373975783586502,  0.0057893004268408, -0.0000364435836673 ]
  - [   0.0374113619327545,  0.0058689564466476, -0.0000116691808216 ]
  - [   0.0375752337276936,  0.0056488569825888,  0.0000815617095213 ]
  - [  -0.0382832847535610, -0.0075853345915675, -0.0002254376886413 ]
  - [  -0.0372624918818474, -0.0056749014183879, -0.0000911142560653 ]
  - [  -0.0374262258410454, -0.0058825500309467,  0.0001979242078960 ]
  - [  -0.0377515703439713, -0.0057530086487532, -0.0001597752561793 ]
  - [  -0.0047419522888958,  0.0008111970964819, -0.0000048456713557 ]
  - [   0.0000887038768269, -0.0001257276162505,  0.0000317506492138 ]
  - [  -0.0000102428020909,  0.0000061637838371,  0.0002813842147589 ]
  - [  -0.0006525146891363,  0.0000494695850648, -0.0008141407743096 ]
  - [   0.0000089754612418, -0.0002381349040661, -0.0000545387156308 ]
  - [   0.0001003347861115, -0.0002336903125979,  0.0001429702970199 ]
  - [   0.0000064449995989, -0.0000016299018171,  0.0000118112075143 ]
  - [  -0.0001183179410873,  0.0001611750340089,  0.0000096230069175 ]
- atom:   17
  displacement:
    [  -0.0000000001148090,  0.0100000000000000,  0.0000000000000000 ]
  forces:
  - [   0.0127659095451236,  0.0164148807525635, -0.0014302693307400 ]
  - [   0.0127661377191544,  0.0164146590977907,  0.0014294141437858 ]
  - [   0.0139206647872925,  0.0139614446088672,  0.0000632575247437 ]
  - [   0.0139207039028406,  0.0139613896608353, -0.0000627273693681 ]
  - [  -0.0136665794998407, -0.0140878735110164, -0.0000182744115591 ]
  - [  -0.0136667229235172, -0.0140879433602095,  0.0000177333131433 ]
  - [  -0.0139767732471228, -0.0139745948836207,  0.0000381963327527 ]