# Thermal properties / unit cell (natom)

unit:
  temperature:   K
  free_energy:   kJ/mol
  entropy:       J/K/mol
  heat_capacity: J/K/mol

natom: 20   
cutoff_frequency: 0.00000
num_modes: 163800
num_integrated_modes: 163799

zero_point_energy:      72.3467774

thermal_properties:
- temperature:         0.0000000
  free_energy:        72.3467774
  entropy:             0.0000000
  heat_capacity:       0.0000000
  energy:             72.3467774

- temperature:        10.0000000
  free_energy:        72.3422282
  entropy:             1.7025657
  heat_capacity:       5.5145577
  energy:             72.3592539

- temperature:        20.0000000
  free_energy:        72.2739160
  entropy:            14.2892846
  heat_capacity:      38.2836019
  energy:             72.5597017

- temperature:        30.0000000
  free_energy:        72.0210710
  entropy:            37.3720664
  heat_capacity:      77.3279399
  energy:             73.1422329

- temperature:        40.0000000
  free_energy:        71.5145755
  entropy:            64.1874802
  heat_capacity:     109.5935305
  energy:             74.0820747

- temperature:        50.0000000
  free_energy:        70.7352204
  entropy:            91.7052282
  heat_capacity:     137.7330693
  energy:             75.3204818

- temperature:        60.0000000
  free_energy:        69.6805412
  entropy:           119.2188240
  heat_capacity:     164.8698966
  energy:             76.8336707

- temperature:        70.0000000
  free_energy:        68.3510657
  entropy:           146.6659778
  heat_capacity:     191.9080696
  energy:             78.6176842

- temperature:        80.0000000
  free_energy:        66.7474692
  entropy:           174.0364112
  heat_capacity:     218.5030216
  energy:             80.6703821

- temperature:        90.0000000
  free_energy:        64.8708286
  entropy:           201.2580744
  heat_capacity:     243.9963146
  energy:             82.9840553

- temperature:       100.0000000
  free_energy:        62.7231855
  entropy:           228.2161943
  heat_capacity:     267.8466371
  energy:             85.5448049

- temperature:       110.0000000
  free_energy:        60.3077951
  entropy:           254.7877159
  heat_capacity:     289.7405886
  energy:             88.3344439

- temperature:       120.0000000
  free_energy:        57.6290862
  entropy:           280.8635556
  heat_capacity:     309.5681002
  energy:             91.3327128

- temperature:       130.0000000
  free_energy:        54.6924645
  entropy:           306.3580946
  heat_capacity:     327.3616759
  energy:             94.5190168

- temperature:       140.0000000
  free_energy:        51.5040668
  entropy:           331.2106332
  heat_capacity:     343.2393558
  energy:             97.8735554

- temperature:       150.0000000
  free_energy:        48.0705215
  entropy:           355.3828806
  heat_capacity:     357.3624174
  energy:            101.3779536

- temperature:       160.0000000
  free_energy:        44.3987445
  entropy:           378.8549990
  heat_capacity:     369.9075869
  energy:            105.0155444

- temperature:       170.0000000
  free_energy:        40.4957747
  entropy:           401.6215125
  heat_capacity:     381.0503462
  energy:            108.7714319

- temperature:       180.0000000
  free_energy:        36.3686497
  entropy:           423.6876609
  heat_capacity:     390.9558059
  energy:            112.6324286

- temperature:       190.0000000
  free_energy:        32.0243135
  entropy:           445.0663860
  heat_capacity:     399.7743840
  energy:            116.5869269

- temperature:       200.0000000
  free_energy:        27.4695529
  entropy:           465.7759495
  heat_capacity:     407.6403677
  energy:            120.6247428

- temperature:       210.0000000
  free_energy:        22.7109528
  entropy:           485.8381061
  heat_capacity:     414.6721070
  energy:            124.7369551

- temperature:       220.0000000
  free_energy:        17.7548693
  entropy:           505.2767325
  heat_capacity:     420.9730583
  energy:            128.9157504

- temperature:       230.0000000
  free_energy:        12.6074133
  entropy:           524.1168184
  heat_capacity:     426.6332085
  energy:            133.1542816

- temperature:       240.0000000
  free_energy:         7.2744435
  entropy:           542.3837353
  heat_capacity:     431.7306102
  energy:            137.4465399

- temperature:       250.0000000
  free_energy:         1.7615650
  entropy:           560.1027173
  heat_capacity:     436.3328792
  energy:            141.7872443

- temperature:       260.0000000
  free_energy:        -3.9258670
  entropy:           577.2985005
  heat_capacity:     440.4985808
  energy:            146.1717432

- temperature:       270.0000000
  free_energy:        -9.7827411
  entropy:           593.9950805
  heat_capacity:     444.2784722
  energy:            150.5959306

- temperature:       280.0000000
  free_energy:       -15.8041817
  entropy:           610.2155561
  heat_capacity:     447.7165961
  energy:            155.0561740

- temperature:       290.0000000
  free_energy:       -21.9855390
  entropy:           625.9820362
  heat_capacity:     450.8512293
  energy:            159.5492515

- temperature:       300.0000000
  free_energy:       -28.3223794
  entropy:           641.3155933
  heat_capacity:     453.7156999
  energy:            164.0722985

- temperature:       310.0000000
  free_energy:       -34.8104747
  entropy:           656.2362482
  heat_capacity:     456.3390873
  energy:            168.6227623

- temperature:       320.0000000
  free_energy:       -41.4457914
  entropy:           670.7629788
  heat_capacity:     458.7468194
  energy:            173.1983618

- temperature:       330.0000000
  free_energy:       -48.2244811
  entropy:           684.9137440
  heat_capacity:     460.9611824
  energy:            177.7970544

- temperature:       340.0000000
  free_energy:       -55.1428698
  entropy:           698.7055181
  heat_capacity:     463.0017544
  energy:            182.4170064

- temperature:       350.0000000
  free_energy:       -62.1974484
  entropy:           712.1543322
  heat_capacity:     464.8857747
  energy:            187.0565679

- temperature:       360.0000000
  free_energy:       -69.3848638
  entropy:           725.2753187
  heat_capacity:     466.6284596
  energy:            191.7142510

- temperature:       370.0000000
  free_energy:       -76.7019097
  entropy:           738.0827586
  heat_capacity:     468.2432702
  energy:            196.3887110

- temperature:       380.0000000
  free_energy:       -84.1455188
  entropy:           750.5901285
  heat_capacity:     469.7421434
  energy:            201.0787301

- temperature:       390.0000000
  free_energy:       -91.7127545
  entropy:           762.8101472
  heat_capacity:     471.1356876
  energy:            205.7832029

- temperature:       400.0000000
  free_energy:       -99.4008040
  entropy:           774.7548208
  heat_capacity:     472.4333523
  energy:            210.5011243

- temperature:       410.0000000
  free_energy:      -107.2069710
  entropy:           786.4354866
  heat_capacity:     473.6435724
  energy:            215.2315785

- temperature:       420.0000000
  free_energy:      -115.1286695
  entropy:           797.8628547
  heat_capacity:     474.7738935
  energy:            219.9737295

- temperature:       430.0000000
  free_energy:      -123.1634175
  entropy:           809.0470471
  heat_capacity:     475.8310799
  energy:            224.7268127

- temperature:       440.0000000
  free_energy:      -131.3088318
  entropy:           819.9976351
  heat_capacity:     476.8212072
  energy:            229.4901277

- temperature:       450.0000000
  free_energy:      -139.5626218
  entropy:           830.7236742
  heat_capacity:     477.7497436
  energy:            234.2630316

- temperature:       460.0000000
  free_energy:      -147.9225854
  entropy:           841.2337372
  heat_capacity:     478.6216198
  energy:            239.0449337

- temperature:       470.0000000
  free_energy:      -156.3866037
  entropy:           851.5359442
  heat_capacity:     479.4412901
  energy:            243.8352900

- temperature:       480.0000000
  free_energy:      -164.9526371
  entropy:           861.6379919
  heat_capacity:     480.2127861
  energy:            248.6335990

- temperature:       490.0000000
  free_energy:      -173.6187207
  entropy:           871.5471799
  heat_capacity:     480.9397626
  energy:            253.4393974

- temperature:       500.0000000
  free_energy:      -182.3829610
  entropy:           881.2704358
  heat_capacity:     481.6255389
  energy:            258.2522569

- temperature:       510.0000000
  free_energy:      -191.2435317
  entropy:           890.8143384
  heat_capacity:     482.2731345
  energy:            263.0717809

- temperature:       520.0000000
  free_energy:      -200.1986708
  entropy:           900.1851391
  heat_capacity:     482.8853005
  energy:            267.8976016

- temperature:       530.0000000
  free_energy:      -209.2466773
  entropy:           909.3887821
  heat_capacity:     483.4645474
  energy:            272.7293772

- temperature:       540.0000000
  free_energy:      -218.3859081
  entropy:           918.4309232
  heat_capacity:     484.0131696
  energy:            277.5667904

- temperature:       550.0000000
  free_energy:      -227.6147754
  entropy:           927.3169472
  heat_capacity:     484.5332673
  energy:            282.4095456

- temperature:       560.0000000
  free_energy:      -236.9317438
  entropy:           936.0519838
  heat_capacity:     485.0267654
  energy:            287.2573671

- temperature:       570.0000000
  free_energy:      -246.3353281
  entropy:           944.6409232
  heat_capacity:     485.4954307
  energy:            292.1099981

- temperature:       580.0000000
  free_energy:      -255.8240908
  entropy:           953.0884297
  heat_capacity:     485.9408871
  energy:            296.9671984

- temperature:       590.0000000
  free_energy:      -265.3966401
  entropy:           961.3989552
  heat_capacity:     486.3646290
  energy:            301.8287435

- temperature:       600.0000000
  free_energy:      -275.0516275
  entropy:           969.5767512
  heat_capacity:     486.7680336
  energy:            306.6944232

- temperature:       610.0000000
  free_energy:      -284.7877463
  entropy:           977.6258801
  heat_capacity:     487.1523715
  energy:            311.5640406

- temperature:       620.0000000
  free_energy:      -294.6037292
  entropy:           985.5502261
  heat_capacity:     487.5188164
  energy:            316.4374110

- temperature:       630.0000000
  free_energy:      -304.4983472
  entropy:           993.3535050
  heat_capacity:     487.8684536
  energy:            321.3143609

- temperature:       640.0000000
  free_energy:      -314.4704076
  entropy:          1001.0392735
  heat_capacity:     488.2022883
  energy:            326.1947274

- temperature:       650.0000000
  free_energy:      -324.5187524
  entropy:          1008.6109377
  heat_capacity:     488.5212518
  energy:            331.0783571

- temperature:       660.0000000
  free_energy:      -334.6422569
  entropy:          1016.0717616
  heat_capacity:     488.8262086
  energy:            335.9651058

- temperature:       670.0000000
  free_energy:      -344.8398286
  entropy:          1023.4248744
  heat_capacity:     489.1179616
  energy:            340.8548373

- temperature:       680.0000000
  free_energy:      -355.1104054
  entropy:          1030.6732777
  heat_capacity:     489.3972573
  energy:            345.7474235

- temperature:       690.0000000
  free_energy:      -365.4529547
  entropy:          1037.8198521
  heat_capacity:     489.6647906
  energy:            350.6427432

- temperature:       700.0000000
  free_energy:      -375.8664722
  entropy:          1044.8673635
  heat_capacity:     489.9212088
  energy:            355.5406822

- temperature:       710.0000000
  free_energy:      -386.3499807
  entropy:          1051.8184691
  heat_capacity:     490.1671158
  energy:            360.4411324

- temperature:       720.0000000
  free_energy:      -396.9025288
  entropy:          1058.6757225
  heat_capacity:     490.4030750
  energy:            365.3439914

- temperature:       730.0000000
  free_energy:      -407.5231905
  entropy:          1065.4415794
  heat_capacity:     490.6296128
  energy:            370.2491625

- temperature:       740.0000000
  free_energy:      -418.2110636
  entropy:          1072.1184020
  heat_capacity:     490.8472216
  energy:            375.1565539

- temperature:       750.0000000
  free_energy:      -428.9652693
  entropy:          1078.7084640
  heat_capacity:     491.0563622
  energy:            380.0660787

- temperature:       760.0000000
  free_energy:      -439.7849510
  entropy:          1085.2139544
  heat_capacity:     491.2574659
  energy:            384.9776544

- temperature:       770.0000000
  free_energy:      -450.6692735
  entropy:          1091.6369819
  heat_capacity:     491.4509375
  energy:            389.8912026

- temperature:       780.0000000
  free_energy:      -461.6174225
  entropy:          1097.9795788
  heat_capacity:     491.6371563
  energy:            394.8066489

- temperature:       790.0000000
  free_energy:      -472.6286035
  entropy:          1104.2437041
  heat_capacity:     491.8164788
  energy:            399.7239227

- temperature:       800.0000000
  free_energy:      -483.7020413
  entropy:          1110.4312475
  heat_capacity:     491.9892398
  energy:            404.6429566

- temperature:       810.0000000
  free_energy:      -494.8369793
  entropy:          1116.5440321
  heat_capacity:     492.1557540
  energy:            409.5636867

- temperature:       820.0000000
  free_energy:      -506.0326787
  entropy:          1122.5838177
  heat_capacity:     492.3163178
  energy:            414.4860519

- temperature:       830.0000000
  free_energy:      -517.2884180
  entropy:          1128.5523038
  heat_capacity:     492.4712102
  energy:            419.4099941

- temperature:       840.0000000
  free_energy:      -528.6034926
  entropy:          1134.4511317
  heat_capacity:     492.6206940
  energy:            424.3354581

- temperature:       850.0000000
  free_energy:      -539.9772137
  entropy:          1140.2818877
  heat_capacity:     492.7650171
  energy:            429.2623908

- temperature:       860.0000000
  free_energy:      -551.4089085
  entropy:          1146.0461052
  heat_capacity:     492.9044134
  energy:            434.1907420

- temperature:       870.0000000
  free_energy:      -562.8979190
  entropy:          1151.7452671
  heat_capacity:     493.0391039
  energy:            439.1204634

- temperature:       880.0000000
  free_energy:      -574.4436018
  entropy:          1157.3808078
  heat_capacity:     493.1692972
  energy:            444.0515091

- temperature:       890.0000000
  free_energy:      -586.0453277
  entropy:          1162.9541154
  heat_capacity:     493.2951904
  energy:            448.9838350

- temperature:       900.0000000
  free_energy:      -597.7024811
  entropy:          1168.4665337
  heat_capacity:     493.4169704
  energy:            453.9173992

- temperature:       910.0000000
  free_energy:      -609.4144598
  entropy:          1173.9193638
  heat_capacity:     493.5348136
  energy:            458.8521613

- temperature:       920.0000000
  free_energy:      -621.1806740
  entropy:          1179.3138662
  heat_capacity:     493.6488874
  energy:            463.7880829

- temperature:       930.0000000
  free_energy:      -633.0005467
  entropy:          1184.6512621
  heat_capacity:     493.7593504
  energy:            468.7251270

- temperature:       940.0000000
  free_energy:      -644.8735128
  entropy:          1189.9327353
  heat_capacity:     493.8663527
  energy:            473.6632583

- temperature:       950.0000000
  free_energy:      -656.7990189
  entropy:          1195.1594335
  heat_capacity:     493.9700370
  energy:            478.6024430

- temperature:       960.0000000
  free_energy:      -668.7765226
  entropy:          1200.3324699
  heat_capacity:     494.0705387
  energy:            483.5426485

- temperature:       970.0000000
  free_energy:      -680.8054930
  entropy:          1205.4529243
  heat_capacity:     494.1679863
  energy:            488.4838436

- temperature:       980.0000000
  free_energy:      -692.8854093
  entropy:          1210.5218447
  heat_capacity:     494.2625018
  energy:            493.4259984

- temperature:       990.0000000
  free_energy:      -705.0157615
  entropy:          1215.5402482
  heat_capacity:     494.3542015
  energy:            498.3690842

- temperature:      1000.0000000
  free_energy:      -717.1960492
  entropy:          1220.5091227
  heat_capacity:     494.4431958
  energy:            503.3130734
