# Thermal properties / unit cell (natom)

unit:
  temperature:   K
  free_energy:   kJ/mol
  entropy:       J/K/mol
  heat_capacity: J/K/mol

natom: 11   
cutoff_frequency: 0.00000
num_modes: 154440
num_integrated_modes: 152266

zero_point_energy:      28.3334505

thermal_properties:
- temperature:         0.0000000
  free_energy:        28.3334505
  entropy:             0.0000000
  heat_capacity:       0.0000000
  energy:             28.3334505

- temperature:        10.0000000
  free_energy:        28.3212264
  entropy:             4.0456592
  heat_capacity:       9.5514722
  energy:             28.3616830

- temperature:        20.0000000
  free_energy:        28.2125491
  entropy:            19.5096700
  heat_capacity:      40.6618652
  energy:             28.6027425

- temperature:        30.0000000
  free_energy:        27.9069217
  entropy:            42.2344512
  heat_capacity:      72.3664465
  energy:             29.1739553

- temperature:        40.0000000
  free_energy:        27.3631561
  entropy:            66.5078326
  heat_capacity:      96.4144362
  energy:             30.0234694

- temperature:        50.0000000
  free_energy:        26.5790761
  entropy:            90.1417332
  heat_capacity:     115.5881928
  energy:             31.0861627

- temperature:        60.0000000
  free_energy:        25.5638400
  entropy:           112.7313533
  heat_capacity:     132.4460679
  energy:             32.3277212

- temperature:        70.0000000
  free_energy:        24.3277826
  entropy:           134.3209419
  heat_capacity:     147.8299745
  energy:             33.7302485

- temperature:        80.0000000
  free_energy:        22.8804869
  entropy:           154.9895521
  heat_capacity:     161.8100750
  energy:             35.2796511

- temperature:        90.0000000
  free_energy:        21.2309007
  entropy:           174.7847558
  heat_capacity:     174.3165997
  energy:             36.9615288

- temperature:       100.0000000
  free_energy:        19.3876102
  entropy:           193.7343388
  heat_capacity:     185.3443067
  energy:             38.7610441

- temperature:       110.0000000
  free_energy:        17.3589553
  entropy:           211.8616565
  heat_capacity:     194.9704912
  energy:             40.6637375

- temperature:       120.0000000
  free_energy:        15.1530303
  entropy:           229.1931614
  heat_capacity:     203.3240589
  energy:             42.6562097

- temperature:       130.0000000
  free_energy:        12.7776405
  entropy:           245.7602631
  heat_capacity:     210.5544062
  energy:             44.7264747

- temperature:       140.0000000
  free_energy:        10.2402547
  entropy:           261.5985588
  heat_capacity:     216.8108955
  energy:             46.8640529

- temperature:       150.0000000
  free_energy:         7.5479715
  entropy:           276.7462534
  heat_capacity:     222.2319006
  energy:             49.0599095

- temperature:       160.0000000
  free_energy:         4.7075008
  entropy:           291.2426021
  heat_capacity:     226.9401939
  energy:             51.3063171

- temperature:       170.0000000
  free_energy:         1.7251602
  entropy:           305.1266654
  heat_capacity:     231.0419670
  energy:             53.5966934

- temperature:       180.0000000
  free_energy:        -1.3931184
  entropy:           318.4364236
  heat_capacity:     234.6276962
  energy:             55.9254379

- temperature:       190.0000000
  free_energy:        -4.6417752
  entropy:           331.2082023
  heat_capacity:     237.7738090
  energy:             58.2877832

- temperature:       200.0000000
  free_energy:        -8.0156039
  entropy:           343.4763395
  heat_capacity:     240.5445787
  energy:             60.6796640

- temperature:       210.0000000
  free_energy:       -11.5097307
  entropy:           355.2730249
  heat_capacity:     242.9939658
  energy:             63.0976045

- temperature:       220.0000000
  free_energy:       -15.1195931
  entropy:           366.6282591
  heat_capacity:     245.1672779
  energy:             65.5386239

- temperature:       230.0000000
  free_energy:       -18.8409175
  entropy:           377.5698909
  heat_capacity:     247.1026093
  energy:             68.0001575

- temperature:       240.0000000
  free_energy:       -22.6696984
  entropy:           388.1237032
  heat_capacity:     248.8320592
  energy:             70.4799904

- temperature:       250.0000000
  free_energy:       -26.6021784
  entropy:           398.3135266
  heat_capacity:     250.3827494
  energy:             72.9762032

- temperature:       260.0000000
  free_energy:       -30.6348292
  entropy:           408.1613680
  heat_capacity:     251.7776669
  energy:             75.4871265

- temperature:       270.0000000
  free_energy:       -34.7643337
  entropy:           417.6875427
  heat_capacity:     253.0363585
  energy:             78.0113028

- temperature:       280.0000000
  free_energy:       -38.9875705
  entropy:           426.9108069
  heat_capacity:     254.1755031
  energy:             80.5474554

- temperature:       290.0000000
  free_energy:       -43.3015981
  entropy:           435.8484837
  heat_capacity:     255.2093816
  energy:             83.0944622

- temperature:       300.0000000
  free_energy:       -47.7036417
  entropy:           444.5165833
  heat_capacity:     256.1502646
  energy:             85.6513333

- temperature:       310.0000000
  free_energy:       -52.1910806
  entropy:           452.9299147
  heat_capacity:     257.0087315
  energy:             88.2171929

- temperature:       320.0000000
  free_energy:       -56.7614366
  entropy:           461.1021888
  heat_capacity:     257.7939351
  energy:             90.7912638

- temperature:       330.0000000
  free_energy:       -61.4123633
  entropy:           469.0461132
  heat_capacity:     258.5138195
  energy:             93.3728540

- temperature:       340.0000000
  free_energy:       -66.1416371
  entropy:           476.7734786
  heat_capacity:     259.1753027
  energy:             95.9613456

- temperature:       350.0000000
  free_energy:       -70.9471476
  entropy:           484.2952379
  heat_capacity:     259.7844281
  energy:             98.5561856

- temperature:       360.0000000
  free_energy:       -75.8268905
  entropy:           491.6215775
  heat_capacity:     260.3464906
  energy:            101.1568774

- temperature:       370.0000000
  free_energy:       -80.7789595
  entropy:           498.7619827
  heat_capacity:     260.8661437
  energy:            103.7629741

- temperature:       380.0000000
  free_energy:       -85.8015399
  entropy:           505.7252962
  heat_capacity:     261.3474884
  energy:            106.3740726

- temperature:       390.0000000
  free_energy:       -90.8929027
  entropy:           512.5197718
  heat_capacity:     261.7941492
  energy:            108.9898083

- temperature:       400.0000000
  free_energy:       -96.0513983
  entropy:           519.1531227
  heat_capacity:     262.2093376
  energy:            111.6098507

- temperature:       410.0000000
  free_energy:      -101.2754521
  entropy:           525.6325655
  heat_capacity:     262.5959067
  energy:            114.2338997

- temperature:       420.0000000
  free_energy:      -106.5635592
  entropy:           531.9648600
  heat_capacity:     262.9563976
  energy:            116.8616820

- temperature:       430.0000000
  free_energy:      -111.9142800
  entropy:           538.1563450
  heat_capacity:     263.2930786
  energy:            119.4929483

- temperature:       440.0000000
  free_energy:      -117.3262366
  entropy:           544.2129718
  heat_capacity:     263.6079795
  energy:            122.1274710

- temperature:       450.0000000
  free_energy:      -122.7981086
  entropy:           550.1403334
  heat_capacity:     263.9029206
  energy:            124.7650414

- temperature:       460.0000000
  free_energy:      -128.3286300
  entropy:           555.9436920
  heat_capacity:     264.1795378
  energy:            127.4054683

- temperature:       470.0000000
  free_energy:      -133.9165857
  entropy:           561.6280036
  heat_capacity:     264.4393044
  energy:            130.0485760

- temperature:       480.0000000
  free_energy:      -139.5608088
  entropy:           567.1979407
  heat_capacity:     264.6835499
  energy:            132.6942027

- temperature:       490.0000000
  free_energy:      -145.2601780
  entropy:           572.6579127
  heat_capacity:     264.9134764
  energy:            135.3421993

- temperature:       500.0000000
  free_energy:      -151.0136144
  entropy:           578.0120851
  heat_capacity:     265.1301727
  energy:            137.9924281

- temperature:       510.0000000
  free_energy:      -156.8200801
  entropy:           583.2643963
  heat_capacity:     265.3346271
  energy:            140.6447619

- temperature:       520.0000000
  free_energy:      -162.6785753
  entropy:           588.4185733
  heat_capacity:     265.5277377
  energy:            143.2990829

- temperature:       530.0000000
  free_energy:      -168.5881363
  entropy:           593.4781470
  heat_capacity:     265.7103226
  energy:            145.9552816

- temperature:       540.0000000
  free_energy:      -174.5478340
  entropy:           598.4464644
  heat_capacity:     265.8831279
  energy:            148.6132567

- temperature:       550.0000000
  free_energy:      -180.5567720
  entropy:           603.3267015
  heat_capacity:     266.0468352
  energy:            151.2729139

- temperature:       560.0000000
  free_energy:      -186.6140845
  entropy:           608.1218745
  heat_capacity:     266.2020680
  energy:            153.9341652

- temperature:       570.0000000
  free_energy:      -192.7189355
  entropy:           612.8348498
  heat_capacity:     266.3493979
  energy:            156.5969289

- temperature:       580.0000000
  free_energy:      -198.8705166
  entropy:           617.4683538
  heat_capacity:     266.4893491
  energy:            159.2611286

- temperature:       590.0000000
  free_energy:      -205.0680463
  entropy:           622.0249817
  heat_capacity:     266.6224035
  energy:            161.9266929

- temperature:       600.0000000
  free_energy:      -211.3107683
  entropy:           626.5072057
  heat_capacity:     266.7490045
  energy:            164.5935551

- temperature:       610.0000000
  free_energy:      -217.5979503
  entropy:           630.9173822
  heat_capacity:     266.8695604
  energy:            167.2616528

- temperature:       620.0000000
  free_energy:      -223.9288833
  entropy:           635.2577592
  heat_capacity:     266.9844483
  energy:            169.9309274

- temperature:       630.0000000
  free_energy:      -230.3028800
  entropy:           639.5304826
  heat_capacity:     267.0940161
  energy:            172.6013241

- temperature:       640.0000000
  free_energy:      -236.7192743
  entropy:           643.7376021
  heat_capacity:     267.1985857
  energy:            175.2727911

- temperature:       650.0000000
  free_energy:      -243.1774199
  entropy:           647.8810769
  heat_capacity:     267.2984552
  energy:            177.9452801

- temperature:       660.0000000
  free_energy:      -249.6766899
  entropy:           651.9627809
  heat_capacity:     267.3939009
  energy:            180.6187455

- temperature:       670.0000000
  free_energy:      -256.2164756
  entropy:           655.9845072
  heat_capacity:     267.4851790
  energy:            183.2931442

- temperature:       680.0000000
  free_energy:      -262.7961858
  entropy:           659.9479732
  heat_capacity:     267.5725277
  energy:            185.9684360

- temperature:       690.0000000
  free_energy:      -269.4152463
  entropy:           663.8548243
  heat_capacity:     267.6561683
  energy:            188.6445824

- temperature:       700.0000000
  free_energy:      -276.0730989
  entropy:           667.7066379
  heat_capacity:     267.7363071
  energy:            191.3215476

- temperature:       710.0000000
  free_energy:      -282.7692007
  entropy:           671.5049271
  heat_capacity:     267.8131360
  energy:            193.9992975

- temperature:       720.0000000
  free_energy:      -289.5030239
  entropy:           675.2511442
  heat_capacity:     267.8868341
  energy:            196.6777999

- temperature:       730.0000000
  free_energy:      -296.2740547
  entropy:           678.9466836
  heat_capacity:     267.9575687
  energy:            199.3570244

- temperature:       740.0000000
  free_energy:      -303.0817931
  entropy:           682.5928852
  heat_capacity:     268.0254960
  energy:            202.0369420

- temperature:       750.0000000
  free_energy:      -309.9257522
  entropy:           686.1910368
  heat_capacity:     268.0907620
  energy:            204.7175254

- temperature:       760.0000000
  free_energy:      -316.8054578
  entropy:           689.7423770
  heat_capacity:     268.1535035
  energy:            207.3987488

- temperature:       770.0000000
  free_energy:      -323.7204477
  entropy:           693.2480976
  heat_capacity:     268.2138486
  energy:            210.0805875

- temperature:       780.0000000
  free_energy:      -330.6702715
  entropy:           696.7093457
  heat_capacity:     268.2719175
  energy:            212.7630182

- temperature:       790.0000000
  free_energy:      -337.6544900
  entropy:           700.1272262
  heat_capacity:     268.3278228
  energy:            215.4460186

- temperature:       800.0000000
  free_energy:      -344.6726750
  entropy:           703.5028035
  heat_capacity:     268.3816703
  energy:            218.1295678

- temperature:       810.0000000
  free_energy:      -351.7244085
  entropy:           706.8371037
  heat_capacity:     268.4335596
  energy:            220.8136455

- temperature:       820.0000000
  free_energy:      -358.8092828
  entropy:           710.1311165
  heat_capacity:     268.4835842
  energy:            223.4982327

- temperature:       830.0000000
  free_energy:      -365.9268998
  entropy:           713.3857964
  heat_capacity:     268.5318320
  energy:            226.1833113

- temperature:       840.0000000
  free_energy:      -373.0768707
  entropy:           716.6020648
  heat_capacity:     268.5783861
  energy:            228.8688637

- temperature:       850.0000000
  free_energy:      -380.2588160
  entropy:           719.7808113
  heat_capacity:     268.6233246
  energy:            231.5548736

- temperature:       860.0000000
  free_energy:      -387.4723647
  entropy:           722.9228951
  heat_capacity:     268.6667211
  energy:            234.2413251

- temperature:       870.0000000
  free_energy:      -394.7171544
  entropy:           726.0291466
  heat_capacity:     268.7086453
  energy:            236.9282031

- temperature:       880.0000000
  free_energy:      -401.9928309
  entropy:           729.1003684
  heat_capacity:     268.7491628
  energy:            239.6154933

- temperature:       890.0000000
  free_energy:      -409.2990476
  entropy:           732.1373365
  heat_capacity:     268.7883357
  energy:            242.3031819

- temperature:       900.0000000
  free_energy:      -416.6354659
  entropy:           735.1408019
  heat_capacity:     268.8262228
  energy:            244.9912557

- temperature:       910.0000000
  free_energy:      -424.0017544
  entropy:           738.1114908
  heat_capacity:     268.8628794
  energy:            247.6797022

- temperature:       920.0000000
  free_energy:      -431.3975888
  entropy:           741.0501068
  heat_capacity:     268.8983584
  energy:            250.3685094

- temperature:       930.0000000
  free_energy:      -438.8226519
  entropy:           743.9573307
  heat_capacity:     268.9327093
  energy:            253.0576657

- temperature:       940.0000000
  free_energy:      -446.2766330
  entropy:           746.8338223
  heat_capacity:     268.9659795
  energy:            255.7471600

- temperature:       950.0000000
  free_energy:      -453.7592281
  entropy:           749.6802209
  heat_capacity:     268.9982137
  energy:            258.4369818

- temperature:       960.0000000
  free_energy:      -461.2701392
  entropy:           752.4971460
  heat_capacity:     269.0294544
  energy:            261.1271209

- temperature:       970.0000000
  free_energy:      -468.8090747
  entropy:           755.2851984
  heat_capacity:     269.0597419
  energy:            263.8175677

- temperature:       980.0000000
  free_energy:      -476.3757489
  entropy:           758.0449608
  heat_capacity:     269.0891145
  energy:            266.5083127

- temperature:       990.0000000
  free_energy:      -483.9698815
  entropy:           760.7769986
  heat_capacity:     269.1176087
  energy:            269.1993471

- temperature:      1000.0000000
  free_energy:      -491.5911983
  entropy:           763.4818603
  heat_capacity:     269.1452590
  energy:            271.8906621
