phonopy:
  version: "2.37.1"
  frequency_unit_conversion_factor: 15.633302
  symmetry_tolerance: 1.00000e-05

space_group:
  type: "P1"
  number: 1
  Hall_symbol: "P 1"

primitive_matrix:
- [  0.000000000000000,  1.000000000000000, -1.000000000000000 ]
- [ -1.000000000000000,  0.000000000000000,  0.000000000000000 ]
- [  0.000000000000000,  0.000000000000000,  1.000000000000000 ]

supercell_matrix:
- [   3,   0,   0 ]
- [   0,   3,   0 ]
- [   0,   0,   2 ]

primitive_cell:
  lattice:
  - [    -2.265083633768175,    -3.924040092830680,     0.000000000000000 ] # a
  - [     4.531026425819694,     0.000000000000000,     0.000000000000000 ] # b
  - [    -2.258224332292184,     1.310718801407805,     7.385564212500557 ] # c
  points:
  - symbol: Li # 1
    coordinates: [  0.997985234944359,  0.829065465973655,  0.701667067763612 ]
    mass: 6.940000
  - symbol: Li # 2
    coordinates: [  0.500140240882740,  0.828703222291787,  0.202083308893499 ]
    mass: 6.940000
  - symbol: Ga # 3
    coordinates: [  0.372760854148921,  0.576888935602899,  0.824338644082715 ]
    mass: 69.723000
  - symbol: Ga # 4
    coordinates: [  0.873959001723873,  0.576825615899909,  0.324943242285506 ]
    mass: 69.723000
  - symbol: Sn # 5
    coordinates: [  0.248823280091188,  0.326394644727681,  0.449514376659708 ]
    mass: 118.710000
  - symbol: Sn # 6
    coordinates: [  0.748292626182328,  0.326841396195629,  0.949791921692292 ]
    mass: 118.710000
  reciprocal_lattice: # without 2pi
  - [     0.000000000000000,    -0.254839394181274,     0.045226441160367 ] # a*
  - [     0.220700544649570,    -0.127395536188023,     0.090090756160332 ] # b*
  - [     0.000000000000000,    -0.000000000000000,     0.135399269605893 ] # c*

unit_cell:
  lattice:
  - [     4.531026425819694,     0.000000000000000,     0.000000000000000 ] # a
  - [     2.265083633768175,     3.924040092830680,     0.000000000000000 ] # b
  - [     2.272802093527510,     1.310718801407805,     7.385564212500557 ] # c
  points:
  - symbol: Li # 1
    coordinates: [  0.127398398210043,  0.002014765055641,  0.701667067763612 ]
    mass: 6.940000
    reduced_to: 1
  - symbol: Li # 2
    coordinates: [  0.626619913398288,  0.499859759117260,  0.202083308893499 ]
    mass: 6.940000
    reduced_to: 2
  - symbol: Ga # 3
    coordinates: [  0.752550291520185,  0.627239145851079,  0.824338644082715 ]
    mass: 69.723000
    reduced_to: 3
  - symbol: Ga # 4
    coordinates: [  0.251882373614402,  0.126040998276127,  0.324943242285506 ]
    mass: 69.723000
    reduced_to: 4
  - symbol: Sn # 5
    coordinates: [  0.876880268067973,  0.751176719908812,  0.449514376659708 ]
    mass: 118.710000
    reduced_to: 5
  - symbol: Sn # 6
    coordinates: [  0.377049474503338,  0.251707373817672,  0.949791921692292 ]
    mass: 118.710000
    reduced_to: 6

supercell:
  lattice:
  - [    13.593079277459083,     0.000000000000000,     0.000000000000000 ] # a
  - [     6.795250901304524,    11.772120278492041,     0.000000000000000 ] # b
  - [     4.545604187055020,     2.621437602815609,    14.771128425001114 ] # c
  points:
  - symbol: Li # 1
    coordinates: [  0.042466132736681,  0.000671588351880,  0.350833533881806 ]
    mass: 6.940000
    reduced_to: 1
  - symbol: Li # 2
    coordinates: [  0.375799466070014,  0.000671588351880,  0.350833533881806 ]
    mass: 6.940000
    reduced_to: 1
  - symbol: Li # 3
    coordinates: [  0.709132799403348,  0.000671588351880,  0.350833533881806 ]
    mass: 6.940000
    reduced_to: 1
  - symbol: Li # 4
    coordinates: [  0.042466132736681,  0.334004921685214,  0.350833533881806 ]
    mass: 6.940000
    reduced_to: 1
  - symbol: Li # 5
    coordinates: [  0.375799466070014,  0.334004921685214,  0.350833533881806 ]
    mass: 6.940000
    reduced_to: 1
  - symbol: Li # 6
    coordinates: [  0.709132799403348,  0.334004921685214,  0.350833533881806 ]
    mass: 6.940000
    reduced_to: 1
  - symbol: Li # 7
    coordinates: [  0.042466132736681,  0.667338255018547,  0.350833533881806 ]
    mass: 6.940000
    reduced_to: 1
  - symbol: Li # 8
    coordinates: [  0.375799466070014,  0.667338255018547,  0.350833533881806 ]
    mass: 6.940000
    reduced_to: 1
  - symbol: Li # 9
    coordinates: [  0.709132799403348,  0.667338255018547,  0.350833533881806 ]
    mass: 6.940000
    reduced_to: 1
  - symbol: Li # 10
    coordinates: [  0.042466132736681,  0.000671588351880,  0.850833533881806 ]
    mass: 6.940000
    reduced_to: 1
  - symbol: Li # 11
    coordinates: [  0.375799466070014,  0.000671588351880,  0.850833533881806 ]
    mass: 6.940000
    reduced_to: 1
  - symbol: Li # 12
    coordinates: [  0.709132799403348,  0.000671588351880,  0.850833533881806 ]
    mass: 6.940000
    reduced_to: 1
  - symbol: Li # 13
    coordinates: [  0.042466132736681,  0.334004921685214,  0.850833533881806 ]
    mass: 6.940000
    reduced_to: 1
  - symbol: Li # 14
    coordinates: [  0.375799466070014,  0.334004921685214,  0.850833533881806 ]
    mass: 6.940000
    reduced_to: 1
  - symbol: Li # 15
    coordinates: [  0.709132799403348,  0.334004921685214,  0.850833533881806 ]
    mass: 6.940000
    reduced_to: 1
  - symbol: Li # 16
    coordinates: [  0.042466132736681,  0.667338255018547,  0.850833533881806 ]
    mass: 6.940000
    reduced_to: 1
  - symbol: Li # 17
    coordinates: [  0.375799466070014,  0.667338255018547,  0.850833533881806 ]
    mass: 6.940000
    reduced_to: 1
  - symbol: Li # 18
    coordinates: [  0.709132799403348,  0.667338255018547,  0.850833533881806 ]
    mass: 6.940000
    reduced_to: 1
  - symbol: Li # 19
    coordinates: [  0.208873304466096,  0.166619919705753,  0.101041654446749 ]
    mass: 6.940000
    reduced_to: 19
  - symbol: Li # 20
    coordinates: [  0.542206637799429,  0.166619919705753,  0.101041654446749 ]
    mass: 6.940000
    reduced_to: 19
  - symbol: Li # 21
    coordinates: [  0.875539971132763,  0.166619919705753,  0.101041654446749 ]
    mass: 6.940000
    reduced_to: 19
  - symbol: Li # 22
    coordinates: [  0.208873304466096,  0.499953253039086,  0.101041654446749 ]
    mass: 6.940000
    reduced_to: 19
  - symbol: Li # 23
    coordinates: [  0.542206637799429,  0.499953253039086,  0.101041654446749 ]
    mass: 6.940000
    reduced_to: 19
  - symbol: Li # 24
    coordinates: [  0.875539971132763,  0.499953253039086,  0.101041654446749 ]
    mass: 6.940000
    reduced_to: 19
  - symbol: Li # 25
    coordinates: [  0.208873304466096,  0.833286586372420,  0.101041654446749 ]
    mass: 6.940000
    reduced_to: 19
  - symbol: Li # 26
    coordinates: [  0.542206637799429,  0.833286586372420,  0.101041654446749 ]
    mass: 6.940000
    reduced_to: 19
  - symbol: Li # 27
    coordinates: [  0.875539971132763,  0.833286586372420,  0.101041654446749 ]
    mass: 6.940000
    reduced_to: 19
  - symbol: Li # 28
    coordinates: [  0.208873304466096,  0.166619919705753,  0.601041654446749 ]
    mass: 6.940000
    reduced_to: 19
  - symbol: Li # 29
    coordinates: [  0.542206637799429,  0.166619919705753,  0.601041654446749 ]
    mass: 6.940000
    reduced_to: 19
  - symbol: Li # 30
    coordinates: [  0.875539971132763,  0.166619919705753,  0.601041654446749 ]
    mass: 6.940000
    reduced_to: 19
  - symbol: Li # 31
    coordinates: [  0.208873304466096,  0.499953253039086,  0.601041654446749 ]
    mass: 6.940000
    reduced_to: 19
  - symbol: Li # 32
    coordinates: [  0.542206637799429,  0.499953253039086,  0.601041654446749 ]
    mass: 6.940000
    reduced_to: 19
  - symbol: Li # 33
    coordinates: [  0.875539971132763,  0.499953253039086,  0.601041654446749 ]
    mass: 6.940000
    reduced_to: 19
  - symbol: Li # 34
    coordinates: [  0.208873304466096,  0.833286586372420,  0.601041654446749 ]
    mass: 6.940000
    reduced_to: 19
  - symbol: Li # 35
    coordinates: [  0.542206637799429,  0.833286586372420,  0.601041654446749 ]
    mass: 6.940000
    reduced_to: 19
  - symbol: Li # 36
    coordinates: [  0.875539971132763,  0.833286586372420,  0.601041654446749 ]
    mass: 6.940000
    reduced_to: 19
  - symbol: Ga # 37
    coordinates: [  0.250850097173395,  0.209079715283693,  0.412169322041357 ]
    mass: 69.723000
    reduced_to: 37
  - symbol: Ga # 38
    coordinates: [  0.584183430506728,  0.209079715283693,  0.412169322041357 ]
    mass: 69.723000
    reduced_to: 37
  - symbol: Ga # 39
    coordinates: [  0.917516763840062,  0.209079715283693,  0.412169322041357 ]
    mass: 69.723000
    reduced_to: 37
  - symbol: Ga # 40
    coordinates: [  0.250850097173395,  0.542413048617026,  0.412169322041357 ]
    mass: 69.723000
    reduced_to: 37
  - symbol: Ga # 41
    coordinates: [  0.584183430506728,  0.542413048617026,  0.412169322041357 ]
    mass: 69.723000
    reduced_to: 37
  - symbol: Ga # 42
    coordinates: [  0.917516763840062,  0.542413048617026,  0.412169322041357 ]
    mass: 69.723000
    reduced_to: 37
  - symbol: Ga # 43
    coordinates: [  0.250850097173395,  0.875746381950360,  0.412169322041357 ]
    mass: 69.723000
    reduced_to: 37
  - symbol: Ga # 44
    coordinates: [  0.584183430506728,  0.875746381950360,  0.412169322041357 ]
    mass: 69.723000
    reduced_to: 37
  - symbol: Ga # 45
    coordinates: [  0.917516763840062,  0.875746381950360,  0.412169322041357 ]
    mass: 69.723000
    reduced_to: 37
  - symbol: Ga # 46
    coordinates: [  0.250850097173395,  0.209079715283693,  0.912169322041357 ]
    mass: 69.723000
    reduced_to: 37
  - symbol: Ga # 47
    coordinates: [  0.584183430506728,  0.209079715283693,  0.912169322041357 ]
    mass: 69.723000
    reduced_to: 37
  - symbol: Ga # 48
    coordinates: [  0.917516763840062,  0.209079715283693,  0.912169322041357 ]
    mass: 69.723000
    reduced_to: 37
  - symbol: Ga # 49
    coordinates: [  0.250850097173395,  0.542413048617026,  0.912169322041357 ]
    mass: 69.723000
    reduced_to: 37
  - symbol: Ga # 50
    coordinates: [  0.584183430506728,  0.542413048617026,  0.912169322041357 ]
    mass: 69.723000
    reduced_to: 37
  - symbol: Ga # 51
    coordinates: [  0.917516763840062,  0.542413048617026,  0.912169322041357 ]
    mass: 69.723000
    reduced_to: 37
  - symbol: Ga # 52
    coordinates: [  0.250850097173395,  0.875746381950360,  0.912169322041357 ]
    mass: 69.723000
    reduced_to: 37
  - symbol: Ga # 53
    coordinates: [  0.584183430506728,  0.875746381950360,  0.912169322041357 ]
    mass: 69.723000
    reduced_to: 37
  - symbol: Ga # 54
    coordinates: [  0.917516763840062,  0.875746381950360,  0.912169322041357 ]
    mass: 69.723000
    reduced_to: 37
  - symbol: Ga # 55
    coordinates: [  0.083960791204801,  0.042013666092042,  0.162471621142753 ]
    mass: 69.723000
    reduced_to: 55
  - symbol: Ga # 56
    coordinates: [  0.417294124538134,  0.042013666092042,  0.162471621142753 ]
    mass: 69.723000
    reduced_to: 55
  - symbol: Ga # 57
    coordinates: [  0.750627457871467,  0.042013666092042,  0.162471621142753 ]
    mass: 69.723000
    reduced_to: 55
  - symbol: Ga # 58
    coordinates: [  0.083960791204801,  0.375346999425376,  0.162471621142753 ]
    mass: 69.723000
    reduced_to: 55
  - symbol: Ga # 59
    coordinates: [  0.417294124538134,  0.375346999425376,  0.162471621142753 ]
    mass: 69.723000
    reduced_to: 55
  - symbol: Ga # 60
    coordinates: [  0.750627457871467,  0.375346999425376,  0.162471621142753 ]
    mass: 69.723000
    reduced_to: 55
  - symbol: Ga # 61
    coordinates: [  0.083960791204801,  0.708680332758709,  0.162471621142753 ]
    mass: 69.723000
    reduced_to: 55
  - symbol: Ga # 62
    coordinates: [  0.417294124538134,  0.708680332758709,  0.162471621142753 ]
    mass: 69.723000
    reduced_to: 55
  - symbol: Ga # 63
    coordinates: [  0.750627457871467,  0.708680332758709,  0.162471621142753 ]
    mass: 69.723000
    reduced_to: 55
  - symbol: Ga # 64
    coordinates: [  0.083960791204801,  0.042013666092042,  0.662471621142753 ]
    mass: 69.723000
    reduced_to: 55
  - symbol: Ga # 65
    coordinates: [  0.417294124538134,  0.042013666092042,  0.662471621142753 ]
    mass: 69.723000
    reduced_to: 55
  - symbol: Ga # 66
    coordinates: [  0.750627457871467,  0.042013666092042,  0.662471621142753 ]
    mass: 69.723000
    reduced_to: 55
  - symbol: Ga # 67
    coordinates: [  0.083960791204801,  0.375346999425376,  0.662471621142753 ]
    mass: 69.723000
    reduced_to: 55
  - symbol: Ga # 68
    coordinates: [  0.417294124538134,  0.375346999425376,  0.662471621142753 ]
    mass: 69.723000
    reduced_to: 55
  - symbol: Ga # 69
    coordinates: [  0.750627457871467,  0.375346999425376,  0.662471621142753 ]
    mass: 69.723000
    reduced_to: 55
  - symbol: Ga # 70
    coordinates: [  0.083960791204801,  0.708680332758709,  0.662471621142753 ]
    mass: 69.723000
    reduced_to: 55
  - symbol: Ga # 71
    coordinates: [  0.417294124538134,  0.708680332758709,  0.662471621142753 ]
    mass: 69.723000
    reduced_to: 55
  - symbol: Ga # 72
    coordinates: [  0.750627457871467,  0.708680332758709,  0.662471621142753 ]
    mass: 69.723000
    reduced_to: 55
  - symbol: Sn # 73
    coordinates: [  0.292293422689324,  0.250392239969604,  0.224757188329854 ]
    mass: 118.710000
    reduced_to: 73
  - symbol: Sn # 74
    coordinates: [  0.625626756022658,  0.250392239969604,  0.224757188329854 ]
    mass: 118.710000
    reduced_to: 73
  - symbol: Sn # 75
    coordinates: [  0.958960089355991,  0.250392239969604,  0.224757188329854 ]
    mass: 118.710000
    reduced_to: 73
  - symbol: Sn # 76
    coordinates: [  0.292293422689324,  0.583725573302937,  0.224757188329854 ]
    mass: 118.710000
    reduced_to: 73
  - symbol: Sn # 77
    coordinates: [  0.625626756022658,  0.583725573302937,  0.224757188329854 ]
    mass: 118.710000
    reduced_to: 73
  - symbol: Sn # 78
    coordinates: [  0.958960089355991,  0.583725573302937,  0.224757188329854 ]
    mass: 118.710000
    reduced_to: 73
  - symbol: Sn # 79
    coordinates: [  0.292293422689324,  0.917058906636271,  0.224757188329854 ]
    mass: 118.710000
    reduced_to: 73
  - symbol: Sn # 80
    coordinates: [  0.625626756022658,  0.917058906636271,  0.224757188329854 ]
    mass: 118.710000
    reduced_to: 73
  - symbol: Sn # 81
    coordinates: [  0.958960089355991,  0.917058906636271,  0.224757188329854 ]
    mass: 118.710000
    reduced_to: 73
  - symbol: Sn # 82
    coordinates: [  0.292293422689324,  0.250392239969604,  0.724757188329854 ]
    mass: 118.710000
    reduced_to: 73
  - symbol: Sn # 83
    coordinates: [  0.625626756022658,  0.250392239969604,  0.724757188329854 ]
    mass: 118.710000
    reduced_to: 73
  - symbol: Sn # 84
    coordinates: [  0.958960089355991,  0.250392239969604,  0.724757188329854 ]
    mass: 118.710000
    reduced_to: 73
  - symbol: Sn # 85
    coordinates: [  0.292293422689324,  0.583725573302937,  0.724757188329854 ]
    mass: 118.710000
    reduced_to: 73
  - symbol: Sn # 86
    coordinates: [  0.625626756022658,  0.583725573302937,  0.724757188329854 ]
    mass: 118.710000
    reduced_to: 73
  - symbol: Sn # 87
    coordinates: [  0.958960089355991,  0.583725573302937,  0.724757188329854 ]
    mass: 118.710000
    reduced_to: 73
  - symbol: Sn # 88
    coordinates: [  0.292293422689324,  0.917058906636271,  0.724757188329854 ]
    mass: 118.710000
    reduced_to: 73
  - symbol: Sn # 89
    coordinates: [  0.625626756022658,  0.917058906636271,  0.724757188329854 ]
    mass: 118.710000
    reduced_to: 73
  - symbol: Sn # 90
    coordinates: [  0.958960089355991,  0.917058906636271,  0.724757188329854 ]
    mass: 118.710000
    reduced_to: 73
  - symbol: Sn # 91
    coordinates: [  0.125683158167779,  0.083902457939224,  0.474895960846146 ]
    mass: 118.710000
    reduced_to: 91
  - symbol: Sn # 92
    coordinates: [  0.459016491501113,  0.083902457939224,  0.474895960846146 ]
    mass: 118.710000
    reduced_to: 91
  - symbol: Sn # 93
    coordinates: [  0.792349824834446,  0.083902457939224,  0.474895960846146 ]
    mass: 118.710000
    reduced_to: 91
  - symbol: Sn # 94
    coordinates: [  0.125683158167779,  0.417235791272557,  0.474895960846146 ]
    mass: 118.710000
    reduced_to: 91
  - symbol: Sn # 95
    coordinates: [  0.459016491501113,  0.417235791272557,  0.474895960846146 ]
    mass: 118.710000
    reduced_to: 91
  - symbol: Sn # 96
    coordinates: [  0.792349824834446,  0.417235791272557,  0.474895960846146 ]
    mass: 118.710000
    reduced_to: 91
  - symbol: Sn # 97
    coordinates: [  0.125683158167779,  0.750569124605891,  0.474895960846146 ]
    mass: 118.710000
    reduced_to: 91
  - symbol: Sn # 98
    coordinates: [  0.459016491501113,  0.750569124605891,  0.474895960846146 ]
    mass: 118.710000
    reduced_to: 91
  - symbol: Sn # 99
    coordinates: [  0.792349824834446,  0.750569124605891,  0.474895960846146 ]
    mass: 118.710000
    reduced_to: 91
  - symbol: Sn # 100
    coordinates: [  0.125683158167779,  0.083902457939224,  0.974895960846146 ]
    mass: 118.710000
    reduced_to: 91
  - symbol: Sn # 101
    coordinates: [  0.459016491501113,  0.083902457939224,  0.974895960846146 ]
    mass: 118.710000
    reduced_to: 91
  - symbol: Sn # 102
    coordinates: [  0.792349824834446,  0.083902457939224,  0.974895960846146 ]
    mass: 118.710000
    reduced_to: 91
  - symbol: Sn # 103
    coordinates: [  0.125683158167779,  0.417235791272557,  0.974895960846146 ]
    mass: 118.710000
    reduced_to: 91
  - symbol: Sn # 104
    coordinates: [  0.459016491501113,  0.417235791272557,  0.974895960846146 ]
    mass: 118.710000
    reduced_to: 91
  - symbol: Sn # 105
    coordinates: [  0.792349824834446,  0.417235791272557,  0.974895960846146 ]
    mass: 118.710000
    reduced_to: 91
  - symbol: Sn # 106
    coordinates: [  0.125683158167779,  0.750569124605891,  0.974895960846146 ]
    mass: 118.710000
    reduced_to: 91
  - symbol: Sn # 107
    coordinates: [  0.459016491501113,  0.750569124605891,  0.974895960846146 ]
    mass: 118.710000
    reduced_to: 91
  - symbol: Sn # 108
    coordinates: [  0.792349824834446,  0.750569124605891,  0.974895960846146 ]
    mass: 118.710000
    reduced_to: 91

displacements:
- atom:    1
  displacement:
    [   0.0100000000000000,  0.0000000000000000,  0.0000000000000000 ]
  forces:
  - [  -0.0216784588992596, -0.0034129801206291, -0.0080666746944189 ]
  - [  -0.0036897517275065, -0.0034678578376770, -0.0080787790939212 ]
  - [  -0.0037444427143782, -0.0038116164505482, -0.0078537575900555 ]
  - [  -0.0047579603269696, -0.0032144198194146, -0.0081889098510146 ]
  - [  -0.0051020951941609, -0.0036407327279449, -0.0079651754349470 ]
  - [  -0.0047469874843955, -0.0040769581682980, -0.0077430019155145 ]
  - [  -0.0047599649988115, -0.0028788652271032, -0.0080766333267093 ]
  - [  -0.0047453073784709, -0.0044242702424526, -0.0078497100621462 ]
  - [  -0.0051027755253017, -0.0036432724446058, -0.0079661915078759 ]
  - [  -0.0051126452162862, -0.0036272248253226, -0.0079418886452913 ]
  - [  -0.0051193246617913, -0.0036483118310571, -0.0079662799835205 ]
  - [  -0.0051199449226260, -0.0036491882055998, -0.0079803727567196 ]
  - [  -0.0051294695585966, -0.0036444310098886, -0.0079643856734037 ]
  - [  -0.0051164943724871, -0.0036443648859859, -0.0079684276133776 ]
  - [  -0.0051039871759713, -0.0036428477615118, -0.0079605653882027 ]
  - [  -0.0051299771293998, -0.0036439383402467, -0.0079658571630716 ]
  - [  -0.0051034875214100, -0.0036412570625544, -0.0079801827669144 ]
  - [  -0.0051162512972951, -0.0036438694223762, -0.0079481862485409 ]
  - [   0.0010610795579851,  0.0037863580510020, -0.0195851679891348 ]
  - [   0.0007269823690876,  0.0034215655177832, -0.0192280951887369 ]
  - [   0.0010647595627233,  0.0030621439218521, -0.0188786610960960 ]
  - [   0.0007112320163287,  0.0034293765202165, -0.0192153602838516 ]
  - [   0.0007114496547729,  0.0034112972207367, -0.0192399080842733 ]
  - [   0.0007742074667476,  0.0034165577962995, -0.0192226041108370 ]
  - [   0.0004375660791993,  0.0034328154288232, -0.0192155707627535 ]
  - [   0.0009807264432311,  0.0033048773184419, -0.0193858444690704 ]
  - [   0.0010027550160885,  0.0035546142607927, -0.0190432313829660 ]
  - [   0.0009752749465406,  0.0035368502140045, -0.0190660636872053 ]
  - [   0.0009876820258796,  0.0032965475693345, -0.0194004941731691 ]
  - [   0.0004371451504994,  0.0034173056483269, -0.0192361213266850 ]
  - [   0.0007711671059951,  0.0034188791178167, -0.0192253328859806 ]
  - [   0.0007108528516255,  0.0034115118905902, -0.0192278120666742 ]
  - [   0.0007136699859984,  0.0034302258864045, -0.0192247144877911 ]
  - [   0.0010490082204342,  0.0030646505765617, -0.0185344405472279 ]
  - [   0.0007266458123922,  0.0034208996221423, -0.0192269571125507 ]
  - [   0.0010421164333820,  0.0037686536088586, -0.0198979936540127 ]
  - [  -0.0059877694584429, -0.0036660041660070,  0.0344726517796516 ]
  - [  -0.0059910789132118, -0.0025332588702440,  0.0343617871403694 ]
  - [  -0.0070173628628254, -0.0031460952013731,  0.0343885719776154 ]
  - [  -0.0050065284594893, -0.0031001195311546,  0.0344097092747688 ]
  - [  -0.0056190807372332, -0.0031049251556396,  0.0343230180442333 ]
  - [  -0.0056118546053767, -0.0030938573181629,  0.0345011427998543 ]
  - [   0.0012813434004784, -0.0079151801764965,  0.0377177670598030 ]
  - [  -0.0056076161563396, -0.0030918028205633,  0.0344126001000404 ]
  - [   0.0010701939463615,  0.0015468355268240,  0.0312209669500589 ]
  - [  -0.0054612164385617, -0.0030948463827372,  0.0344258695840836 ]
  - [  -0.0054467059671879, -0.0030830893665552,  0.0344118103384972 ]
  - [  -0.0054596094414592, -0.0031178463250399,  0.0343970358371735 ]
  - [  -0.0054588560014963, -0.0030908323824406,  0.0343992486596107 ]
  - [  -0.0054557509720325, -0.0030991397798061,  0.0344284921884537 ]
  - [  -0.0054530249908566, -0.0030918903648853,  0.0344117730855942 ]
  - [  -0.0054766312241554, -0.0030809231102467,  0.0344133228063583 ]
  - [  -0.0054573863744736, -0.0031017996370792,  0.0344439297914505 ]
  - [  -0.0054232832044363, -0.0030886493623257,  0.0343804657459259 ]
  - [  -0.0041655199602246, -0.0028211886528879, -0.0019834544509649 ]
  - [  -0.0031661433167756, -0.0030534449033439, -0.0015450096689165 ]
  - [  -0.0031580692157149, -0.0026224816683680, -0.0025605629198253 ]
  - [  -0.0029192611109465, -0.0027604168280959, -0.0020965784788132 ]
  - [  -0.0026279629673809, -0.0028252578340471, -0.0020571113564074 ]
  - [  -0.0029311066027731, -0.0028742991853505, -0.0020278664305806 ]
  - [  -0.0029042458627373, -0.0031601679511368, -0.0025862408801913 ]
  - [  -0.0029107856098562, -0.0024824286811054, -0.0015099397860467 ]
  - [  -0.0027108923532069, -0.0028268345631659, -0.0020593935623765 ]
  - [  -0.0029046793933958, -0.0032207483891398, -0.0025917850434780 ]
  - [  -0.0027110883966088, -0.0028206331189722, -0.0020597558468580 ]
  - [  -0.0029037466738373, -0.0024377512745559, -0.0015325546264648 ]
  - [  -0.0026631290093064, -0.0028556026518345, -0.0020729615353048 ]
  - [  -0.0026660384610295, -0.0027997056022286, -0.0020483927801251 ]
  - [  -0.0026692457031459, -0.0028285514563322, -0.0020600510761142 ]
  - [  -0.0022245307918638, -0.0028240522369742, -0.0020544845610857 ]
  - [  -0.0028225714340806, -0.0027361344546080, -0.0020030420273542 ]
  - [  -0.0028176251798868, -0.0029111141338944, -0.0021120738238096 ]
  - [   0.0063674487173557,  0.0037522846832871,  0.0011873934417963 ]
  - [   0.0063661374151707,  0.0041622729040682,  0.0008951928466558 ]
  - [   0.0072686271741986,  0.0039392509497702,  0.0010566152632236 ]
  - [   0.0067192586138844,  0.0039594625122845,  0.0010392516851425 ]
  - [   0.0064062764868140,  0.0041157710365951,  0.0010018013417721 ]
  - [   0.0064084660261869,  0.0038064983673394,  0.0010808706283569 ]
  - [   0.0087142586708069,  0.0031262524425983, -0.0004440750926733 ]
  - [   0.0061368481256068,  0.0039612185209990,  0.0010419748723507 ]
  - [   0.0085615329444408,  0.0047069396823645,  0.0023659914731979 ]
  - [   0.0064748446457088,  0.0039593838155270,  0.0010468959808350 ]
  - [   0.0065320320427418,  0.0040825465694070,  0.0011759493499994 ]
  - [   0.0065243816934526,  0.0038344077765942,  0.0008993335068226 ]
  - [   0.0065028830431402,  0.0039681820198894,  0.0010485965758562 ]
  - [   0.0065230843611062,  0.0039584478363395,  0.0010442826896906 ]
  - [   0.0065028155222535,  0.0039572445675731,  0.0010379422456026 ]
  - [   0.0064005907624960,  0.0040358062833548,  0.0009123589843512 ]
  - [   0.0064107552170753,  0.0038766833022237,  0.0011679586023092 ]
  - [   0.0067232074216008,  0.0039562839083374,  0.0010426491498947 ]
  - [   0.0084428600966930,  0.0034106019884348, -0.0047827847301960 ]
  - [   0.0056381132453680,  0.0021811258047819, -0.0062056593596935 ]
  - [   0.0083430586382747,  0.0010234415531158, -0.0075344610959291 ]
  - [   0.0059356475248933,  0.0020099794492126, -0.0062002036720514 ]
  - [   0.0059426939114928,  0.0023571653291583, -0.0062076766043901 ]
  - [   0.0061637815088034,  0.0021978830918670, -0.0061967261135578 ]
  - [   0.0063294246792793,  0.0022290265187621, -0.0062321908771992 ]
  - [   0.0032227262854576,  0.0038867359980941, -0.0074087977409363 ]
  - [   0.0032393783330917,  0.0004936018958688, -0.0050061512738466 ]
  - [   0.0061591509729624,  0.0021793972700834, -0.0062334481626749 ]
  - [   0.0059413565322757,  0.0021271929144859, -0.0060371663421392 ]
  - [   0.0059490296989679,  0.0022335853427649, -0.0063714012503624 ]
  - [   0.0060173999518156,  0.0021764971315861, -0.0061992853879929 ]
  - [   0.0060251802206039,  0.0021854583173990, -0.0062055196613073 ]
  - [   0.0060130646452308,  0.0021960418671370, -0.0062085911631584 ]
  - [   0.0060310736298561,  0.0020990967750549, -0.0063648149371147 ]
  - [   0.0060347132384777,  0.0022614318877459, -0.0060424339026213 ]
  - [   0.0059818383306265,  0.0021783597767353, -0.0062031466513872 ]
- atom:    1
  displacement:
    [  -0.0100000000000000,  0.0000000000000000,  0.0000000000000000 ]
  forces:
  - [   0.0114397816359997, -0.0036115474067628, -0.0080523388460279 ]
  - [  -0.0064876000396907, -0.0038106921128929, -0.0078562404960394 ]
  - [  -0.0065425154753029, -0.0034673749469221, -0.0080808317288756 ]
  - [  -0.0054781259968877, -0.0040688649751246, -0.0077411020174623 ]
  - [  -0.0051301233470440, -0.0036420598626137, -0.0079648550599813 ]
  - [  -0.0054838275536895, -0.0032058102078736, -0.0081872195005417 ]
  - [  -0.0054798382334411, -0.0044211521744728, -0.0078518744558096 ]
  - [  -0.0054817041382194, -0.0028758207336068, -0.0080786896869540 ]
  - [  -0.0051318178884685, -0.0036443462595344, -0.0079664858058095 ]
  - [  -0.0051231482066214, -0.0036558303982019, -0.0079836901277304 ]
  - [  -0.0051141344010830, -0.0036339266225696, -0.0079606547951698 ]
  - [  -0.0051149548962712, -0.0036344695836306, -0.0079460032284260 ]
  - [  -0.0051025836728513, -0.0036425655707717, -0.0079645402729511 ]
  - [  -0.0051180236041546, -0.0036432379856706, -0.0079604545608163 ]
  - [  -0.0051291338168085, -0.0036454470828176, -0.0079684089869261 ]
  - [  -0.0051029338501394, -0.0036425478756428, -0.0079630948603153 ]
  - [  -0.0051286956295371, -0.0036453949287534, -0.0079486891627312 ]
  - [  -0.0051180012524128, -0.0036423588171601, -0.0079812612384558 ]
  - [   0.0003562639467418,  0.0030562430620193, -0.0188702531158924 ]
  - [   0.0006894329562783,  0.0034207291901112, -0.0192265138030052 ]
  - [   0.0003564937796909,  0.0037810122594237, -0.0195768121629953 ]
  - [   0.0007063538650982,  0.0034133815206587, -0.0192396994680166 ]
  - [   0.0007063130033202,  0.0034306328743696, -0.0192138552665710 ]
  - [   0.0006430866778828,  0.0034227478317916, -0.0192283336073160 ]
  - [   0.0009791580960155,  0.0034168227575719, -0.0192305166274309 ]
  - [   0.0004341388121247,  0.0035418053157628, -0.0190615709871054 ]
  - [   0.0004227776080370,  0.0032910872250795, -0.0194049123674631 ]
  - [   0.0004370041133370,  0.0033021350391209, -0.0193936545401812 ]
  - [   0.0004370647948235,  0.0035418691113591, -0.0190572496503592 ]
  - [   0.0009815170196816,  0.0034225052222610, -0.0192274730652571 ]
  - [   0.0006482491735369,  0.0034201429225504, -0.0192259456962347 ]
  - [   0.0007054209709167,  0.0034303236752748, -0.0192252770066261 ]
  - [   0.0007077786722220,  0.0034113731235266, -0.0192273370921612 ]
  - [   0.0003745369613171,  0.0037716394290328, -0.0199073068797588 ]
  - [   0.0006892709061503,  0.0034213010221720, -0.0192258507013321 ]
  - [   0.0003718556836247,  0.0030676093883812, -0.0185450538992882 ]
  - [  -0.0049251373857260, -0.0025301333516836,  0.0343571342527866 ]
  - [  -0.0049289721064270, -0.0036615077406168,  0.0344665050506592 ]
  - [  -0.0038959034718573, -0.0030958820134401,  0.0344160944223404 ]
  - [  -0.0059065702371299, -0.0030985940247774,  0.0344103835523129 ]
  - [  -0.0052995434962213, -0.0030919183045626,  0.0345016159117222 ]
  - [  -0.0052927248179913, -0.0031039454042912,  0.0343241691589355 ]
  - [  -0.0120544321835041,  0.0016039032489061,  0.0311924088746309 ]
  - [  -0.0053065530955791, -0.0030933786183596,  0.0344130620360374 ]
  - [  -0.0121180023998022, -0.0078583788126707,  0.0376893766224384 ]
  - [  -0.0054540392011404, -0.0031022634357214,  0.0343971028923988 ]
  - [  -0.0054622427560389, -0.0031115338206291,  0.0344123542308807 ]
  - [  -0.0054518245160580, -0.0030801016837358,  0.0344284363090992 ]
  - [  -0.0054540126584470, -0.0030975267291069,  0.0344274044036865 ]
  - [  -0.0054590702056885, -0.0030885096639395,  0.0343976095318794 ]
  - [  -0.0054544275626540, -0.0030956752598286,  0.0344142988324165 ]
  - [  -0.0054319277405739, -0.0030997786670923,  0.0344114378094673 ]
  - [  -0.0054450109601021, -0.0030801668763161,  0.0343820825219154 ]
  - [  -0.0054805371910334, -0.0030930768698454,  0.0344453006982803 ]
  - [  -0.0011735146399587, -0.0028269789181650, -0.0020819846540689 ]
  - [  -0.0021659517660737, -0.0025998840574175, -0.0025703748688102 ]