# Thermal properties / unit cell (natom)

unit:
  temperature:   K
  free_energy:   kJ/mol
  entropy:       J/K/mol
  heat_capacity: J/K/mol

natom: 6    
cutoff_frequency: 0.00000
num_modes: 176904
num_integrated_modes: 176903

zero_point_energy:      18.2993042

thermal_properties:
- temperature:         0.0000000
  free_energy:        18.2993042
  entropy:             0.0000000
  heat_capacity:       0.0000000
  energy:             18.2993042

- temperature:        10.0000000
  free_energy:        18.2981932
  entropy:             0.3768485
  heat_capacity:       1.0814752
  energy:             18.3019617

- temperature:        20.0000000
  free_energy:        18.2844766
  entropy:             2.8552261
  heat_capacity:       7.8985923
  energy:             18.3415812

- temperature:        30.0000000
  free_energy:        18.2318692
  entropy:             8.0585001
  heat_capacity:      18.9163466
  energy:             18.4736242

- temperature:        40.0000000
  free_energy:        18.1168717
  entropy:            15.2001357
  heat_capacity:      31.4544593
  energy:             18.7248771

- temperature:        50.0000000
  free_energy:        17.9237302
  entropy:            23.5886976
  heat_capacity:      44.1477812
  energy:             19.1031650

- temperature:        60.0000000
  free_energy:        17.6426477
  entropy:            32.7171657
  heat_capacity:      56.2077220
  energy:             19.6056777

- temperature:        70.0000000
  free_energy:        17.2681342
  entropy:            42.2250450
  heat_capacity:      67.2453556
  energy:             20.2238873

- temperature:        80.0000000
  free_energy:        16.7977274
  entropy:            51.8613466
  heat_capacity:      77.1026228
  energy:             20.9466352

- temperature:        90.0000000
  free_energy:        16.2310585
  entropy:            61.4541627
  heat_capacity:      85.7606254
  energy:             21.7619331

- temperature:       100.0000000
  free_energy:        15.5691758
  entropy:            70.8888528
  heat_capacity:      93.2840554
  energy:             22.6580611

- temperature:       110.0000000
  free_energy:        14.8140560
  entropy:            80.0921403
  heat_capacity:      99.7811342
  energy:             23.6241914

- temperature:       120.0000000
  free_energy:        13.9682527
  entropy:            89.0202001
  heat_capacity:     105.3760329
  energy:             24.6506767

- temperature:       130.0000000
  free_energy:        13.0346486
  entropy:            97.6497583
  heat_capacity:     110.1921015
  energy:             25.7291171

- temperature:       140.0000000
  free_energy:        12.0162844
  entropy:           105.9715637
  heat_capacity:     114.3430893
  energy:             26.8523033

- temperature:       150.0000000
  free_energy:        10.9162435
  entropy:           113.9857005
  heat_capacity:     117.9295004
  energy:             28.0140986

- temperature:       160.0000000
  free_energy:         9.7375760
  entropy:           121.6982839
  heat_capacity:     121.0378914
  energy:             29.2093014

- temperature:       170.0000000
  free_energy:         8.4832504
  entropy:           129.1191683
  heat_capacity:     123.7416731
  energy:             30.4335090

- temperature:       180.0000000
  free_energy:         7.1561250
  entropy:           136.2603779
  heat_capacity:     126.1025573
  energy:             31.6829930

- temperature:       190.0000000
  free_energy:         5.7589313
  entropy:           143.1350468
  heat_capacity:     128.1721817
  energy:             32.9545902

- temperature:       200.0000000
  free_energy:         4.2942673
  entropy:           149.7567147
  heat_capacity:     129.9936765
  energy:             34.2456103

- temperature:       210.0000000
  free_energy:         2.7645954
  entropy:           156.1388667
  heat_capacity:     131.6030690
  energy:             35.5537574

- temperature:       220.0000000
  free_energy:         1.1722445
  entropy:           162.2946414
  heat_capacity:     133.0304959
  energy:             36.8770657

- temperature:       230.0000000
  free_energy:        -0.4805850
  entropy:           168.2366539
  heat_capacity:     134.3012227
  energy:             38.2138454

- temperature:       240.0000000
  free_energy:        -2.1918160
  entropy:           173.9768958
  heat_capacity:     135.4364920
  energy:             39.5626390

- temperature:       250.0000000
  free_energy:        -3.9594881
  entropy:           179.5266876
  heat_capacity:     136.4542214
  energy:             40.9221838

- temperature:       260.0000000
  free_energy:        -5.7817505
  entropy:           184.8966649
  heat_capacity:     137.3695760
  energy:             42.2913824

- temperature:       270.0000000
  free_energy:        -7.6568553
  entropy:           190.0967871
  heat_capacity:     138.1954378
  energy:             43.6692772

- temperature:       280.0000000
  free_energy:        -9.5831511
  entropy:           195.1363598
  heat_capacity:     138.9427887
  energy:             45.0550296

- temperature:       290.0000000
  free_energy:       -11.5590764
  entropy:           200.0240658
  heat_capacity:     139.6210256
  energy:             46.4479027

- temperature:       300.0000000
  free_energy:       -13.5831533
  entropy:           204.7680001
  heat_capacity:     140.2382178
  energy:             47.8472468

- temperature:       310.0000000
  free_energy:       -15.6539823
  entropy:           209.3757071
  heat_capacity:     140.8013191
  energy:             49.2524869

- temperature:       320.0000000
  free_energy:       -17.7702368
  entropy:           213.8542181
  heat_capacity:     141.3163435
  energy:             50.6631130

- temperature:       330.0000000
  free_energy:       -19.9306579
  entropy:           218.2100876
  heat_capacity:     141.7885090
  energy:             52.0786710

- temperature:       340.0000000
  free_energy:       -22.1340502
  entropy:           222.4494285
  heat_capacity:     142.2223585
  energy:             53.4987555

- temperature:       350.0000000
  free_energy:       -24.3792771
  entropy:           226.5779452
  heat_capacity:     142.6218597
  energy:             54.9230037

- temperature:       360.0000000
  free_energy:       -26.6652575
  entropy:           230.6009647
  heat_capacity:     142.9904883
  energy:             56.3510898

- temperature:       370.0000000
  free_energy:       -28.9909614
  entropy:           234.5234653
  heat_capacity:     143.3312982
  energy:             57.7827208

- temperature:       380.0000000
  free_energy:       -31.3554073
  entropy:           238.3501035
  heat_capacity:     143.6469810
  energy:             59.2176321

- temperature:       390.0000000
  free_energy:       -33.7576585
  entropy:           242.0852387
  heat_capacity:     143.9399145
  energy:             60.6555846

- temperature:       400.0000000
  free_energy:       -36.1968207
  entropy:           245.7329557
  heat_capacity:     144.2122060
  energy:             62.0963616

- temperature:       410.0000000
  free_energy:       -38.6720390
  entropy:           249.2970858
  heat_capacity:     144.4657273
  energy:             63.5397662

- temperature:       420.0000000
  free_energy:       -41.1824958
  entropy:           252.7812260
  heat_capacity:     144.7021451
  energy:             64.9856191

- temperature:       430.0000000
  free_energy:       -43.7274082
  entropy:           256.1887563
  heat_capacity:     144.9229476
  energy:             66.4337570

- temperature:       440.0000000
  free_energy:       -46.3060262
  entropy:           259.5228560
  heat_capacity:     145.1294661
  energy:             67.8840305

- temperature:       450.0000000
  free_energy:       -48.9176305
  entropy:           262.7865184
  heat_capacity:     145.3228946
  energy:             69.3363027

- temperature:       460.0000000
  free_energy:       -51.5615312
  entropy:           265.9825641
  heat_capacity:     145.5043059
  energy:             70.7904483

- temperature:       470.0000000
  free_energy:       -54.2370653
  entropy:           269.1136539
  heat_capacity:     145.6746665
  energy:             72.2463520

- temperature:       480.0000000
  free_energy:       -56.9435961
  entropy:           272.1822997
  heat_capacity:     145.8348483
  energy:             73.7039078

- temperature:       490.0000000
  free_energy:       -59.6805111
  entropy:           275.1908751
  heat_capacity:     145.9856395
  energy:             75.1630177

- temperature:       500.0000000
  free_energy:       -62.4472209
  entropy:           278.1416250
  heat_capacity:     146.1277545
  energy:             76.6235916

- temperature:       510.0000000
  free_energy:       -65.2431579
  entropy:           281.0366744
  heat_capacity:     146.2618411
  energy:             78.0855460

- temperature:       520.0000000
  free_energy:       -68.0677754
  entropy:           283.8780367
  heat_capacity:     146.3884885
  energy:             79.5488037

- temperature:       530.0000000
  free_energy:       -70.9205461
  entropy:           286.6676205
  heat_capacity:     146.5082332
  energy:             81.0132928

- temperature:       540.0000000
  free_energy:       -73.8009613
  entropy:           289.4072374
  heat_capacity:     146.6215644
  energy:             82.4789470

- temperature:       550.0000000
  free_energy:       -76.7085300
  entropy:           292.0986077
  heat_capacity:     146.7289291
  energy:             83.9457042

- temperature:       560.0000000
  free_energy:       -79.6427781
  entropy:           294.7433662
  heat_capacity:     146.8307362
  energy:             85.4135070

- temperature:       570.0000000
  free_energy:       -82.6032472
  entropy:           297.3430681
  heat_capacity:     146.9273606
  energy:             86.8823017

- temperature:       580.0000000
  free_energy:       -85.5894942
  entropy:           299.8991936
  heat_capacity:     147.0191460
  energy:             88.3520381

- temperature:       590.0000000
  free_energy:       -88.6010905
  entropy:           302.4131525
  heat_capacity:     147.1064085
  energy:             89.8226695

- temperature:       600.0000000
  free_energy:       -91.6376212
  entropy:           304.8862889
  heat_capacity:     147.1894388
  energy:             91.2941522

- temperature:       610.0000000
  free_energy:       -94.6986845
  entropy:           307.3198845
  heat_capacity:     147.2685047
  energy:             92.7664451

- temperature:       620.0000000
  free_energy:       -97.7838911
  entropy:           309.7151629
  heat_capacity:     147.3438534
  energy:             94.2395099

- temperature:       630.0000000
  free_energy:      -100.8928639
  entropy:           312.0732927
  heat_capacity:     147.4157132
  energy:             95.7133105

- temperature:       640.0000000
  free_energy:      -104.0252369
  entropy:           314.3953908
  heat_capacity:     147.4842951
  energy:             97.1878132

- temperature:       650.0000000
  free_energy:      -107.1806552
  entropy:           316.6825251
  heat_capacity:     147.5497946
  energy:             98.6629861

- temperature:       660.0000000
  free_energy:      -110.3587742
  entropy:           318.9357177
  heat_capacity:     147.6123929
  energy:            100.1387994

- temperature:       670.0000000
  free_energy:      -113.5592596
  entropy:           321.1559471
  heat_capacity:     147.6722580
  energy:            101.6152249

- temperature:       680.0000000
  free_energy:      -116.7817864
  entropy:           323.3441507
  heat_capacity:     147.7295462
  energy:            103.0922360

- temperature:       690.0000000
  free_energy:      -120.0260389
  entropy:           325.5012270
  heat_capacity:     147.7844025
  energy:            104.5698077

- temperature:       700.0000000
  free_energy:      -123.2917101
  entropy:           327.6280379
  heat_capacity:     147.8369622
  energy:            106.0479164

- temperature:       710.0000000
  free_energy:      -126.5785015
  entropy:           329.7254102
  heat_capacity:     147.8873512
  energy:            107.5265397

- temperature:       720.0000000
  free_energy:      -129.8861228
  entropy:           331.7941381
  heat_capacity:     147.9356870
  energy:            109.0056566

- temperature:       730.0000000
  free_energy:      -133.2142914
  entropy:           333.8349840
  heat_capacity:     147.9820792
  energy:            110.4852470

- temperature:       740.0000000
  free_energy:      -136.5627320
  entropy:           335.8486811
  heat_capacity:     148.0266302
  energy:            111.9652920

- temperature:       750.0000000
  free_energy:      -139.9311768
  entropy:           337.8359342
  heat_capacity:     148.0694360
  energy:            113.4457738

- temperature:       760.0000000
  free_energy:      -143.3193648
  entropy:           339.7974211
  heat_capacity:     148.1105860
  energy:            114.9266752

- temperature:       770.0000000
  free_energy:      -146.7270416
  entropy:           341.7337946
  heat_capacity:     148.1501645
  energy:            116.4079803

- temperature:       780.0000000
  free_energy:      -150.1539591
  entropy:           343.6456829
  heat_capacity:     148.1882501
  energy:            117.8896735

- temperature:       790.0000000
  free_energy:      -153.5998756
  entropy:           345.5336913
  heat_capacity:     148.2249167
  energy:            119.3717405

- temperature:       800.0000000
  free_energy:      -157.0645553
  entropy:           347.3984033
  heat_capacity:     148.2602338
  energy:            120.8541674

- temperature:       810.0000000
  free_energy:      -160.5477679
  entropy:           349.2403813
  heat_capacity:     148.2942666
  energy:            122.3369409

- temperature:       820.0000000
  free_energy:      -164.0492889
  entropy:           351.0601678
  heat_capacity:     148.3270764
  energy:            123.8200486

- temperature:       830.0000000
  free_energy:      -167.5688990
  entropy:           352.8582863
  heat_capacity:     148.3587210
  energy:            125.3034786

- temperature:       840.0000000
  free_energy:      -171.1063841
  entropy:           354.6352422
  heat_capacity:     148.3892547
  energy:            126.7872194

- temperature:       850.0000000
  free_energy:      -174.6615350
  entropy:           356.3915236
  heat_capacity:     148.4187288
  energy:            128.2712601

- temperature:       860.0000000
  free_energy:      -178.2341472
  entropy:           358.1276021
  heat_capacity:     148.4471916
  energy:            129.7555906

- temperature:       870.0000000
  free_energy:      -181.8240212
  entropy:           359.8439333
  heat_capacity:     148.4746888
  energy:            131.2402007

- temperature:       880.0000000
  free_energy:      -185.4309615
  entropy:           361.5409577
  heat_capacity:     148.5012634
  energy:            132.7250813

- temperature:       890.0000000
  free_energy:      -189.0547774
  entropy:           363.2191017
  heat_capacity:     148.5269562
  energy:            134.2102231

- temperature:       900.0000000
  free_energy:      -192.6952820
  entropy:           364.8787773
  heat_capacity:     148.5518056
  energy:            135.6956176

- temperature:       910.0000000
  free_energy:      -196.3522927
  entropy:           366.5203838
  heat_capacity:     148.5758481
  energy:            137.1812565

- temperature:       920.0000000
  free_energy:      -200.0256308
  entropy:           368.1443073
  heat_capacity:     148.5991181
  energy:            138.6671320

- temperature:       930.0000000
  free_energy:      -203.7151212
  entropy:           369.7509221
  heat_capacity:     148.6216484
  energy:            140.1532364

- temperature:       940.0000000
  free_energy:      -207.4205927
  entropy:           371.3405907
  heat_capacity:     148.6434698
  energy:            141.6395626

- temperature:       950.0000000
  free_energy:      -211.1418777
  entropy:           372.9136644
  heat_capacity:     148.6646118
  energy:            143.1261035

- temperature:       960.0000000
  free_energy:      -214.8788118
  entropy:           374.4704838
  heat_capacity:     148.6851021
  energy:            144.6128526

- temperature:       970.0000000
  free_energy:      -218.6312343
  entropy:           376.0113791
  heat_capacity:     148.7049673
  energy:            146.0998035

- temperature:       980.0000000
  free_energy:      -222.3989874
  entropy:           377.5366708
  heat_capacity:     148.7242325
  energy:            147.5869500

- temperature:       990.0000000
  free_energy:      -226.1819167
  entropy:           379.0466696
  heat_capacity:     148.7429215
  energy:            149.0742862

- temperature:      1000.0000000
  free_energy:      -229.9798708
  entropy:           380.5416774
  heat_capacity:     148.7610570
  energy:            150.5618066
