# Thermal properties / unit cell (natom)

unit:
  temperature:   K
  free_energy:   kJ/mol
  entropy:       J/K/mol
  heat_capacity: J/K/mol

natom: 4    
cutoff_frequency: 0.00000
num_modes: 147000
num_integrated_modes: 146998

zero_point_energy:      13.3911169

thermal_properties:
- temperature:         0.0000000
  free_energy:        13.3911169
  entropy:             0.0000000
  heat_capacity:       0.0000000
  energy:             13.3911169

- temperature:        10.0000000
  free_energy:        13.3897928
  entropy:             0.4661282
  heat_capacity:       1.2512082
  energy:             13.3944541

- temperature:        20.0000000
  free_energy:        13.3750784
  entropy:             2.8459399
  heat_capacity:       6.8497742
  energy:             13.4319972

- temperature:        30.0000000
  free_energy:        13.3270530
  entropy:             6.9591393
  heat_capacity:      13.9097445
  energy:             13.5358272

- temperature:        40.0000000
  free_energy:        13.2331937
  entropy:            11.9041714
  heat_capacity:      20.7682527
  energy:             13.7093606

- temperature:        50.0000000
  free_energy:        13.0875974
  entropy:            17.2681115
  heat_capacity:      27.5587880
  energy:             13.9510030

- temperature:        60.0000000
  free_energy:        12.8869772
  entropy:            22.8898099
  heat_capacity:      34.2921057
  energy:             14.2603658

- temperature:        70.0000000
  free_energy:        12.6292790
  entropy:            28.6685746
  heat_capacity:      40.7959997
  energy:             14.6360793

- temperature:        80.0000000
  free_energy:        12.3133669
  entropy:            34.5194123
  heat_capacity:      46.8925009
  energy:             15.0749199

- temperature:        90.0000000
  free_energy:        11.9388936
  entropy:            40.3699052
  heat_capacity:      52.4680743
  energy:             15.5721851

- temperature:       100.0000000
  free_energy:        11.5061643
  entropy:            46.1622305
  heat_capacity:      57.4771116
  energy:             16.1223874

- temperature:       110.0000000
  free_energy:        11.0159880
  entropy:            51.8532838
  heat_capacity:      61.9237037
  energy:             16.7198492

- temperature:       120.0000000
  free_energy:        10.4695376
  entropy:            57.4130061
  heat_capacity:      65.8418309
  energy:             17.3590983

- temperature:       130.0000000
  free_energy:         9.8682314
  entropy:            62.8219609
  heat_capacity:      69.2802315
  energy:             18.0350863

- temperature:       140.0000000
  free_energy:         9.2136391
  entropy:            68.0688830
  heat_capacity:      72.2925362
  energy:             18.7432828

- temperature:       150.0000000
  free_energy:         8.5074117
  entropy:            73.1485421
  heat_capacity:      74.9315161
  energy:             19.4796930

- temperature:       160.0000000
  free_energy:         7.7512292
  entropy:            78.0600195
  heat_capacity:      77.2461042
  energy:             20.2408324

- temperature:       170.0000000
  free_energy:         6.9467652
  entropy:            82.8053838
  heat_capacity:      79.2801246
  energy:             21.0236805

- temperature:       180.0000000
  free_energy:         6.0956619
  entropy:            87.3887024
  heat_capacity:      81.0720004
  energy:             21.8256283

- temperature:       190.0000000
  free_energy:         5.1995136
  entropy:            91.8153215
  heat_capacity:      82.6549806
  energy:             22.6444247

- temperature:       200.0000000
  free_energy:         4.2598574
  entropy:            96.0913488
  heat_capacity:      84.0576096
  energy:             23.4781272

- temperature:       210.0000000
  free_energy:         3.2781669
  entropy:           100.2232881
  heat_capacity:      85.3042829
  energy:             24.3250574

- temperature:       220.0000000
  free_energy:         2.2558498
  entropy:           104.2177858
  heat_capacity:      86.4158056
  energy:             25.1837627

- temperature:       230.0000000
  free_energy:         1.1942473
  entropy:           108.0814572
  heat_capacity:      87.4099107
  energy:             26.0529825

- temperature:       240.0000000
  free_energy:         0.0946352
  entropy:           111.8207708
  heat_capacity:      88.3017220
  energy:             26.9316202

- temperature:       250.0000000
  free_energy:        -1.0417744
  entropy:           115.4419745
  heat_capacity:      89.1041556
  energy:             27.8187192

- temperature:       260.0000000
  free_energy:        -2.2138306
  entropy:           118.9510498
  heat_capacity:      89.8282633
  energy:             28.7134424

- temperature:       270.0000000
  free_energy:        -3.4204407
  entropy:           122.3536881
  heat_capacity:      90.4835238
  energy:             29.6150551

- temperature:       280.0000000
  free_energy:        -4.6605676
  entropy:           125.6552793
  heat_capacity:      91.0780872
  energy:             30.5229106

- temperature:       290.0000000
  free_energy:        -5.9332264
  entropy:           128.8609120
  heat_capacity:      91.6189802
  energy:             31.4364380

- temperature:       300.0000000
  free_energy:        -7.2374819
  entropy:           131.9753788
  heat_capacity:      92.1122785
  energy:             32.3551317

- temperature:       310.0000000
  free_energy:        -8.5724452
  entropy:           135.0031864
  heat_capacity:      92.5632500
  energy:             33.2785426

- temperature:       320.0000000
  free_energy:        -9.9372710
  entropy:           137.9485684
  heat_capacity:      92.9764758
  energy:             34.2062709

- temperature:       330.0000000
  free_energy:       -11.3311551
  entropy:           140.8154992
  heat_capacity:      93.3559512
  energy:             35.1379597

- temperature:       340.0000000
  free_energy:       -12.7533319
  entropy:           143.6077089
  heat_capacity:      93.7051701
  energy:             36.0732892

- temperature:       350.0000000
  free_energy:       -14.2030719
  entropy:           146.3286981
  heat_capacity:      94.0271968
  energy:             37.0119725

- temperature:       360.0000000
  free_energy:       -15.6796794
  entropy:           148.9817525
  heat_capacity:      94.3247262
  energy:             37.9537515

- temperature:       370.0000000
  free_energy:       -17.1824908
  entropy:           151.5699569
  heat_capacity:      94.6001341
  energy:             38.8983933

- temperature:       380.0000000
  free_energy:       -18.7108721
  entropy:           154.0962093
  heat_capacity:      94.8555214
  energy:             39.8456874

- temperature:       390.0000000
  free_energy:       -20.2642176
  entropy:           156.5632327
  heat_capacity:      95.0927495
  energy:             40.7954432

- temperature:       400.0000000
  free_energy:       -21.8419479
  entropy:           158.9735882
  heat_capacity:      95.3134727
  energy:             41.7474874

- temperature:       410.0000000
  free_energy:       -23.4435085
  entropy:           161.3296855
  heat_capacity:      95.5191638
  energy:             42.7016626

- temperature:       420.0000000
  free_energy:       -25.0683683
  entropy:           163.6337935
  heat_capacity:      95.7111378
  energy:             43.6578250

- temperature:       430.0000000
  free_energy:       -26.7160182
  entropy:           165.8880505
  heat_capacity:      95.8905711
  energy:             44.6158435

- temperature:       440.0000000
  free_energy:       -28.3859699
  entropy:           168.0944727
  heat_capacity:      96.0585182
  energy:             45.5755981

- temperature:       450.0000000
  free_energy:       -30.0777545
  entropy:           170.2549630
  heat_capacity:      96.2159268
  energy:             46.5369788

- temperature:       460.0000000
  free_energy:       -31.7909220
  entropy:           172.3713183
  heat_capacity:      96.3636500
  energy:             47.4998844

- temperature:       470.0000000
  free_energy:       -33.5250395
  entropy:           174.4452373
  heat_capacity:      96.5024572
  energy:             48.4642221

- temperature:       480.0000000
  free_energy:       -35.2796907
  entropy:           176.4783267
  heat_capacity:      96.6330440
  energy:             49.4299062

- temperature:       490.0000000
  free_energy:       -37.0544750
  entropy:           178.4721074
  heat_capacity:      96.7560400
  energy:             50.3968577

- temperature:       500.0000000
  free_energy:       -38.8490066
  entropy:           180.4280203
  heat_capacity:      96.8720166
  energy:             51.3650036

- temperature:       510.0000000
  free_energy:       -40.6629137
  entropy:           182.3474315
  heat_capacity:      96.9814927
  energy:             52.3342763

- temperature:       520.0000000
  free_energy:       -42.4958379
  entropy:           184.2316369
  heat_capacity:      97.0849406
  energy:             53.3046133

- temperature:       530.0000000
  free_energy:       -44.3474332
  entropy:           186.0818674
  heat_capacity:      97.1827911
  energy:             54.2759565

- temperature:       540.0000000
  free_energy:       -46.2173659
  entropy:           187.8992920
  heat_capacity:      97.2754373
  energy:             55.2482518

- temperature:       550.0000000
  free_energy:       -48.1053134
  entropy:           189.6850227
  heat_capacity:      97.3632388
  energy:             56.2214491

- temperature:       560.0000000
  free_energy:       -50.0109642
  entropy:           191.4401174
  heat_capacity:      97.4465249
  energy:             57.1955015

- temperature:       570.0000000
  free_energy:       -51.9340170
  entropy:           193.1655834
  heat_capacity:      97.5255976
  energy:             58.1703655

- temperature:       580.0000000
  free_energy:       -53.8741803
  entropy:           194.8623805
  heat_capacity:      97.6007344
  energy:             59.1460004

- temperature:       590.0000000
  free_energy:       -55.8311721
  entropy:           196.5314239
  heat_capacity:      97.6721902
  energy:             60.1223680

- temperature:       600.0000000
  free_energy:       -57.8047192
  entropy:           198.1735865
  heat_capacity:      97.7402001
  energy:             61.0994327

- temperature:       610.0000000
  free_energy:       -59.7945570
  entropy:           199.7897020
  heat_capacity:      97.8049805
  energy:             62.0771612

- temperature:       620.0000000
  free_energy:       -61.8004291
  entropy:           201.3805666
  heat_capacity:      97.8667315
  energy:             63.0555222

- temperature:       630.0000000
  free_energy:       -63.8220867
  entropy:           202.9469414
  heat_capacity:      97.9256378
  energy:             64.0344863

- temperature:       640.0000000
  free_energy:       -65.8592887
  entropy:           204.4895543
  heat_capacity:      97.9818705
  energy:             65.0140260

- temperature:       650.0000000
  free_energy:       -67.9118009
  entropy:           206.0091020
  heat_capacity:      98.0355881
  energy:             65.9941154

- temperature:       660.0000000
  free_energy:       -69.9793961
  entropy:           207.5062515
  heat_capacity:      98.0869373
  energy:             66.9747299

- temperature:       670.0000000
  free_energy:       -72.0618534
  entropy:           208.9816420
  heat_capacity:      98.1360548
  energy:             67.9558467

- temperature:       680.0000000
  free_energy:       -74.1589584
  entropy:           210.4358860
  heat_capacity:      98.1830672
  energy:             68.9374440

- temperature:       690.0000000
  free_energy:       -76.2705026
  entropy:           211.8695711
  heat_capacity:      98.2280926
  energy:             69.9195014

- temperature:       700.0000000
  free_energy:       -78.3962832
  entropy:           213.2832612
  heat_capacity:      98.2712408
  energy:             70.9019996

- temperature:       710.0000000
  free_energy:       -80.5361030
  entropy:           214.6774976
  heat_capacity:      98.3126141
  energy:             71.8849203

- temperature:       720.0000000
  free_energy:       -82.6897701
  entropy:           216.0528005
  heat_capacity:      98.3523083
  energy:             72.8682463

- temperature:       730.0000000
  free_energy:       -84.8570976
  entropy:           217.4096695
  heat_capacity:      98.3904124
  energy:             73.8519612

- temperature:       740.0000000
  free_energy:       -87.0379036
  entropy:           218.7485853
  heat_capacity:      98.4270099
  energy:             74.8360495

- temperature:       750.0000000
  free_energy:       -89.2320110
  entropy:           220.0700101
  heat_capacity:      98.4621789
  energy:             75.8204966

- temperature:       760.0000000
  free_energy:       -91.4392470
  entropy:           221.3743889
  heat_capacity:      98.4959925
  energy:             76.8052886

- temperature:       770.0000000
  free_energy:       -93.6594434
  entropy:           222.6621500
  heat_capacity:      98.5285190
  energy:             77.7904122

- temperature:       780.0000000
  free_energy:       -95.8924360
  entropy:           223.9337062
  heat_capacity:      98.5598228
  energy:             78.7758549

- temperature:       790.0000000
  free_energy:       -98.1380648
  entropy:           225.1894551
  heat_capacity:      98.5899641
  energy:             79.7616048

- temperature:       800.0000000
  free_energy:      -100.3961737
  entropy:           226.4297802
  heat_capacity:      98.6189996
  energy:             80.7476505

- temperature:       810.0000000
  free_energy:      -102.6666102
  entropy:           227.6550512
  heat_capacity:      98.6469824
  energy:             81.7339812

- temperature:       820.0000000
  free_energy:      -104.9492257
  entropy:           228.8656250
  heat_capacity:      98.6739628
  energy:             82.7205868

- temperature:       830.0000000
  free_energy:      -107.2438749
  entropy:           230.0618460
  heat_capacity:      98.6999877
  energy:             83.7074573

- temperature:       840.0000000
  free_energy:      -109.5504159
  entropy:           231.2440469
  heat_capacity:      98.7251018
  energy:             84.6945835

- temperature:       850.0000000
  free_energy:      -111.8687102
  entropy:           232.4125489
  heat_capacity:      98.7493467
  energy:             85.6819564

- temperature:       860.0000000
  free_energy:      -114.1986223
  entropy:           233.5676627
  heat_capacity:      98.7727622
  energy:             86.6695677

- temperature:       870.0000000
  free_energy:      -116.5400198
  entropy:           234.7096883
  heat_capacity:      98.7953853
  energy:             87.6574090

- temperature:       880.0000000
  free_energy:      -118.8927734
  entropy:           235.8389161
  heat_capacity:      98.8172514
  energy:             88.6454728

- temperature:       890.0000000
  free_energy:      -121.2567564
  entropy:           236.9556270
  heat_capacity:      98.8383938
  energy:             89.6337517

- temperature:       900.0000000
  free_energy:      -123.6318451
  entropy:           238.0600928
  heat_capacity:      98.8588439
  energy:             90.6222384

- temperature:       910.0000000
  free_energy:      -126.0179183
  entropy:           239.1525765
  heat_capacity:      98.8786316
  energy:             91.6109263

- temperature:       920.0000000
  free_energy:      -128.4148575
  entropy:           240.2333331
  heat_capacity:      98.8977850
  energy:             92.5998089

- temperature:       930.0000000
  free_energy:      -130.8225467
  entropy:           241.3026094
  heat_capacity:      98.9163310
  energy:             93.5888800

- temperature:       940.0000000
  free_energy:      -133.2408722
  entropy:           242.3606445
  heat_capacity:      98.9342949
  energy:             94.5781336

- temperature:       950.0000000
  free_energy:      -135.6697229
  entropy:           243.4076705
  heat_capacity:      98.9517006
  energy:             95.5675640

- temperature:       960.0000000
  free_energy:      -138.1089897
  entropy:           244.4439120
  heat_capacity:      98.9685711
  energy:             96.5571658

- temperature:       970.0000000
  free_energy:      -140.5585659
  entropy:           245.4695873
  heat_capacity:      98.9849280
  energy:             97.5469338

- temperature:       980.0000000
  free_energy:      -143.0183469
  entropy:           246.4849079
  heat_capacity:      99.0007919
  energy:             98.5368628

- temperature:       990.0000000
  free_energy:      -145.4882302
  entropy:           247.4900791
  heat_capacity:      99.0161824
  energy:             99.5269480

- temperature:      1000.0000000
  free_energy:      -147.9681153
  entropy:           248.4853002
  heat_capacity:      99.0311180
  energy:            100.5171849
