# Thermal properties / unit cell (natom)

unit:
  temperature:   K
  free_energy:   kJ/mol
  entropy:       J/K/mol
  heat_capacity: J/K/mol

natom: 18   
cutoff_frequency: 0.00000
num_modes: 182250
num_integrated_modes: 182004

zero_point_energy:      47.4264826

thermal_properties:
- temperature:         0.0000000
  free_energy:        47.4264826
  entropy:             0.0000000
  heat_capacity:       0.0000000
  energy:             47.4264826

- temperature:        10.0000000
  free_energy:        47.4165664
  entropy:             3.3135439
  heat_capacity:       7.7473834
  energy:             47.4497018

- temperature:        20.0000000
  free_energy:        47.3283404
  entropy:            15.9740986
  heat_capacity:      35.0630745
  energy:             47.6478224

- temperature:        30.0000000
  free_energy:        47.0666657
  entropy:            37.6567940
  heat_capacity:      75.8921186
  energy:             48.1963695

- temperature:        40.0000000
  free_energy:        46.5546315
  entropy:            65.5310968
  heat_capacity:     120.0014730
  energy:             49.1758754

- temperature:        50.0000000
  free_energy:        45.7444472
  entropy:            96.9146525
  heat_capacity:     162.3315326
  energy:             50.5901798

- temperature:        60.0000000
  free_energy:        44.6108169
  entropy:           129.9754596
  heat_capacity:     200.7543236
  energy:             52.4093444

- temperature:        70.0000000
  free_energy:        43.1433859
  entropy:           163.5159135
  heat_capacity:     234.4716661
  energy:             54.5894999

- temperature:        80.0000000
  free_energy:        41.3414936
  entropy:           196.7675170
  heat_capacity:     263.4374011
  energy:             57.0828949

- temperature:        90.0000000
  free_energy:        39.2106027
  entropy:           229.2555540
  heat_capacity:     288.0149873
  energy:             59.8436025

- temperature:       100.0000000
  free_energy:        36.7598589
  entropy:           260.7050197
  heat_capacity:     308.7432875
  energy:             62.8303609

- temperature:       110.0000000
  free_energy:        34.0004476
  entropy:           290.9736751
  heat_capacity:     326.1952496
  energy:             66.0075519

- temperature:       120.0000000
  free_energy:        30.9445151
  entropy:           320.0051714
  heat_capacity:     340.9058330
  energy:             69.3451357

- temperature:       130.0000000
  free_energy:        27.6044797
  entropy:           347.7970668
  heat_capacity:     353.3428966
  energy:             72.8180984

- temperature:       140.0000000
  free_energy:        23.9926073
  entropy:           374.3795104
  heat_capacity:     363.9012131
  energy:             76.4057387

- temperature:       150.0000000
  free_energy:        20.1207594
  entropy:           399.8013057
  heat_capacity:     372.9073238
  energy:             80.0909553

- temperature:       160.0000000
  free_energy:        16.0002554
  entropy:           424.1209510
  heat_capacity:     380.6284951
  energy:             83.8596076

- temperature:       170.0000000
  free_energy:        11.6418058
  entropy:           447.4009787
  heat_capacity:     387.2824287
  energy:             87.6999722

- temperature:       180.0000000
  free_energy:         7.0554908
  entropy:           469.7044550
  heat_capacity:     393.0462457
  energy:             91.6022927

- temperature:       190.0000000
  free_energy:         2.2507666
  entropy:           491.0928806
  heat_capacity:     398.0642175
  energy:             95.5584139

- temperature:       200.0000000
  free_energy:        -2.7635128
  entropy:           511.6249941
  heat_capacity:     402.4541709
  energy:             99.5614860

- temperature:       210.0000000
  free_energy:        -7.9790639
  entropy:           531.3561504
  heat_capacity:     406.3126824
  energy:            103.6057277

- temperature:       220.0000000
  free_energy:       -13.3881387
  entropy:           550.3380610
  heat_capacity:     409.7192432
  energy:            107.6862347

- temperature:       230.0000000
  free_energy:       -18.9834881
  entropy:           568.6187587
  heat_capacity:     412.7395787
  energy:            111.7988264

- temperature:       240.0000000
  free_energy:       -24.7583251
  entropy:           586.2426955
  heat_capacity:     415.4282881
  energy:            115.9399218

- temperature:       250.0000000
  free_energy:       -30.7062900
  entropy:           603.2509178
  heat_capacity:     417.8309445
  energy:            120.1064394

- temperature:       260.0000000
  free_energy:       -36.8214176
  entropy:           619.6812802
  heat_capacity:     419.9857673
  energy:            124.2957153

- temperature:       270.0000000
  free_energy:       -43.0981060
  entropy:           635.5686762
  heat_capacity:     421.9249587
  energy:            128.5054366

- temperature:       280.0000000
  free_energy:       -49.5310887
  entropy:           650.9452703
  heat_capacity:     423.6757750
  energy:            132.7335870

- temperature:       290.0000000
  free_energy:       -56.1154079
  entropy:           665.8407229
  heat_capacity:     425.2613884
  energy:            136.9784018

- temperature:       300.0000000
  free_energy:       -62.8463908
  entropy:           680.2824039
  heat_capacity:     426.7015837
  energy:            141.2383304

- temperature:       310.0000000
  free_energy:       -69.7196278
  entropy:           694.2955915
  heat_capacity:     428.0133232
  energy:            145.5120055

- temperature:       320.0000000
  free_energy:       -76.7309524
  entropy:           707.9036560
  heat_capacity:     429.2112076
  energy:            149.7982175

- temperature:       330.0000000
  free_energy:       -83.8764228
  entropy:           721.1282280
  heat_capacity:     430.3078528
  energy:            154.0958924

- temperature:       340.0000000
  free_energy:       -91.1523056
  entropy:           733.9893511
  heat_capacity:     431.3141999
  energy:            158.4040737

- temperature:       350.0000000
  free_energy:       -98.5550605
  entropy:           746.5056222
  heat_capacity:     432.2397712
  energy:            162.7219073

- temperature:       360.0000000
  free_energy:      -106.0813263
  entropy:           758.6943168
  heat_capacity:     433.0928819
  energy:            167.0486277

- temperature:       370.0000000
  free_energy:      -113.7279086
  entropy:           770.5715036
  heat_capacity:     433.8808173
  energy:            171.3835478

- temperature:       380.0000000
  free_energy:      -121.4917680
  entropy:           782.1521481
  heat_capacity:     434.6099799
  energy:            175.7260483

- temperature:       390.0000000
  free_energy:      -129.3700097
  entropy:           793.4502052
  heat_capacity:     435.2860133
  energy:            180.0755703

- temperature:       400.0000000
  free_energy:      -137.3598737
  entropy:           804.4787045
  heat_capacity:     435.9139066
  energy:            184.4316081

- temperature:       410.0000000
  free_energy:      -145.4587260
  entropy:           815.2498262
  heat_capacity:     436.4980824
  energy:            188.7937028

- temperature:       420.0000000
  free_energy:      -153.6640504
  entropy:           825.7749704
  heat_capacity:     437.0424713
  energy:            193.1614372

- temperature:       430.0000000
  free_energy:      -161.9734411
  entropy:           836.0648196
  heat_capacity:     437.5505760
  energy:            197.5344313

- temperature:       440.0000000
  free_energy:      -170.3845959
  entropy:           846.1293958
  heat_capacity:     438.0255250
  energy:            201.9123382

- temperature:       450.0000000
  free_energy:      -178.8953096
  entropy:           855.9781116
  heat_capacity:     438.4701197
  energy:            206.2948407

- temperature:       460.0000000
  free_energy:      -187.5034682
  entropy:           865.6198174
  heat_capacity:     438.8868737
  energy:            210.6816478

- temperature:       470.0000000
  free_energy:      -196.2070437
  entropy:           875.0628438
  heat_capacity:     439.2780478
  energy:            215.0724929

- temperature:       480.0000000
  free_energy:      -205.0040890
  entropy:           884.3150403
  heat_capacity:     439.6456795
  energy:            219.4671304

- temperature:       490.0000000
  free_energy:      -213.8927331
  entropy:           893.3838108
  heat_capacity:     439.9916084
  energy:            223.8653342

- temperature:       500.0000000
  free_energy:      -222.8711771
  entropy:           902.2761458
  heat_capacity:     440.3174995
  energy:            228.2668957

- temperature:       510.0000000
  free_energy:      -231.9376900
  entropy:           910.9986517
  heat_capacity:     440.6248617
  energy:            232.6716224

- temperature:       520.0000000
  free_energy:      -241.0906049
  entropy:           919.5575783
  heat_capacity:     440.9150656
  energy:            237.0793358

- temperature:       530.0000000
  free_energy:      -250.3283160
  entropy:           927.9588429
  heat_capacity:     441.1893579
  energy:            241.4898707

- temperature:       540.0000000
  free_energy:      -259.6492750
  entropy:           936.2080531
  heat_capacity:     441.4488748
  energy:            245.9030737

- temperature:       550.0000000
  free_energy:      -269.0519880
  entropy:           944.3105280
  heat_capacity:     441.6946535
  energy:            250.3188024

- temperature:       560.0000000
  free_energy:      -278.5350133
  entropy:           952.2713169
  heat_capacity:     441.9276419
  energy:            254.7369242

- temperature:       570.0000000
  free_energy:      -288.0969581
  entropy:           960.0952168
  heat_capacity:     442.1487083
  energy:            259.1573155

- temperature:       580.0000000
  free_energy:      -297.7364766
  entropy:           967.7867893
  heat_capacity:     442.3586486
  energy:            263.5798612

- temperature:       590.0000000
  free_energy:      -307.4522673
  entropy:           975.3503748
  heat_capacity:     442.5581939
  energy:            268.0044538

- temperature:       600.0000000
  free_energy:      -317.2430712
  entropy:           982.7901066
  heat_capacity:     442.7480163
  energy:            272.4309927

- temperature:       610.0000000
  free_energy:      -327.1076697
  entropy:           990.1099238
  heat_capacity:     442.9287347
  energy:            276.8593838

- temperature:       620.0000000
  free_energy:      -337.0448825
  entropy:           997.3135831
  heat_capacity:     443.1009200
  energy:            281.2895390

- temperature:       630.0000000
  free_energy:      -347.0535661
  entropy:          1004.4046693
  heat_capacity:     443.2650988
  energy:            285.7213755

- temperature:       640.0000000
  free_energy:      -357.1326121
  entropy:          1011.3866062
  heat_capacity:     443.4217581
  energy:            290.1548159

- temperature:       650.0000000
  free_energy:      -367.2809454
  entropy:          1018.2626654
  heat_capacity:     443.5713485
  energy:            294.5897871

- temperature:       660.0000000
  free_energy:      -377.4975229
  entropy:          1025.0359752
  heat_capacity:     443.7142876
  energy:            299.0262207

- temperature:       670.0000000
  free_energy:      -387.7813324
  entropy:          1031.7095289
  heat_capacity:     443.8509624
  energy:            303.4640520

- temperature:       680.0000000
  free_energy:      -398.1313905
  entropy:          1038.2861924
  heat_capacity:     443.9817326
  energy:            307.9032203

- temperature:       690.0000000
  free_energy:      -408.5467424
  entropy:          1044.7687109
  heat_capacity:     444.1069324
  energy:            312.3436681

- temperature:       700.0000000
  free_energy:      -419.0264597
  entropy:          1051.1597159
  heat_capacity:     444.2268727
  energy:            316.7853414

- temperature:       710.0000000
  free_energy:      -429.5696401
  entropy:          1057.4617311
  heat_capacity:     444.3418431
  energy:            321.2281890

- temperature:       720.0000000
  free_energy:      -440.1754058
  entropy:          1063.6771783
  heat_capacity:     444.4521137
  energy:            325.6721626

- temperature:       730.0000000
  free_energy:      -450.8429029
  entropy:          1069.8083826
  heat_capacity:     444.5579363
  energy:            330.1172164

- temperature:       740.0000000
  free_energy:      -461.5713001
  entropy:          1075.8575775
  heat_capacity:     444.6595465
  energy:            334.5633073

- temperature:       750.0000000
  free_energy:      -472.3597882
  entropy:          1081.8269097
  heat_capacity:     444.7571642
  energy:            339.0103941

- temperature:       760.0000000
  free_energy:      -483.2075790
  entropy:          1087.7184433
  heat_capacity:     444.8509954
  energy:            343.4584379

- temperature:       770.0000000
  free_energy:      -494.1139044
  entropy:          1093.5341641
  heat_capacity:     444.9412328
  energy:            347.9074020

- temperature:       780.0000000
  free_energy:      -505.0780159
  entropy:          1099.2759835
  heat_capacity:     445.0280572
  energy:            352.3572512

- temperature:       790.0000000
  free_energy:      -516.0991839
  entropy:          1104.9457420
  heat_capacity:     445.1116381
  energy:            356.8079523

- temperature:       800.0000000
  free_energy:      -527.1766965
  entropy:          1110.5452127
  heat_capacity:     445.1921348
  energy:            361.2594737

- temperature:       810.0000000
  free_energy:      -538.3098595
  entropy:          1116.0761046
  heat_capacity:     445.2696968
  energy:            365.7117852

- temperature:       820.0000000
  free_energy:      -549.4979955
  entropy:          1121.5400656
  heat_capacity:     445.3444647
  energy:            370.1648583

- temperature:       830.0000000
  free_energy:      -560.7404430
  entropy:          1126.9386852
  heat_capacity:     445.4165707
  energy:            374.6186657

- temperature:       840.0000000
  free_energy:      -572.0365565
  entropy:          1132.2734973
  heat_capacity:     445.4861396
  energy:            379.0731813

- temperature:       850.0000000
  free_energy:      -583.3857052
  entropy:          1137.5459831
  heat_capacity:     445.5532887
  energy:            383.5283804

- temperature:       860.0000000
  free_energy:      -594.7872732
  entropy:          1142.7575727
  heat_capacity:     445.6181286
  energy:            387.9842394

- temperature:       870.0000000
  free_energy:      -606.2406583
  entropy:          1147.9096482
  heat_capacity:     445.6807640
  energy:            392.4407356

- temperature:       880.0000000
  free_energy:      -617.7452722
  entropy:          1153.0035453
  heat_capacity:     445.7412933
  energy:            396.8978476

- temperature:       890.0000000
  free_energy:      -629.3005396
  entropy:          1158.0405555
  heat_capacity:     445.7998098
  energy:            401.3555548

- temperature:       900.0000000
  free_energy:      -640.9058979
  entropy:          1163.0219281
  heat_capacity:     445.8564015
  energy:            405.8138374

- temperature:       910.0000000
  free_energy:      -652.5607967
  entropy:          1167.9488719
  heat_capacity:     445.9111519
  energy:            410.2726767

- temperature:       920.0000000
  free_energy:      -664.2646978
  entropy:          1172.8225569
  heat_capacity:     445.9641398
  energy:            414.7320546

- temperature:       930.0000000
  free_energy:      -676.0170741
  entropy:          1177.6441161
  heat_capacity:     446.0154398
  energy:            419.1919538

- temperature:       940.0000000
  free_energy:      -687.8174100
  entropy:          1182.4146468
  heat_capacity:     446.0651229
  energy:            423.6523580

- temperature:       950.0000000
  free_energy:      -699.6652005
  entropy:          1187.1352122
  heat_capacity:     446.1132561
  energy:            428.1132511

- temperature:       960.0000000
  free_energy:      -711.5599511
  entropy:          1191.8068430
  heat_capacity:     446.1599031
  energy:            432.5746181

- temperature:       970.0000000
  free_energy:      -723.5011776
  entropy:          1196.4305382
  heat_capacity:     446.2051244
  energy:            437.0364444

- temperature:       980.0000000
  free_energy:      -735.4884054
  entropy:          1201.0072667
  heat_capacity:     446.2489775
  energy:            441.4987161

- temperature:       990.0000000
  free_energy:      -747.5211695
  entropy:          1205.5379688
  heat_capacity:     446.2915168
  energy:            445.9614196

- temperature:      1000.0000000
  free_energy:      -759.5990144
  entropy:          1210.0235565
  heat_capacity:     446.3327943
  energy:            450.4245422
