20
Lattice="6.004101610295398 -0.048949358888679156 -0.11741475121811809 -1.6511298767131646 6.524989496904899 -1.2770318419688718 -0.03141082017392062 0.025740338093540257 9.792960806142643" Properties=species:S:1:pos:R:3:forces:R:3 structure_index=0 total_energy=-58.531959533691406 stress="0.005767502821981907 -0.0009786328300833702 -0.0014825168764218688 -0.0009785674046725035 0.012726935558021069 0.004421780817210674 -0.0014826197875663638 0.004421977326273918 0.014864395372569561" pbc="T T T"
Li       0.89053968       2.82165079       3.93179282      -0.00703436      -0.01715193       0.01405972
Li      -0.64537823       3.98658865       1.74350153       0.00712144       0.01151786       0.00850494
Li       5.38406770       1.35276013       6.04526064      -0.01438275       0.01033587       0.01922877
Li       3.82315936      -0.00503548       8.27299849      -0.00617552      -0.01142965       0.00145601
Li       3.84825981       6.44070930       2.07607062      -0.00652467       0.00518805       0.02227812
Li       0.83167930       5.19028450      -0.54973536       0.01887013      -0.00700448      -0.00911874
Li       3.81182159       3.93757022       6.53066843      -0.00462719      -0.00566941       0.01412519
Li       0.87491557       0.03355984       8.27569578      -0.00743325      -0.00031309      -0.00148986
Li       2.28472949       2.65317543       8.64904929      -0.00326106       0.01116068      -0.02724207
Li       0.81083331       6.53414664       2.18242198       0.02204206       0.01272012      -0.02156086
Li       3.84835018       2.70735203       3.81832310      -0.00271037       0.01487012       0.00235144
Ga      -0.63711597       5.22088756       4.42519034      -0.01690135      -0.01215235      -0.00253857
Ga       0.69119530       4.05055062       6.55658023      -0.01880794      -0.02096519       0.01034268
Ga       2.28726081       4.03998018       1.66908437      -0.00218495      -0.00073560       0.00915505
Sn       5.32619273       2.55541970       8.67370294       0.00615669       0.01670276      -0.00547955
Sn       3.86160976       1.36572964       1.25467718       0.01120862       0.01142451       0.00181060
Sn       2.31462190       1.41812263       5.99734234      -0.01486880      -0.00235618      -0.01131285
Sn       2.45527290       5.23840641       4.30805807       0.02174734      -0.03220803      -0.01799977
Sn       0.92363921       1.37107272       1.30629458      -0.01284032       0.00132608      -0.00997620
Sn       3.79199257       5.14171586      -0.60602674       0.03060620       0.01473983       0.00340594
4
Lattice="4.0630967680941446 -0.0019525982707717235 0.0033794569277289166 0.0019801074035052375 4.062183878664344 0.0022584411320961005 -0.0030045149320954835 -0.0020096482717874503 4.430653155580196" Properties=species:S:1:pos:R:3:forces:R:3 structure_index=1 total_energy=-11.800199508666992 stress="0.09153386950492859 0.0002711373090278357 0.0022412436082959175 0.0002712587302085012 0.08702617883682251 0.0014844988472759724 0.0022412552498281 0.0014843408716842532 -0.0634516105055809" pbc="T T T"
Li       3.16335831       3.15988196       3.31851350       0.00022937       0.00027200      -0.00066924
Li       1.13127889       1.12986930       3.31568995      -0.00074743       0.00023277      -0.00065778
Ga       3.16399578       1.12990326       1.10207949      -0.00094170       0.00095498      -0.00007110
Sn       1.13307910       3.16230697       1.10102877       0.00145977      -0.00145976       0.00139812
14
Lattice="6.571427067366221 0.09640347591450692 -1.7627103620198372 -4.021116489964487 5.615309451222049 -2.0799330891749457 -0.04466588971522526 0.010441541853141086 7.285408276904799" Properties=species:S:1:pos:R:3:forces:R:3 structure_index=2 total_energy=-40.246864318847656 stress="0.01660914532840252 -0.0001545296545373276 -0.004428945481777191 -0.0001545950653962791 0.019480688497424126 0.00017612155352253467 -0.004428785294294357 0.00017612596275284886 0.013292500749230385" pbc="T T T"
Li       0.42273581       0.41382147       1.79658367       0.00723277      -0.00498922       0.02148339
Li       1.91877129       4.49222952       0.27612333      -0.01378620       0.00412226      -0.01903713
Li       4.29673532       0.39177228       4.81729505      -0.00872171       0.01060698       0.00060466
Li       0.47147968       4.04697386      -2.37776142      -0.00988525       0.00697012       0.00116770
Ga       2.60334980       4.49379295       3.09296100      -0.01456949       0.03520661       0.00734922
Ga       2.33150232       0.37807557      -0.42343202      -0.00580323       0.01030401      -0.02825405
Ga       0.10598560       2.11969379      -0.38851282      -0.00185355       0.00939222       0.02362332
Ga       2.78816849       2.15549623       1.46033663       0.03837275      -0.02778773       0.00711425
Ga       0.33056480       3.25340010       2.14524477       0.02668983      -0.02029558       0.02181416
Ga      -0.83528191       4.99789981       0.07101887       0.01600715      -0.00984743      -0.01302423
Ga       1.81207500       1.23063024       3.98682180      -0.01644948       0.02039723       0.02410599
Ga      -2.02371259       4.17531966       2.84603583      -0.02758341      -0.01613947      -0.03762560
Sn      -1.06774373       1.59602653       4.24175859      -0.00855506      -0.01574301       0.02338567
Sn       3.46866874       3.09834329      -1.72268212       0.01890492      -0.00219700      -0.03270730
4
Lattice="3.8818283892650034 0.001244566203837334 -1.650479309640335 -0.7035620862823745 3.8160566155607096 -1.6499353273357615 -0.0028097744677961075 -0.0052380305172974335 5.374858445421964" Properties=species:S:1:pos:R:3:forces:R:3 structure_index=3 total_energy=-12.122035026550293 stress="-0.06676772236824036 0.006320310290902853 0.01678355410695076 0.006320275366306305 -0.06379082798957825 0.023290561512112617 0.016783304512500763 0.023290272802114487 -0.03400176763534546" pbc="T T T"
Li       1.29417853       1.48917791       0.68431138      -0.00010080      -0.00212486      -0.00046323
Ga       2.43704521       0.53171108       3.37145618       0.00512379       0.00196500       0.00285526
Ga       0.14776937       2.43947247       3.37164474      -0.00183035       0.00104542       0.00328395
Sn       2.88411857       3.39761357      -0.96422482      -0.00319265      -0.00088557      -0.00567596
5
Lattice="4.352202959799066 0.0010343217891690298 -0.0003268861988930914 -2.177277491640174 4.387273817045249 -1.4613206834757912 -0.0010251996826083595 0.058881823393748194 5.891071704858752" Properties=species:S:1:pos:R:3:forces:R:3 structure_index=4 total_energy=-15.4163818359375 stress="0.03344438970088959 -4.5500473788706586e-05 -0.0006147336680442095 -4.5369604777079076e-05 0.05763682350516319 0.0350375659763813 -0.0006145783700048923 0.03503743186593056 -0.0552530400454998" pbc="T T T"
Li       3.54801916       1.64366045       3.69731137       0.00096791      -0.03147152       0.03820363
Li       1.37327082       3.15411153      -0.74448311      -0.00056289      -0.00726152       0.00279901
Ga       1.37389703       0.30258623       2.19231515      -0.00056952       0.04589461      -0.01578220
Sn       1.37251615       0.18000025       5.06182481       0.00067862      -0.01398434      -0.03557783
Sn      -0.80249551       1.78845241       0.82061657      -0.00051412       0.00682275       0.01035738
9
Lattice="4.507447779889042 0.0011075990683549644 1.4118003121245128 2.303033159317477 5.1419089365494415 0.5473670401246601 0.14110304508876548 0.12465267539386865 7.448037640705808" Properties=species:S:1:pos:R:3:forces:R:3 structure_index=5 total_energy=-26.86121940612793 stress="-0.010071312077343464 0.0012359031243249774 0.0009254623437300324 0.0012358770472928882 -0.035242654383182526 -0.00394934369251132 0.0009254587930627167 -0.003949514124542475 -0.009768601506948471" pbc="T T T"
Li       4.50527692       4.25004158       7.20308959       0.00907964       0.02489607      -0.02831618
Li       5.18182101       2.45340157       5.03855357       0.00130490       0.00190768       0.00205343
Li       1.35378681       0.65986895       1.46477745      -0.00918343      -0.02732111       0.02622608
Ga       2.84405712       4.55356570       4.60599573      -0.00312471       0.04056928       0.00394582
Ga       3.01441570       0.35501398       4.06105290       0.00335029      -0.04539448      -0.00511714
Ga       4.36274966       0.93710419       7.65930923       0.00404386      -0.00632269      -0.00350145
Ga       6.00330948       3.97428978       2.41658526      -0.00082502       0.00318255       0.01043808
Sn       3.52063194       2.64420975       2.44400249      -0.00100929      -0.01945259      -0.00148175
Sn       2.33823463       2.26338085       6.22372097      -0.00363625       0.02793529      -0.00424690
9
Lattice="4.197299845266703 0.005941179336441254 1.0224404577250166 1.7953663389956365 4.462602268068753 1.7298055411673392 -0.02172054391332108 -0.1690315582192632 9.21590669045879" Properties=species:S:1:pos:R:3:forces:R:3 structure_index=6 total_energy=-26.928499221801758 stress="-0.000378902826923877 0.0016957385232672095 -0.004691863898187876 0.0016957790357992053 0.03874242678284645 -0.015279635787010193 -0.004691851790994406 -0.015279808081686497 0.019539527595043182" pbc="T T T"
Li       4.14034921       3.64500598       2.26616473       0.00161001       0.00604408      -0.00756079
Li       5.13982135       2.61174610       7.29306735       0.00196173       0.01555672      -0.00804415
Li       1.93895306       1.68702091       2.18863287      -0.00423333       0.00660874       0.01532501
Li       2.94544974       0.57695301       7.18588867      -0.00207533      -0.00031368       0.01256403
Li       5.73091385       4.22312376       4.85874938      -0.00044200      -0.00974379       0.00146686
Ga       1.33030959       0.16515354       4.69321768       0.00391717       0.00050335      -0.01650008
Sn       2.53389347       3.02837591       8.86253247       0.00379627       0.00369010      -0.01334566
Sn       4.51950643       0.99797442       9.85130450      -0.00419475       0.01148706       0.01163896
Sn       3.53576520       2.20197806       4.75386972      -0.00033977      -0.03383259       0.00445583
7
Lattice="2.91607586076555 0.00035795924006853654 -0.4085499392787947 -0.12933202145844913 4.384857655121324 -0.9203066806237807 0.023269377870023106 -0.0010528015450954513 10.85711211345961" Properties=species:S:1:pos:R:3:forces:R:3 structure_index=7 total_energy=-20.89878273010254 stress="-0.052934374660253525 0.0005545794847421348 0.011480818502604961 0.0005546230240724981 0.022351430729031563 -0.00013963290257379413 0.011481046676635742 -0.00013965036487206817 0.025517242029309273" pbc="T T T"
Li       2.20871627       3.79406907       3.82113820       0.00516842       0.00600154       0.02848200
Li       0.37665333       3.20726485       1.29634284       0.00086150       0.00126574      -0.00781638
Li       2.72995796       0.02304230       7.55937747       0.00132129      -0.00089821       0.00865161
Ga       0.66066783       1.35886671       3.36782562      -0.00003375       0.00757052       0.02504431
Ga       1.01616033       1.92133797       5.93806180      -0.00145329      -0.00531978      -0.01466629
Sn       1.41445464       2.53034509       8.78170364      -0.00000680      -0.00142721      -0.00475234
Sn       1.73657996       0.76474513       0.37820385      -0.00585735      -0.00719261      -0.03494294
4
Lattice="4.256557692583335 -0.00030881596443737934 2.458912451198075 1.4179155339501068 4.012717977903638 2.4597943806642455 -0.0007048312701092051 -0.0003146340879985108 4.916274267579001" Properties=species:S:1:pos:R:3:forces:R:3 structure_index=8 total_energy=-11.844104766845703 stress="0.03324482589960098 0.002801286056637764 0.006078143138438463 0.0028014900162816048 0.025660116225481033 0.0013369426596909761 0.0060782176442444324 0.001336830435320735 0.0304667130112648" pbc="T T T"
Li       1.59833085       2.33944279       5.54559133      -0.00136886      -0.00079236      -0.00049462
Ga       3.01600922       3.34258601       8.00369434       0.00020489      -0.00066092       0.00017362
Ga       3.01714416       0.33232566       3.08585303      -0.00079619       0.00046515       0.00187803
Sn       4.43486284       1.33506265       5.54572724       0.00196017       0.00098811      -0.00155702
4
Lattice="4.035010337829589 0.0 2.327447652816773 1.3442584470824668 3.8047098344695263 2.3279459476470947 0.0 0.0 4.6592183113098145" Properties=species:S:1:pos:R:3:forces:R:3 structure_index=9 total_energy=-11.746513366699219 stress="0.10580741614103317 -0.0009499411098659039 -0.012792128138244152 -0.0009499536245130002 0.1107681468129158 -0.008811227045953274 -0.012792193330824375 -0.008811266161501408 0.10408704727888107" pbc="T T T"
Li       3.61016325       1.47526762       5.27527395       0.00166044       0.00158794       0.00128574
Li       2.26573115       3.37791792       2.94620069      -0.00035771       0.00114460       0.00167183
Ga       2.26686061       0.52484942       2.94820807      -0.00204565      -0.00088657      -0.00263319
Sn       0.92033424       2.42731012       5.27693650       0.00074293      -0.00184597      -0.00032437
5
Lattice="4.538347199059432 0.0005612190417078486 2.160885017338283 1.7459428931927605 4.185588023411911 2.161397855308644 -0.014039963708129932 -0.004015093906096767 5.837853362720656" Properties=species:S:1:pos:R:3:forces:R:3 structure_index=10 total_energy=-15.73044490814209 stress="0.020202618092298508 0.0034183142706751823 0.007569275330752134 0.0034183894749730825 0.03506377339363098 0.0012503202306106687 0.007569320499897003 0.0012503659818321466 0.03695853427052498" pbc="T T T"
Li       4.38070707       3.96335758       5.22809776       0.00127090       0.00061304      -0.00181622
Ga       3.82058433       0.56863761       6.40346737       0.01076734       0.00751683      -0.02365934
Ga       3.18317963       3.16836387       7.72716158      -0.01172620      -0.00755685       0.02504020
Sn       5.11502731       1.42961535       3.70798899       0.01353430       0.00902417      -0.03926428
Sn       1.90242783       2.31232272       4.58413810      -0.01384633      -0.00959721       0.03969965
6
Lattice="4.531745605591501 0.011533193878154756 -0.003979790181645646 -2.2712879362570146 3.9213335451978595 -0.003926712787333117 0.009195187796715637 0.012920129959628261 7.326157473524367" Properties=species:S:1:pos:R:3:forces:R:3 structure_index=11 total_energy=-18.394451141357422 stress="-0.03871068358421326 0.00033430629991926253 0.002592789940536022 0.00033423976856283844 -0.0377318449318409 0.002504190895706415 0.0025926765520125628 0.0025043219793587923 0.01507625076919794" pbc="T T T"
Li       2.20624399       1.58639360       5.66889159       0.00059305      -0.00006613      -0.00297563
Li       2.19403954       1.58304592       2.00526089       0.00112405       0.00039216       0.00092650
Ga      -0.06474716       0.26974095       3.33465194      -0.00268883       0.00080855       0.03426498
Ga      -0.06823472       0.26531322       0.71193283      -0.00192095      -0.00016153      -0.04773167
Sn      -0.06647618       2.88860398       4.16547493       0.00182699      -0.00079728      -0.00608585
Sn      -0.06238209       2.89416914       7.18908763       0.00106569      -0.00017577       0.02160164
4
Lattice="4.117578983306885 0.0 2.3743579387664795 1.3697971767150818 3.88275163888342 2.3753056526184078 0.0 0.0 4.75466775894165" Properties=species:S:1:pos:R:3:forces:R:3 structure_index=12 total_energy=-11.497615814208984 stress="0.06460919231176376 0.001375385094434023 -0.005148790311068296 0.0013757647247985005 0.04311138764023781 -0.0070638470351696014 -0.005148266442120075 -0.007064289413392544 0.03996025025844574" pbc="T T T"
Li       0.34690251       0.28778730       4.46421953      -0.00123391      -0.00123075      -0.00316798
Li       4.46224016       3.19951788       6.83757507      -0.00083448       0.00090442      -0.00083477
Ga       3.08890824       2.23037546       4.46036794       0.00299471      -0.00427045      -0.00031600
Sn       1.71783683       1.25773625       2.08314069      -0.00092630       0.00459676       0.00431872
12
Lattice="4.633638773726984 -0.00030358028596222457 -2.6491105131969785e-05 0.0002162377738282025 6.411073622118295 0.005888863697306945 0.003302855759030381 -0.009792613119257354 8.608711113603228" Properties=species:S:1:pos:R:3:forces:R:3 structure_index=13 total_energy=-36.82015609741211 stress="-0.0017260395688936114 1.3379345773500972e-06 -5.5667584092589095e-05 1.3735262882619281e-06 0.012179694138467312 -0.00023817738110665232 -5.568760388996452e-05 -0.00023789262922946364 -0.0031478730961680412" pbc="T T T"
Li       1.10660475       0.40556869       4.71246459      -0.00011252       0.00572665      -0.00822686
Li       3.42377696       0.41938376       8.10085858       0.00000645      -0.00661742       0.00824493
Li       1.10473240       3.60764811       3.79455820       0.00008777       0.01114988       0.01276727
Li       3.42103464       3.63678698       0.41651690       0.00002574      -0.01060622      -0.01320728
Ga       1.10473179       5.41527862       1.32797954       0.00017018      -0.03397692      -0.00782301
Ga       3.42091294       1.82873087       2.88299236       0.00016579       0.03540625       0.00591418
Ga       1.10672231       2.21075733       7.18809632       0.00017621      -0.03733070       0.00381934
Ga       3.42390366       5.02535517       5.63095641       0.00016719       0.03600124      -0.00289049
Sn       3.42173179       5.43630022       2.87306691      -0.00016000      -0.02952167      -0.01339961
Sn       3.42346899       2.22123195       5.64430373      -0.00018340      -0.02438398       0.00774864
Sn       1.10402864       1.80853070       1.33735611      -0.00013217       0.02815677       0.01408861
Sn       1.10722089       5.01418233       7.17485560      -0.00021122       0.02599619      -0.00703574
4
Lattice="4.030134266311829 0.0008253801311869949 2.3254223467623203 1.3405974110182473 3.800572969878352 2.327168323346585 0.0007569033321815685 0.0004869386028639268 4.654599779654539" Properties=species:S:1:pos:R:3:forces:R:3 structure_index=14 total_energy=-11.74661922454834 stress="0.027663657441735268 -0.0044446648098528385 -0.004385547712445259 -0.004444784019142389 0.031459990888834 -0.0022244129795581102 -0.004385542590171099 -0.0022243193816393614 0.019946379587054253" pbc="T T T"
Li       4.42692789       3.69298724       6.38840135       0.00136752       0.00039930       0.00108379
Li       1.74298493       1.79358645       6.39021018      -0.00136536      -0.00225706      -0.00104034
Ga       0.39910963       0.84235741       4.06224239       0.00105238       0.00019821       0.00168857
Sn       3.08486140       2.74243946       4.06248202      -0.00105453       0.00165955      -0.00173201
12
Lattice="4.127739834865883 -0.0011396304293483173 -0.0004115144248914323 0.001707120444638781 6.562276063756504 -0.003731080889585111 0.0009342192364643082 0.0044207793017674215 9.068869588693325" Properties=species:S:1:pos:R:3:forces:R:3 structure_index=15 total_energy=-36.97134780883789 stress="-0.005993557628244162 -0.00015214817540254444 8.523646101821214e-05 -0.00015211300342343748 0.017811307683587074 -0.0003508079389575869 8.528627222403884e-05 -0.00035089359153062105 -0.008773256093263626" pbc="T T T"
Li       2.73470645       1.20678367       1.05175751      -0.00016663       0.03571318       0.01673202
Li       0.67220168       2.96506776       2.66285178      -0.00100795      -0.03626258      -0.01546889
Li       2.73529402       4.49070586       7.19697107       0.00070250       0.03534321      -0.01595032
Li       0.67236181       6.24619991       5.58332718       0.00000661      -0.03522842       0.01721218
Ga       0.67251329       6.16017567       2.53246737      -0.00037193       0.02334159       0.02409454
Ga       0.67147595       2.87849995       5.71602109       0.00008654       0.02610198      -0.02610702
Ga       2.73470376       1.29233070       7.06914099       0.00056492      -0.02394211       0.02325762
Ga       2.73551161       4.57228020       1.18051353      -0.00005850      -0.02432800      -0.02532019
Sn       2.73523334       1.26000590       4.05523345      -0.00006264       0.00148955       0.03060899
Sn       0.67164140       2.91406615       8.72711879       0.00004749      -0.00133399      -0.02642548
Sn       2.73595047       4.53995777       4.19417337       0.00015102       0.00511976      -0.03195970
Sn       0.67238960       6.19582665       8.58855473       0.00010858      -0.00601418       0.02932625
18
Lattice="6.759378768134965 0.027416817641138645 -1.3510985958207313 -1.2409755192654335 6.629199778357943 -3.255047135339692 -0.08006367667540654 -0.033815769626594626 6.771097984760546" Properties=species:S:1:pos:R:3:forces:R:3 structure_index=16 total_energy=-48.94334030151367 stress="-0.00895643699914217 -0.0004374102863948792 -0.004590868018567562 -0.00043734314385801554 -0.00411618035286665 -0.006218545138835907 -0.004590931348502636 -0.006218553055077791 -0.011946018785238266" pbc="T T T"
Li       5.93152354       1.94915000       1.34646036       0.01577632      -0.01622860      -0.00974055
Li      -0.39928462       4.19453538       4.46915002       0.01235484      -0.00290266      -0.00694924
Li       4.47631365       4.56621375      -1.43551934      -0.00203376      -0.00516679      -0.00728061
Li       1.94854658       2.37050822       1.68913424      -0.02024639       0.00269639       0.00493122
Li       4.10211377       2.33607563       3.50705396      -0.00243542       0.00266482      -0.01908544
Li       1.91518920       4.20099696      -0.49742015       0.01111465       0.01035710       0.00081619
Li       2.21110019       6.34915520       1.31889791       0.01423777       0.01028719       0.01376606
Li       4.48181678       6.35712020      -3.66060329       0.01947540      -0.01205143       0.00168167
Li       6.10085443       0.03764762       3.55377233      -0.02213699      -0.00903807       0.00217498
Li       1.53808219       1.96962200       4.59469600       0.02136920       0.01819856       0.00652488
Li      -0.01182265       4.51502401       1.70381864      -0.01266719      -0.01051960       0.00065231
Ga       1.70034172       0.06083681      -0.12460856      -0.02090765       0.00490803       0.03297929
Ga       3.74713263       2.00598211      -0.36665151       0.00137350      -0.00777683       0.00656853
Ga       3.93064542       0.10653248       1.70496598      -0.02936093       0.01113624       0.00610012
Ga       4.04763038       4.15875362       1.37891453       0.00349595      -0.01131643      -0.00902599
Ga       2.26873610       4.51091161       3.43798549      -0.00542815       0.02319814       0.00392858
Sn      -0.32892400       2.29076789      -0.16398398      -0.01314248      -0.01235094       0.00164394
Sn      -0.01842724       6.44223258      -0.44498983       0.02916132       0.00390489      -0.02968595
4
Lattice="4.283544648014387 -0.006983159553782805 0.016619296043477276 0.02555749032405407 4.284254976526255 0.013022537147898226 -0.008709625758248437 -0.006808561014305942 4.352391648000213" Properties=species:S:1:pos:R:3:forces:R:3 structure_index=17 total_energy=-12.15854263305664 stress="0.06496647745370865 0.054534491151571274 0.04084033891558647 0.05453452840447426 0.06999844312667847 0.03166055306792259 0.04084017127752304 0.031660500913858414 0.03203631564974785" pbc="T T T"
Li       3.87888357       2.58037565       2.69831071      -0.00000438      -0.00094162       0.00069415
Ga       1.74124845       2.58690211       0.51380632       0.00044758      -0.00041751       0.00060652
Ga       3.87067512       0.44106207       0.51685711      -0.00041151       0.00056339      -0.00247993
Sn       1.72445915       0.44126309       2.68378482      -0.00003171       0.00079572       0.00117926
8
Lattice="5.004174910750023 0.006670042801365462 -2.332205541460408 -2.365911755477158 5.333483716744556 -1.608024561291172 -0.2706615599945163 0.0016641759289772677 5.514561463569204" Properties=species:S:1:pos:R:3:forces:R:3 structure_index=18 total_energy=-23.585996627807617 stress="0.02855624444782734 0.003807046916335821 0.0036341778468340635 0.0038068806752562523 -0.0005435291095636785 -0.006433506030589342 0.003634149208664894 -0.006433472502976656 0.025714382529258728" pbc="T T T"
Li      -1.48096596       4.88963515       1.42375057       0.00710062       0.00498221      -0.00804485
Li       2.21275215       3.36574647       1.04306467      -0.00755112      -0.00544834       0.00796562
Li       1.15400265       4.89063737      -2.50006263       0.00665625       0.00824204      -0.01185652
Li      -0.15196220       3.36286163      -0.54760794      -0.00614482      -0.00842520       0.01182764
Ga       3.43793954       0.63284483       1.78682354       0.00467705       0.00088226      -0.01077472
Ga      -0.34045863       2.28868278       2.28799976      -0.00467835      -0.00049941       0.01100050
Sn       2.37645408       2.28068042      -1.75253836       0.01338600       0.02980733      -0.02062817
Sn       0.99169274       0.63932833       0.31283548      -0.01344562      -0.02954087       0.02051050
20
Lattice="5.541936373972862 -0.005723523169181484 -0.7318140169676796 -0.028880223592797145 6.488473644569737 -0.06333900583485956 -0.29673030987221355 -0.13190230158906302 13.107238567551798" Properties=species:S:1:pos:R:3:forces:R:3 structure_index=19 total_energy=-65.2100830078125 stress="-0.009059752337634563 0.0002237590670119971 0.00212084106169641 0.00022387340140994638 -0.010740390047430992 0.0010888318065553904 0.002120902528986335 0.0010886741802096367 -0.010418381541967392" pbc="T T T"
Li       2.20137015       5.40444836       0.88846577       0.01190607       0.00401589      -0.00910664
Li       3.38108494       2.05627032      11.25671247      -0.01615180      -0.00413238       0.01506343
Li       0.03794400       3.72025345       6.43567582       0.00061597       0.00858867      -0.00429803
Ga       4.91004003       3.71306990       0.57175274      -0.00852577      -0.02501478      -0.01451422
Ga       2.30630684       0.48099027       8.89789038       0.02115990       0.00279584       0.02615798
Ga       3.50123144       3.77463444       3.32190755       0.00574917       0.00760227      -0.00317594
Ga       4.86629013       2.11473394       8.43009865      -0.01379263       0.02734718      -0.00129050
Ga       4.96418315       5.27944137       8.39723573       0.00422952      -0.03792972       0.00054020
Ga       5.07279233       0.61555416       0.57518718       0.01920687       0.02654271      -0.00032194
Ga       0.61599649       2.12329041       3.75824291      -0.01069149      -0.01180232       0.01569453
Sn       3.52274472       0.47588132       3.28938472       0.01828910      -0.01994992      -0.00616091
Sn       3.35908697       5.35939199      11.35226011       0.00995805       0.00183600       0.01679601
Sn       2.13657020       3.63750373       8.86033121       0.01514468      -0.00101805      -0.00228027
Sn       2.83785185       2.18719681       5.93304028      -0.01024256       0.02333050      -0.03893643
Sn       0.51100461       3.68130670      11.68392572      -0.00198815      -0.00059429       0.00183852
Sn       2.22544566       2.23511830       1.01804584      -0.00473697      -0.00865896       0.01340864
Sn       0.56956783       0.49882438      11.49841954      -0.02571944       0.00881907      -0.03495277
Sn       0.16886062       0.52459185       6.68305128       0.00351669       0.00738391       0.05022864
Sn       0.65746292       5.21831449       3.56612879      -0.01150843      -0.01595157      -0.04273270
Sn       2.87455375       5.32095130       6.17135956      -0.00641879       0.00678992       0.01804242
10
Lattice="3.301248799528826 -0.0005739835041156661 0.000342327003508544 0.001019557861884641 3.301244792683822 -0.0003850739826154046 -0.0023783229801023916 0.002503812277909249 19.7923393813369" Properties=species:S:1:pos:R:3:forces:R:3 structure_index=20 total_energy=-32.11487579345703 stress="0.03424209728837013 0.0006188025581650436 -0.00016864968347363174 0.0006188690313138068 0.034193139523267746 0.00018830112821888179 -0.00016860151663422585 0.00018830172484740615 0.009263338521122932" pbc="T T T"
Li       2.81229631       1.70760514      17.00208181       0.00003755       0.00017313       0.00718492
Li       2.81418119       1.70576190       0.95354607       0.00007315      -0.00004569       0.00461160
Li       2.81361864       1.70662012       8.49559475       0.00000046      -0.00001391      -0.00735825
Li       2.81406970       1.70602458       4.75769385      -0.00011864       0.00013935      -0.00634967
Ga       2.81375921       1.70747823      12.74802154      -0.00021635      -0.00005089       0.00026360
Sn       1.16155699       0.05721011      14.96581484       0.00006959      -0.00005839      -0.01362036
Sn       1.16094229       0.05762869      18.85738939      -0.00003356      -0.00004618       0.03129056
Sn       1.16290819       0.05563129       2.85617595       0.00012312      -0.00010633      -0.00123291
Sn       1.16219224       0.05665160      10.52991683       0.00015524      -0.00002348       0.01550268
Sn       1.16276098       0.05597422       6.64271339      -0.00009056       0.00003238      -0.03029216
8