phonopy:
  version: "2.37.1"
  frequency_unit_conversion_factor: 15.633302
  symmetry_tolerance: 1.00000e-05

space_group:
  type: "P4/mmm"
  number: 123
  Hall_symbol: "-P 4 2"

primitive_matrix:
- [  1.000000000000000, -0.000000000000000,  0.000000000000000 ]
- [  0.000000000000000,  1.000000000000000, -0.000000000000000 ]
- [  0.000000000000000,  0.000000000000000,  1.000000000000000 ]

supercell_matrix:
- [   4,   0,   0 ]
- [   0,   4,   0 ]
- [   0,   0,   3 ]

primitive_cell:
  lattice:
  - [     3.199107563290524,     0.000000000000000,     0.000000000000000 ] # a
  - [     0.000000044071296,     3.199107106260326,     0.000000000000000 ] # b
  - [     0.000000033901689,     0.000000075960734,     4.110228172066173 ] # c
  points:
  - symbol: Li # 1
    coordinates: [  0.999999989748168,  0.999999995357486,  0.999999993902211 ]
    mass: 6.940000
  - symbol: Sn # 2
    coordinates: [  0.500000010277192,  0.500000004473157,  0.500000006132651 ]
    mass: 118.710000
  reciprocal_lattice: # without 2pi
  - [     0.312587176334710,    -0.000000004306240,    -0.000000002578259 ] # a*
  - [     0.000000000000000,     0.312587220991477,    -0.000000005776895 ] # b*
  - [     0.000000000000000,     0.000000000000000,     0.243295495563038 ] # c*

unit_cell:
  lattice:
  - [     3.199107563290524,     0.000000000000000,     0.000000000000000 ] # a
  - [     0.000000044071296,     3.199107106260326,     0.000000000000000 ] # b
  - [     0.000000033901689,     0.000000075960734,     4.110228172066173 ] # c
  points:
  - symbol: Li # 1
    coordinates: [  0.999999989748168,  0.999999995357486,  0.999999993902211 ]
    mass: 6.940000
    reduced_to: 1
  - symbol: Sn # 2
    coordinates: [  0.500000010277192,  0.500000004473157,  0.500000006132651 ]
    mass: 118.710000
    reduced_to: 2

supercell:
  lattice:
  - [    12.796430253162095,     0.000000000000000,     0.000000000000000 ] # a
  - [     0.000000176285186,    12.796428425041302,     0.000000000000000 ] # b
  - [     0.000000101705067,     0.000000227882203,    12.330684516198520 ] # c
  points:
  - symbol: Li # 1
    coordinates: [  0.249999997437042,  0.249999998839371,  0.333333331300737 ]
    mass: 6.940000
    reduced_to: 1
  - symbol: Li # 2
    coordinates: [  0.499999997437042,  0.249999998839371,  0.333333331300737 ]
    mass: 6.940000
    reduced_to: 1
  - symbol: Li # 3
    coordinates: [  0.749999997437042,  0.249999998839371,  0.333333331300737 ]
    mass: 6.940000
    reduced_to: 1
  - symbol: Li # 4
    coordinates: [  0.999999997437042,  0.249999998839371,  0.333333331300737 ]
    mass: 6.940000
    reduced_to: 1
  - symbol: Li # 5
    coordinates: [  0.249999997437042,  0.499999998839371,  0.333333331300737 ]
    mass: 6.940000
    reduced_to: 1
  - symbol: Li # 6
    coordinates: [  0.499999997437042,  0.499999998839371,  0.333333331300737 ]
    mass: 6.940000
    reduced_to: 1
  - symbol: Li # 7
    coordinates: [  0.749999997437042,  0.499999998839371,  0.333333331300737 ]
    mass: 6.940000
    reduced_to: 1
  - symbol: Li # 8
    coordinates: [  0.999999997437042,  0.499999998839371,  0.333333331300737 ]
    mass: 6.940000
    reduced_to: 1
  - symbol: Li # 9
    coordinates: [  0.249999997437042,  0.749999998839372,  0.333333331300737 ]
    mass: 6.940000
    reduced_to: 1
  - symbol: Li # 10
    coordinates: [  0.499999997437042,  0.749999998839372,  0.333333331300737 ]
    mass: 6.940000
    reduced_to: 1
  - symbol: Li # 11
    coordinates: [  0.749999997437042,  0.749999998839372,  0.333333331300737 ]
    mass: 6.940000
    reduced_to: 1
  - symbol: Li # 12
    coordinates: [  0.999999997437042,  0.749999998839372,  0.333333331300737 ]
    mass: 6.940000
    reduced_to: 1
  - symbol: Li # 13
    coordinates: [  0.249999997437042,  0.999999998839372,  0.333333331300737 ]
    mass: 6.940000
    reduced_to: 1
  - symbol: Li # 14
    coordinates: [  0.499999997437042,  0.999999998839372,  0.333333331300737 ]
    mass: 6.940000
    reduced_to: 1
  - symbol: Li # 15
    coordinates: [  0.749999997437042,  0.999999998839372,  0.333333331300737 ]
    mass: 6.940000
    reduced_to: 1
  - symbol: Li # 16
    coordinates: [  0.999999997437042,  0.999999998839372,  0.333333331300737 ]
    mass: 6.940000
    reduced_to: 1
  - symbol: Li # 17
    coordinates: [  0.249999997437042,  0.249999998839371,  0.666666664634070 ]
    mass: 6.940000
    reduced_to: 1
  - symbol: Li # 18
    coordinates: [  0.499999997437042,  0.249999998839371,  0.666666664634070 ]
    mass: 6.940000
    reduced_to: 1
  - symbol: Li # 19
    coordinates: [  0.749999997437042,  0.249999998839371,  0.666666664634070 ]
    mass: 6.940000
    reduced_to: 1
  - symbol: Li # 20
    coordinates: [  0.999999997437042,  0.249999998839371,  0.666666664634070 ]
    mass: 6.940000
    reduced_to: 1
  - symbol: Li # 21
    coordinates: [  0.249999997437042,  0.499999998839371,  0.666666664634070 ]
    mass: 6.940000
    reduced_to: 1
  - symbol: Li # 22
    coordinates: [  0.499999997437042,  0.499999998839371,  0.666666664634070 ]
    mass: 6.940000
    reduced_to: 1
  - symbol: Li # 23
    coordinates: [  0.749999997437042,  0.499999998839371,  0.666666664634070 ]
    mass: 6.940000
    reduced_to: 1
  - symbol: Li # 24
    coordinates: [  0.999999997437042,  0.499999998839371,  0.666666664634070 ]
    mass: 6.940000
    reduced_to: 1
  - symbol: Li # 25
    coordinates: [  0.249999997437042,  0.749999998839372,  0.666666664634070 ]
    mass: 6.940000
    reduced_to: 1
  - symbol: Li # 26
    coordinates: [  0.499999997437042,  0.749999998839372,  0.666666664634070 ]
    mass: 6.940000
    reduced_to: 1
  - symbol: Li # 27
    coordinates: [  0.749999997437042,  0.749999998839372,  0.666666664634070 ]
    mass: 6.940000
    reduced_to: 1
  - symbol: Li # 28
    coordinates: [  0.999999997437042,  0.749999998839372,  0.666666664634070 ]
    mass: 6.940000
    reduced_to: 1
  - symbol: Li # 29
    coordinates: [  0.249999997437042,  0.999999998839372,  0.666666664634070 ]
    mass: 6.940000
    reduced_to: 1
  - symbol: Li # 30
    coordinates: [  0.499999997437042,  0.999999998839372,  0.666666664634070 ]
    mass: 6.940000
    reduced_to: 1
  - symbol: Li # 31
    coordinates: [  0.749999997437042,  0.999999998839372,  0.666666664634070 ]
    mass: 6.940000
    reduced_to: 1
  - symbol: Li # 32
    coordinates: [  0.999999997437042,  0.999999998839372,  0.666666664634070 ]
    mass: 6.940000
    reduced_to: 1
  - symbol: Li # 33
    coordinates: [  0.249999997437042,  0.249999998839371,  0.999999997967403 ]
    mass: 6.940000
    reduced_to: 1
  - symbol: Li # 34
    coordinates: [  0.499999997437042,  0.249999998839371,  0.999999997967403 ]
    mass: 6.940000
    reduced_to: 1
  - symbol: Li # 35
    coordinates: [  0.749999997437042,  0.249999998839371,  0.999999997967403 ]
    mass: 6.940000
    reduced_to: 1
  - symbol: Li # 36
    coordinates: [  0.999999997437042,  0.249999998839371,  0.999999997967403 ]
    mass: 6.940000
    reduced_to: 1
  - symbol: Li # 37
    coordinates: [  0.249999997437042,  0.499999998839371,  0.999999997967403 ]
    mass: 6.940000
    reduced_to: 1
  - symbol: Li # 38
    coordinates: [  0.499999997437042,  0.499999998839371,  0.999999997967403 ]
    mass: 6.940000
    reduced_to: 1
  - symbol: Li # 39
    coordinates: [  0.749999997437042,  0.499999998839371,  0.999999997967403 ]
    mass: 6.940000
    reduced_to: 1
  - symbol: Li # 40
    coordinates: [  0.999999997437042,  0.499999998839371,  0.999999997967403 ]
    mass: 6.940000
    reduced_to: 1
  - symbol: Li # 41
    coordinates: [  0.249999997437042,  0.749999998839372,  0.999999997967403 ]
    mass: 6.940000
    reduced_to: 1
  - symbol: Li # 42
    coordinates: [  0.499999997437042,  0.749999998839372,  0.999999997967403 ]
    mass: 6.940000
    reduced_to: 1
  - symbol: Li # 43
    coordinates: [  0.749999997437042,  0.749999998839372,  0.999999997967403 ]
    mass: 6.940000
    reduced_to: 1
  - symbol: Li # 44
    coordinates: [  0.999999997437042,  0.749999998839372,  0.999999997967403 ]
    mass: 6.940000
    reduced_to: 1
  - symbol: Li # 45
    coordinates: [  0.249999997437042,  0.999999998839372,  0.999999997967403 ]
    mass: 6.940000
    reduced_to: 1
  - symbol: Li # 46
    coordinates: [  0.499999997437042,  0.999999998839372,  0.999999997967403 ]
    mass: 6.940000
    reduced_to: 1
  - symbol: Li # 47
    coordinates: [  0.749999997437042,  0.999999998839372,  0.999999997967403 ]
    mass: 6.940000
    reduced_to: 1
  - symbol: Li # 48
    coordinates: [  0.999999997437042,  0.999999998839372,  0.999999997967403 ]
    mass: 6.940000
    reduced_to: 1
  - symbol: Sn # 49
    coordinates: [  0.125000002569298,  0.125000001118289,  0.166666668710884 ]
    mass: 118.710000
    reduced_to: 49
  - symbol: Sn # 50
    coordinates: [  0.375000002569298,  0.125000001118289,  0.166666668710884 ]
    mass: 118.710000
    reduced_to: 49
  - symbol: Sn # 51
    coordinates: [  0.625000002569298,  0.125000001118289,  0.166666668710884 ]
    mass: 118.710000
    reduced_to: 49
  - symbol: Sn # 52
    coordinates: [  0.875000002569298,  0.125000001118289,  0.166666668710884 ]
    mass: 118.710000
    reduced_to: 49
  - symbol: Sn # 53
    coordinates: [  0.125000002569298,  0.375000001118289,  0.166666668710884 ]
    mass: 118.710000
    reduced_to: 49
  - symbol: Sn # 54
    coordinates: [  0.375000002569298,  0.375000001118289,  0.166666668710884 ]
    mass: 118.710000
    reduced_to: 49
  - symbol: Sn # 55
    coordinates: [  0.625000002569298,  0.375000001118289,  0.166666668710884 ]
    mass: 118.710000
    reduced_to: 49
  - symbol: Sn # 56
    coordinates: [  0.875000002569298,  0.375000001118289,  0.166666668710884 ]
    mass: 118.710000
    reduced_to: 49
  - symbol: Sn # 57
    coordinates: [  0.125000002569298,  0.625000001118289,  0.166666668710884 ]
    mass: 118.710000
    reduced_to: 49
  - symbol: Sn # 58
    coordinates: [  0.375000002569298,  0.625000001118289,  0.166666668710884 ]
    mass: 118.710000
    reduced_to: 49
  - symbol: Sn # 59
    coordinates: [  0.625000002569298,  0.625000001118289,  0.166666668710884 ]
    mass: 118.710000
    reduced_to: 49
  - symbol: Sn # 60
    coordinates: [  0.875000002569298,  0.625000001118289,  0.166666668710884 ]
    mass: 118.710000
    reduced_to: 49
  - symbol: Sn # 61
    coordinates: [  0.125000002569298,  0.875000001118289,  0.166666668710884 ]
    mass: 118.710000
    reduced_to: 49
  - symbol: Sn # 62
    coordinates: [  0.375000002569298,  0.875000001118289,  0.166666668710884 ]
    mass: 118.710000
    reduced_to: 49
  - symbol: Sn # 63
    coordinates: [  0.625000002569298,  0.875000001118289,  0.166666668710884 ]
    mass: 118.710000
    reduced_to: 49
  - symbol: Sn # 64
    coordinates: [  0.875000002569298,  0.875000001118289,  0.166666668710884 ]
    mass: 118.710000
    reduced_to: 49
  - symbol: Sn # 65
    coordinates: [  0.125000002569298,  0.125000001118289,  0.500000002044217 ]
    mass: 118.710000
    reduced_to: 49
  - symbol: Sn # 66
    coordinates: [  0.375000002569298,  0.125000001118289,  0.500000002044217 ]
    mass: 118.710000
    reduced_to: 49
  - symbol: Sn # 67
    coordinates: [  0.625000002569298,  0.125000001118289,  0.500000002044217 ]
    mass: 118.710000
    reduced_to: 49
  - symbol: Sn # 68
    coordinates: [  0.875000002569298,  0.125000001118289,  0.500000002044217 ]
    mass: 118.710000
    reduced_to: 49
  - symbol: Sn # 69
    coordinates: [  0.125000002569298,  0.375000001118289,  0.500000002044217 ]
    mass: 118.710000
    reduced_to: 49
  - symbol: Sn # 70
    coordinates: [  0.375000002569298,  0.375000001118289,  0.500000002044217 ]
    mass: 118.710000
    reduced_to: 49
  - symbol: Sn # 71
    coordinates: [  0.625000002569298,  0.375000001118289,  0.500000002044217 ]
    mass: 118.710000
    reduced_to: 49
  - symbol: Sn # 72
    coordinates: [  0.875000002569298,  0.375000001118289,  0.500000002044217 ]
    mass: 118.710000
    reduced_to: 49
  - symbol: Sn # 73
    coordinates: [  0.125000002569298,  0.625000001118289,  0.500000002044217 ]
    mass: 118.710000
    reduced_to: 49
  - symbol: Sn # 74
    coordinates: [  0.375000002569298,  0.625000001118289,  0.500000002044217 ]
    mass: 118.710000
    reduced_to: 49
  - symbol: Sn # 75
    coordinates: [  0.625000002569298,  0.625000001118289,  0.500000002044217 ]
    mass: 118.710000
    reduced_to: 49
  - symbol: Sn # 76
    coordinates: [  0.875000002569298,  0.625000001118289,  0.500000002044217 ]
    mass: 118.710000
    reduced_to: 49
  - symbol: Sn # 77
    coordinates: [  0.125000002569298,  0.875000001118289,  0.500000002044217 ]
    mass: 118.710000
    reduced_to: 49
  - symbol: Sn # 78
    coordinates: [  0.375000002569298,  0.875000001118289,  0.500000002044217 ]
    mass: 118.710000
    reduced_to: 49
  - symbol: Sn # 79
    coordinates: [  0.625000002569298,  0.875000001118289,  0.500000002044217 ]
    mass: 118.710000
    reduced_to: 49
  - symbol: Sn # 80
    coordinates: [  0.875000002569298,  0.875000001118289,  0.500000002044217 ]
    mass: 118.710000
    reduced_to: 49
  - symbol: Sn # 81
    coordinates: [  0.125000002569298,  0.125000001118289,  0.833333335377550 ]
    mass: 118.710000
    reduced_to: 49
  - symbol: Sn # 82
    coordinates: [  0.375000002569298,  0.125000001118289,  0.833333335377550 ]
    mass: 118.710000
    reduced_to: 49
  - symbol: Sn # 83
    coordinates: [  0.625000002569298,  0.125000001118289,  0.833333335377550 ]
    mass: 118.710000
    reduced_to: 49
  - symbol: Sn # 84
    coordinates: [  0.875000002569298,  0.125000001118289,  0.833333335377550 ]
    mass: 118.710000
    reduced_to: 49
  - symbol: Sn # 85
    coordinates: [  0.125000002569298,  0.375000001118289,  0.833333335377550 ]
    mass: 118.710000
    reduced_to: 49
  - symbol: Sn # 86
    coordinates: [  0.375000002569298,  0.375000001118289,  0.833333335377550 ]
    mass: 118.710000
    reduced_to: 49
  - symbol: Sn # 87
    coordinates: [  0.625000002569298,  0.375000001118289,  0.833333335377550 ]
    mass: 118.710000
    reduced_to: 49
  - symbol: Sn # 88
    coordinates: [  0.875000002569298,  0.375000001118289,  0.833333335377550 ]
    mass: 118.710000
    reduced_to: 49
  - symbol: Sn # 89
    coordinates: [  0.125000002569298,  0.625000001118289,  0.833333335377550 ]
    mass: 118.710000
    reduced_to: 49
  - symbol: Sn # 90
    coordinates: [  0.375000002569298,  0.625000001118289,  0.833333335377550 ]
    mass: 118.710000
    reduced_to: 49
  - symbol: Sn # 91
    coordinates: [  0.625000002569298,  0.625000001118289,  0.833333335377550 ]
    mass: 118.710000
    reduced_to: 49
  - symbol: Sn # 92
    coordinates: [  0.875000002569298,  0.625000001118289,  0.833333335377550 ]
    mass: 118.710000
    reduced_to: 49
  - symbol: Sn # 93
    coordinates: [  0.125000002569298,  0.875000001118289,  0.833333335377550 ]
    mass: 118.710000
    reduced_to: 49
  - symbol: Sn # 94
    coordinates: [  0.375000002569298,  0.875000001118289,  0.833333335377550 ]
    mass: 118.710000
    reduced_to: 49
  - symbol: Sn # 95
    coordinates: [  0.625000002569298,  0.875000001118289,  0.833333335377550 ]
    mass: 118.710000
    reduced_to: 49
  - symbol: Sn # 96
    coordinates: [  0.875000002569298,  0.875000001118289,  0.833333335377550 ]
    mass: 118.710000
    reduced_to: 49

displacements:
- atom:    1
  displacement:
    [   0.0072008973159318,  0.0000000001282355,  0.0069388095409376 ]
  forces:
  - [  -0.0090189259499311,  0.0000011375232134, -0.0155346672981977 ]
  - [   0.0013682669959962,  0.0000005181282177, -0.0002973370137624 ]
  - [  -0.0006116209551692,  0.0000011154916137, -0.0000062959879870 ]
  - [   0.0013420718023553,  0.0000011518131942, -0.0002994071692228 ]
  - [  -0.0004338557482697, -0.0000014388933778, -0.0002970685600303 ]
  - [   0.0001655486412346,  0.0000876435078681, -0.0001070881262422 ]
  - [   0.0000126659870148, -0.0000011543743312,  0.0000115997681860 ]
  - [   0.0001623409916647, -0.0000898623839021, -0.0001066738332156 ]
  - [  -0.0000477698922623, -0.0000006409827620, -0.0000065569038270 ]
  - [   0.0000202809460461, -0.0000004912726581,  0.0000121365301311 ]
  - [  -0.0000010821968317, -0.0000013518147171,  0.0000162765354617 ]
  - [   0.0000197196495719, -0.0000007955823094,  0.0000111573172035 ]
  - [  -0.0004339859005995,  0.0000015110999811, -0.0002989405766129 ]
  - [   0.0001657921820879, -0.0000873203534866, -0.0001074128085747 ]
  - [   0.0000132438726723,  0.0000015228579286,  0.0000098666496342 ]
  - [   0.0001619817630854,  0.0000898372381926, -0.0001070983707905 ]
  - [  -0.0002071610651910,  0.0000013675194168, -0.0001441119238734 ]
  - [  -0.0000396713148803,  0.0000007854469004, -0.0001394491264364 ]
  - [  -0.0000266097486019,  0.0000009903451428,  0.0000004660105333 ]
  - [   0.0000474362459499,  0.0000008099490287, -0.0000471808016300 ]
  - [   0.0002615677367430, -0.0000465332996100, -0.0000948477681959 ]
  - [  -0.0005546347238123, -0.0005906629376113, -0.0007306104525924 ]
  - [  -0.0000114259310067,  0.0000047748908401, -0.0000049288355513 ]
  - [   0.0000784495132393, -0.0000449942890555, -0.0000697082432453 ]
  - [  -0.0000029352365800, -0.0000001809094101,  0.0000003333843779 ]
  - [   0.0000152834691107,  0.0000002179294825,  0.0000026125344448 ]
  - [  -0.0000117989256978, -0.0000001657754183, -0.0000079876190284 ]
  - [   0.0000004867033567,  0.0000002069864422, -0.0000112755515147 ]
  - [   0.0002607861533761,  0.0000462608004455, -0.0000939294695854 ]
  - [  -0.0005545271560550,  0.0005902444245294, -0.0007319405558519 ]
  - [  -0.0000106827355921, -0.0000046748609748, -0.0000042210886022 ]
  - [   0.0000786788586993,  0.0000449907965958, -0.0000692363828421 ]
  - [  -0.0002058506943285,  0.0000004675530363, -0.0001389416283928 ]
  - [   0.0000484446063638,  0.0000006343179848, -0.0000478170695715 ]
  - [  -0.0000254055485129,  0.0000005418551154, -0.0000004692410585 ]
  - [  -0.0000458862341475,  0.0000004856847227, -0.0001433818542864 ]
  - [   0.0002580407890491,  0.0000447253696620, -0.0000947468797676 ]
  - [   0.0000808495096862,  0.0000459956936538, -0.0000729421153665 ]
  - [  -0.0000107004307210, -0.0000073215924203, -0.0000047364010243 ]
  - [  -0.0005497080273926,  0.0005824624095112, -0.0007216490339488 ]
  - [  -0.0000024308378670, -0.0000001394655555, -0.0000001499865903 ]
  - [   0.0000018724240363, -0.0000004922039807, -0.0000128578831209 ]
  - [  -0.0000114850699902, -0.0000004000030458, -0.0000070393434726 ]
  - [   0.0000127926177811,  0.0000000465661287,  0.0000013700191630 ]
  - [   0.0002582008019090, -0.0000442552263848, -0.0000945425126702 ]
  - [   0.0000811535865068, -0.0000452696258435, -0.0000726686266717 ]
  - [  -0.0000106599181890,  0.0000078177545220, -0.0000043690379243 ]
  - [  -0.0005493239732459, -0.0005820083897561, -0.0007219631224871 ]
  - [   0.0030318116769195,  0.0029848867561668,  0.0044937841594219 ]
  - [  -0.0008281404152513,  0.0008678091107868,  0.0009024642640725 ]
  - [   0.0000646656844765, -0.0000327057205141, -0.0000573946163058 ]
  - [  -0.0001628159661777, -0.0000068470835686, -0.0000264309346676 ]
  - [   0.0030308887362480, -0.0029854446183890,  0.0044946353882551 ]
  - [  -0.0008272291743197, -0.0008689877577126,  0.0009017459233291 ]
  - [   0.0000649549765512,  0.0000314430799335, -0.0000573098659515 ]
  - [  -0.0001626238808967,  0.0000051446259022, -0.0000265529379249 ]
  - [  -0.0000657560303807,  0.0001570866443217, -0.0000813417136669 ]
  - [  -0.0000293538905680,  0.0000693508191034, -0.0000008138013072 ]
  - [  -0.0000150527721416, -0.0000209724530578, -0.0000060703605413 ]
  - [   0.0000688834115863, -0.0000615157186985, -0.0000159321352839 ]
  - [  -0.0000661093581584, -0.0001573066692799, -0.0000813538208604 ]
  - [  -0.0000296686775982, -0.0000690260785632, -0.0000004781759344 ]
  - [  -0.0000146805141412,  0.0000220763031393, -0.0000058179721236 ]
  - [   0.0000690072774887,  0.0000625659013167, -0.0000162227079272 ]
  - [  -0.0008192178793252, -0.0008578000124544,  0.0008728681132197 ]
  - [   0.0031302031129599, -0.0030979681760073,  0.0046238992363214 ]
  - [  -0.0001644624862820,  0.0000025741755962, -0.0000257166102529 ]
  - [   0.0000640072394162,  0.0000292975455523, -0.0000580819323659 ]
  - [  -0.0008198653813452,  0.0008559350389987,  0.0008728817338124 ]
  - [   0.0031291907653213,  0.0030973528046161,  0.0046236515045166 ]
  - [  -0.0001649893820286, -0.0000036177225411, -0.0000265177804977 ]
  - [   0.0000662394450046, -0.0000310929026455, -0.0000588512048125 ]
  - [  -0.0000306303918478, -0.0000698587391526, -0.0000030798837543 ]
  - [  -0.0000663127284497, -0.0001605870202184, -0.0000843139132485 ]
  - [   0.0000688093350618,  0.0000625071115792, -0.0000178907066584 ]
  - [  -0.0000135359587148,  0.0000217789784074, -0.0000079050660133 ]
  - [  -0.0000301580876112,  0.0000709649757482, -0.0000012153759599 ]
  - [  -0.0000660945661366,  0.0001605289289728, -0.0000828197225928 ]
  - [   0.0000677425414324, -0.0000624624663033, -0.0000166585668921 ]
  - [  -0.0000141244381666, -0.0000205052783713, -0.0000059446319938 ]
  - [  -0.0000020244624466, -0.0000172222498804,  0.0000457972055301 ]
  - [  -0.0000021096784621,  0.0000164783559740,  0.0000455041299574 ]
  - [   0.0000008137430996,  0.0000172029249370,  0.0000117151648737 ]
  - [   0.0000023846514523, -0.0000202730298042,  0.0000150663545355 ]
  - [  -0.0000025975991775,  0.0000161966308951,  0.0000452250824310 ]
  - [  -0.0000015501864254, -0.0000175097957253,  0.0000446088961326 ]
  - [   0.0000005584665814, -0.0000186278484762,  0.0000110982800834 ]
  - [   0.0000029039802030,  0.0000194285530597,  0.0000140525517054 ]
  - [  -0.0000118787866086, -0.0000082403421402,  0.0000129387481138 ]
  - [  -0.0000128059182316,  0.0000065044732764,  0.0000123917707242 ]
  - [   0.0000121025368571,  0.0000057741999626,  0.0000219393405132 ]
  - [   0.0000126200611703, -0.0000057891011238,  0.0000225640833378 ]
  - [  -0.0000112699344754,  0.0000089486129582,  0.0000124234938994 ]
  - [  -0.0000133239664137, -0.0000066123902798,  0.0000120786135085 ]
  - [   0.0000107353553176, -0.0000046985223889,  0.0000207607517950 ]
  - [   0.0000120438635349,  0.0000057781580836,  0.0000210413709283 ]
- atom:   49
  displacement:
    [   0.0072008973159318,  0.0000000001282355,  0.0069388095409376 ]
  forces:
  - [   0.0029442419763654,  0.0029195924289525,  0.0048122266307473 ]
  - [  -0.0000325948931277, -0.0000825080787763, -0.0001613538188394 ]
  - [  -0.0000642798841000,  0.0000076708092820,  0.0000762552372180 ]
  - [  -0.0006406275206245,  0.0006823097355664,  0.0006843283772469 ]
  - [  -0.0000860741856741,  0.0000277222134173, -0.0000585890375078 ]
  - [   0.0000218572095037,  0.0000131921842694,  0.0000323485583067 ]
  - [   0.0000324957072735, -0.0000265156850219, -0.0000533793208888 ]
  - [  -0.0000084807179519,  0.0000007716007531, -0.0000236199412029 ]
  - [  -0.0000859325809870, -0.0000289282761514, -0.0000595414167037 ]
  - [   0.0000222786329687, -0.0000149821862578,  0.0000331100309268 ]
  - [   0.0000325362198055,  0.0000242032110691, -0.0000543154019397 ]
  - [  -0.0000087148509920, -0.0000025900080800, -0.0000234301551245 ]
  - [   0.0029449600260705, -0.0029182783327997,  0.0048115272074938 ]
  - [  -0.0000318018719554,  0.0000847463161335, -0.0001610409672139 ]
  - [  -0.0000640430953354, -0.0000050144153647,  0.0000749220635043 ]
  - [  -0.0006416353862733, -0.0006803486030549,  0.0006842836737633 ]
  - [   0.0000001036096364, -0.0000145677877299,  0.0000471184030175 ]
  - [   0.0000013154931366,  0.0000086561485659,  0.0000144219666254 ]
  - [   0.0000012428499758, -0.0000064602936618,  0.0000145392987179 ]
  - [  -0.0000020003644750,  0.0000183455904335,  0.0000458667054772 ]
  - [  -0.0000116767623695, -0.0000196807086468,  0.0000142385397339 ]
  - [   0.0000128014944494,  0.0000051525421441,  0.0000239964574575 ]
  - [   0.0000123148784041, -0.0000073229894042,  0.0000224980612984 ]
  - [  -0.0000127867315314,  0.0000179654452950,  0.0000141375639942 ]
  - [  -0.0000121119073810,  0.0000183917582035,  0.0000141227210406 ]
  - [   0.0000135246664286, -0.0000057700090110,  0.0000235948682530 ]
  - [   0.0000131381675601,  0.0000056307762861,  0.0000223555107368 ]
  - [  -0.0000134125293698, -0.0000186588149518,  0.0000141843920574 ]
  - [  -0.0000008386559784,  0.0000167140678968,  0.0000473391264677 ]
  - [   0.0000018782448024, -0.0000075839780038,  0.0000137631723192 ]
  - [   0.0000021005980670,  0.0000092383706942,  0.0000145670783240 ]
  - [  -0.0000021525484044, -0.0000166608951986,  0.0000466732308269 ]
  - [  -0.0006396714597940, -0.0006778372335248,  0.0007099746726453 ]
  - [  -0.0000641711521894, -0.0000044336120482,  0.0000793135550339 ]
  - [  -0.0000356975942850,  0.0000848716299515, -0.0001585181598784 ]
  - [   0.0028495034202933, -0.0027965931221843,  0.0046873381361365 ]
  - [  -0.0000090706525953, -0.0000024919863790, -0.0000223415263463 ]
  - [   0.0000319136306643,  0.0000239079818130, -0.0000537745654583 ]
  - [   0.0000231279991567, -0.0000168844126165,  0.0000326933804899 ]
  - [  -0.0000876683698152, -0.0000289874151349, -0.0000593536824454 ]
  - [  -0.0000086122008724,  0.0000018244609237, -0.0000218511268031 ]
  - [   0.0000325622968376, -0.0000250455923378, -0.0000548985990463 ]
  - [   0.0000233082100749,  0.0000154525041580,  0.0000333138887072 ]
  - [  -0.0000879590224940,  0.0000283448025584, -0.0000598274054937 ]
  - [  -0.0006392959039658,  0.0006790511542931,  0.0007104098331183 ]
  - [  -0.0000637173652649,  0.0000062870676629,  0.0000785381562309 ]
  - [  -0.0000357178505510, -0.0000826790346764, -0.0001576669601491 ]
  - [   0.0028491443954408,  0.0027979935985059,  0.0046867933124304 ]
  - [  -0.0182544998824596, -0.0000016926898070, -0.0196685846894979 ]
  - [   0.0036545058246702, -0.0000015594991964,  0.0000548865064047 ]
  - [   0.0020717345178127, -0.0000020668376237,  0.0001366147771478 ]
  - [   0.0035159282851964, -0.0000014454122947,  0.0000672042369843 ]
  - [  -0.0002310064592166, -0.0000216716434807,  0.0000611366122030 ]
  - [   0.0004565158742480,  0.0007246383465827,  0.0000374247902073 ]
  - [  -0.0001835834118538,  0.0000014598481357,  0.0000211181468330 ]
  - [   0.0004429360269569, -0.0007152513135225,  0.0000380137935281 ]
  - [   0.0001755531411618, -0.0000014926772565,  0.0001366697251797 ]
  - [  -0.0000116606242955, -0.0000003078021109,  0.0000211430597119 ]
  - [  -0.0000524658644281,  0.0000001392327249,  0.0000046305358410 ]
  - [  -0.0000080134486780, -0.0000002458691597,  0.0000213906168938 ]
  - [  -0.0002305203961441,  0.0000242321402766,  0.0000608069822192 ]
  - [   0.0004548963624984, -0.0007236487581395,  0.0000371861387976 ]
  - [  -0.0001832704001572,  0.0000001353910193,  0.0000212881714106 ]
  - [   0.0004444885998964,  0.0007170580793172,  0.0000375462695956 ]
  - [   0.0002462319098413, -0.0000012728851289, -0.0001034727320075 ]
  - [   0.0001917529880302, -0.0000007848138921,  0.0002086833119392 ]
  - [  -0.0001139852683991, -0.0000020985025913, -0.0000207973644137 ]
  - [  -0.0003163266228512, -0.0000017918646336, -0.0003137113526464 ]
  - [   0.0000753846834414,  0.0002530303318053, -0.0000544678769074 ]
  - [  -0.0003293664194643, -0.0003758424427360, -0.0004254985833541 ]
  - [   0.0000455401604995,  0.0000042025931180, -0.0000116531155072 ]
  - [   0.0000716061913408, -0.0000235107727349, -0.0000095739960670 ]
  - [   0.0000072334564720, -0.0000004067551345, -0.0000215899199247 ]
  - [  -0.0000018943101168, -0.0000005362089723, -0.0000092247501016 ]
  - [   0.0000013070728073,  0.0000000232830644, -0.0000039059668779 ]
  - [  -0.0000068885274231,  0.0000008204951882, -0.0000154618173838 ]
  - [   0.0000767922028899, -0.0002524025621824, -0.0000530434772372 ]
  - [  -0.0003300739917904,  0.0003767230082303, -0.0004240227863193 ]
  - [   0.0000452231615782, -0.0000030251103453, -0.0000106068328023 ]
  - [   0.0000701267272234,  0.0000240493100137, -0.0000077802687883 ]
  - [   0.0002407249994576, -0.0000008388888091, -0.0000814125523902 ]
  - [  -0.0003128447569907, -0.0000005420879461, -0.0003145024529658 ]
  - [  -0.0001135279890150, -0.0000013436656445, -0.0000223413808271 ]
  - [   0.0001915514003485, -0.0000015366822481,  0.0002125829341821 ]
  - [   0.0000725759600755, -0.0002514042425901, -0.0000509736128151 ]
  - [   0.0000707630533725,  0.0000237196218222, -0.0000118374591693 ]
  - [   0.0000461444942630, -0.0000023632310331, -0.0000130724511109 ]
  - [  -0.0003266392741352,  0.0003742687404156, -0.0004226592136547 ]
  - [   0.0000081937760115, -0.0000006142072380, -0.0000213971361518 ]
  - [  -0.0000082009937614, -0.0000005596666597, -0.0000145829981193 ]
  - [   0.0000013937242329,  0.0000001795124263, -0.0000027066562325 ]
  - [  -0.0000015288242139, -0.0000001285225153, -0.0000069448142312 ]
  - [   0.0000750087201595,  0.0002526970347390, -0.0000512904953212 ]
  - [   0.0000700522214174, -0.0000236115301959, -0.0000117904855870 ]
  - [   0.0000444008037448,  0.0000031811068766, -0.0000123954378068 ]
  - [  -0.0003278544172645, -0.0003737509832717, -0.0004243570729159 ]

force_constants:
  format: "full"
  shape: [ 96, 96 ]
  elements:
  - # (1, 1)
    - [     1.252491907097529,     0.000000000012270,     0.000000004126093 ]
    - [     0.000000000012270,     1.252491908880539,     0.000000009055329 ]
    - [     0.000000004126093,     0.000000009055329,     2.238879092301148 ]
  - # (1, 2)
    - [    -0.188175117116546,     0.000000002437596,     0.000000000891350 ]
    - [     0.000000000859233,     0.060278675812568,    -0.000000000159372 ]
    - [     0.000000000879180,    -0.000000000215749,     0.043044363253735 ]
  - # (1, 3)
    - [     0.084956161754328,    -0.000000000856599,    -0.000000000156847 ]
    - [    -0.000000001483365,     0.006653285437551,    -0.000000000093199 ]