phonopy:
  version: "2.37.1"
  frequency_unit_conversion_factor: 15.633302
  symmetry_tolerance: 1.00000e-05

space_group:
  type: "P1"
  number: 1
  Hall_symbol: "P 1"

primitive_matrix:
- [  0.000000000000000, -1.000000000000000, -0.000000000000000 ]
- [  1.000000000000000,  0.000000000000000,  0.000000000000000 ]
- [  0.000000000000000,  0.000000000000000,  1.000000000000000 ]

supercell_matrix:
- [   3,   0,   0 ]
- [   0,   3,   0 ]
- [   0,   0,   1 ]

primitive_cell:
  lattice:
  - [     0.000001560946894,     4.367485054967732,     0.000000000000000 ] # a
  - [    -4.378787520846503,     0.000000000000000,     0.000000000000000 ] # b
  - [     0.007256384829978,    -0.003947145604399,    18.553021800394148 ] # c
  points:
  - symbol: Sn # 1
    coordinates: [  0.570685341025839,  0.199717590081658,  0.486664893874638 ]
    mass: 118.710000
  - symbol: Sn # 2
    coordinates: [  0.570922051304784,  0.198573910939578,  0.653795507805808 ]
    mass: 118.710000
  - symbol: Sn # 3
    coordinates: [  0.571008334758025,  0.198833783297256,  0.987542229721400 ]
    mass: 118.710000
  - symbol: Sn # 4
    coordinates: [  0.070737441134979,  0.699333695955123,  0.486952290617234 ]
    mass: 118.710000
  - symbol: Sn # 5
    coordinates: [  0.070659500545727,  0.699149970486394,  0.154244952333948 ]
    mass: 118.710000
  - symbol: Sn # 6
    coordinates: [  0.570784238135085,  0.199332373777171,  0.154377000622393 ]
    mass: 118.710000
  - symbol: Sn # 7
    coordinates: [  0.571434399308509,  0.198662734378796,  0.320904606120442 ]
    mass: 118.710000
  - symbol: Sn # 8
    coordinates: [  0.570934301159352,  0.199502878584114,  0.821031733951885 ]
    mass: 118.710000
  - symbol: Sn # 9
    coordinates: [  0.070667622590632,  0.698262250271216,  0.986965338282899 ]
    mass: 118.710000
  - symbol: Sn # 10
    coordinates: [  0.070926971703097,  0.698491592291204,  0.321088267220634 ]
    mass: 118.710000
  - symbol: Sn # 11
    coordinates: [  0.070403242060789,  0.699050426975412,  0.820895005176089 ]
    mass: 118.710000
  - symbol: Sn # 12
    coordinates: [  0.070642656422591,  0.698367677613978,  0.653957423330424 ]
    mass: 118.710000
  reciprocal_lattice: # without 2pi
  - [    -0.000000000000000,     0.228964721668037,     0.000048712123794 ] # a*
  - [    -0.228373721090418,     0.000000081621172,     0.000089320647886 ] # b*
  - [    -0.000000000000000,     0.000000000000000,     0.053899575538620 ] # c*

unit_cell:
  lattice:
  - [     4.378787520846503,     0.000000000000000,     0.000000000000000 ] # a
  - [     0.000001560946894,     4.367485054967732,     0.000000000000000 ] # b
  - [     0.007256384829978,    -0.003947145604399,    18.553021800394145 ] # c
  points:
  - symbol: Sn # 1
    coordinates: [  0.800282409918342,  0.570685341025839,  0.486664893874638 ]
    mass: 118.710000
    reduced_to: 1
  - symbol: Sn # 2
    coordinates: [  0.801426089060422,  0.570922051304784,  0.653795507805808 ]
    mass: 118.710000
    reduced_to: 2
  - symbol: Sn # 3
    coordinates: [  0.801166216702745,  0.571008334758025,  0.987542229721400 ]
    mass: 118.710000
    reduced_to: 3
  - symbol: Sn # 4
    coordinates: [  0.300666304044877,  0.070737441134979,  0.486952290617234 ]
    mass: 118.710000
    reduced_to: 4
  - symbol: Sn # 5
    coordinates: [  0.300850029513606,  0.070659500545727,  0.154244952333948 ]
    mass: 118.710000
    reduced_to: 5
  - symbol: Sn # 6
    coordinates: [  0.800667626222829,  0.570784238135085,  0.154377000622393 ]
    mass: 118.710000
    reduced_to: 6
  - symbol: Sn # 7
    coordinates: [  0.801337265621204,  0.571434399308509,  0.320904606120442 ]
    mass: 118.710000
    reduced_to: 7
  - symbol: Sn # 8
    coordinates: [  0.800497121415887,  0.570934301159352,  0.821031733951886 ]
    mass: 118.710000
    reduced_to: 8
  - symbol: Sn # 9
    coordinates: [  0.301737749728784,  0.070667622590632,  0.986965338282899 ]
    mass: 118.710000
    reduced_to: 9
  - symbol: Sn # 10
    coordinates: [  0.301508407708796,  0.070926971703097,  0.321088267220634 ]
    mass: 118.710000
    reduced_to: 10
  - symbol: Sn # 11
    coordinates: [  0.300949573024588,  0.070403242060789,  0.820895005176089 ]
    mass: 118.710000
    reduced_to: 11
  - symbol: Sn # 12
    coordinates: [  0.301632322386022,  0.070642656422591,  0.653957423330424 ]
    mass: 118.710000
    reduced_to: 12

supercell:
  lattice:
  - [    13.136362562539508,     0.000000000000000,     0.000000000000000 ] # a
  - [     0.000004682840682,    13.102455164903196,     0.000000000000000 ] # b
  - [     0.007256384829978,    -0.003947145604399,    18.553021800394145 ] # c
  points:
  - symbol: Sn # 1
    coordinates: [  0.266760803306114,  0.190228447008613,  0.486664893874638 ]
    mass: 118.710000
    reduced_to: 1
  - symbol: Sn # 2
    coordinates: [  0.600094136639447,  0.190228447008613,  0.486664893874638 ]
    mass: 118.710000
    reduced_to: 1
  - symbol: Sn # 3
    coordinates: [  0.933427469972781,  0.190228447008613,  0.486664893874638 ]
    mass: 118.710000
    reduced_to: 1
  - symbol: Sn # 4
    coordinates: [  0.266760803306114,  0.523561780341946,  0.486664893874638 ]
    mass: 118.710000
    reduced_to: 1
  - symbol: Sn # 5
    coordinates: [  0.600094136639447,  0.523561780341946,  0.486664893874638 ]
    mass: 118.710000
    reduced_to: 1
  - symbol: Sn # 6
    coordinates: [  0.933427469972781,  0.523561780341946,  0.486664893874638 ]
    mass: 118.710000
    reduced_to: 1
  - symbol: Sn # 7
    coordinates: [  0.266760803306114,  0.856895113675280,  0.486664893874638 ]
    mass: 118.710000
    reduced_to: 1
  - symbol: Sn # 8
    coordinates: [  0.600094136639447,  0.856895113675280,  0.486664893874638 ]
    mass: 118.710000
    reduced_to: 1
  - symbol: Sn # 9
    coordinates: [  0.933427469972781,  0.856895113675280,  0.486664893874638 ]
    mass: 118.710000
    reduced_to: 1
  - symbol: Sn # 10
    coordinates: [  0.267142029686807,  0.190307350434928,  0.653795507805808 ]
    mass: 118.710000
    reduced_to: 10
  - symbol: Sn # 11
    coordinates: [  0.600475363020141,  0.190307350434928,  0.653795507805808 ]
    mass: 118.710000
    reduced_to: 10
  - symbol: Sn # 12
    coordinates: [  0.933808696353474,  0.190307350434928,  0.653795507805808 ]
    mass: 118.710000
    reduced_to: 10
  - symbol: Sn # 13
    coordinates: [  0.267142029686807,  0.523640683768261,  0.653795507805808 ]
    mass: 118.710000
    reduced_to: 10
  - symbol: Sn # 14
    coordinates: [  0.600475363020141,  0.523640683768261,  0.653795507805808 ]
    mass: 118.710000
    reduced_to: 10
  - symbol: Sn # 15
    coordinates: [  0.933808696353474,  0.523640683768261,  0.653795507805808 ]
    mass: 118.710000
    reduced_to: 10
  - symbol: Sn # 16
    coordinates: [  0.267142029686807,  0.856974017101595,  0.653795507805808 ]
    mass: 118.710000
    reduced_to: 10
  - symbol: Sn # 17
    coordinates: [  0.600475363020141,  0.856974017101595,  0.653795507805808 ]
    mass: 118.710000
    reduced_to: 10
  - symbol: Sn # 18
    coordinates: [  0.933808696353474,  0.856974017101595,  0.653795507805808 ]
    mass: 118.710000
    reduced_to: 10
  - symbol: Sn # 19
    coordinates: [  0.267055405567582,  0.190336111586008,  0.987542229721400 ]
    mass: 118.710000
    reduced_to: 19
  - symbol: Sn # 20
    coordinates: [  0.600388738900915,  0.190336111586008,  0.987542229721400 ]
    mass: 118.710000
    reduced_to: 19
  - symbol: Sn # 21
    coordinates: [  0.933722072234248,  0.190336111586008,  0.987542229721400 ]
    mass: 118.710000
    reduced_to: 19
  - symbol: Sn # 22
    coordinates: [  0.267055405567582,  0.523669444919342,  0.987542229721400 ]
    mass: 118.710000
    reduced_to: 19
  - symbol: Sn # 23
    coordinates: [  0.600388738900915,  0.523669444919342,  0.987542229721400 ]
    mass: 118.710000
    reduced_to: 19
  - symbol: Sn # 24
    coordinates: [  0.933722072234248,  0.523669444919342,  0.987542229721400 ]
    mass: 118.710000
    reduced_to: 19
  - symbol: Sn # 25
    coordinates: [  0.267055405567582,  0.857002778252675,  0.987542229721400 ]
    mass: 118.710000
    reduced_to: 19
  - symbol: Sn # 26
    coordinates: [  0.600388738900915,  0.857002778252675,  0.987542229721400 ]
    mass: 118.710000
    reduced_to: 19
  - symbol: Sn # 27
    coordinates: [  0.933722072234248,  0.857002778252675,  0.987542229721400 ]
    mass: 118.710000
    reduced_to: 19
  - symbol: Sn # 28
    coordinates: [  0.100222101348292,  0.023579147044993,  0.486952290617234 ]
    mass: 118.710000
    reduced_to: 28
  - symbol: Sn # 29
    coordinates: [  0.433555434681626,  0.023579147044993,  0.486952290617234 ]
    mass: 118.710000
    reduced_to: 28
  - symbol: Sn # 30
    coordinates: [  0.766888768014959,  0.023579147044993,  0.486952290617234 ]
    mass: 118.710000
    reduced_to: 28
  - symbol: Sn # 31
    coordinates: [  0.100222101348292,  0.356912480378326,  0.486952290617234 ]
    mass: 118.710000
    reduced_to: 28
  - symbol: Sn # 32
    coordinates: [  0.433555434681626,  0.356912480378326,  0.486952290617234 ]
    mass: 118.710000
    reduced_to: 28
  - symbol: Sn # 33
    coordinates: [  0.766888768014959,  0.356912480378326,  0.486952290617234 ]
    mass: 118.710000
    reduced_to: 28
  - symbol: Sn # 34
    coordinates: [  0.100222101348292,  0.690245813711659,  0.486952290617234 ]
    mass: 118.710000
    reduced_to: 28
  - symbol: Sn # 35
    coordinates: [  0.433555434681626,  0.690245813711659,  0.486952290617234 ]
    mass: 118.710000
    reduced_to: 28
  - symbol: Sn # 36
    coordinates: [  0.766888768014959,  0.690245813711659,  0.486952290617234 ]
    mass: 118.710000
    reduced_to: 28
  - symbol: Sn # 37
    coordinates: [  0.100283343171202,  0.023553166848576,  0.154244952333948 ]
    mass: 118.710000
    reduced_to: 37
  - symbol: Sn # 38
    coordinates: [  0.433616676504535,  0.023553166848576,  0.154244952333948 ]
    mass: 118.710000
    reduced_to: 37
  - symbol: Sn # 39
    coordinates: [  0.766950009837869,  0.023553166848576,  0.154244952333948 ]
    mass: 118.710000
    reduced_to: 37
  - symbol: Sn # 40
    coordinates: [  0.100283343171202,  0.356886500181909,  0.154244952333948 ]
    mass: 118.710000
    reduced_to: 37
  - symbol: Sn # 41
    coordinates: [  0.433616676504535,  0.356886500181909,  0.154244952333948 ]
    mass: 118.710000
    reduced_to: 37
  - symbol: Sn # 42
    coordinates: [  0.766950009837869,  0.356886500181909,  0.154244952333948 ]
    mass: 118.710000
    reduced_to: 37
  - symbol: Sn # 43
    coordinates: [  0.100283343171202,  0.690219833515242,  0.154244952333948 ]
    mass: 118.710000
    reduced_to: 37
  - symbol: Sn # 44
    coordinates: [  0.433616676504535,  0.690219833515242,  0.154244952333948 ]
    mass: 118.710000
    reduced_to: 37
  - symbol: Sn # 45
    coordinates: [  0.766950009837869,  0.690219833515242,  0.154244952333948 ]
    mass: 118.710000
    reduced_to: 37
  - symbol: Sn # 46
    coordinates: [  0.266889208740943,  0.190261412711695,  0.154377000622393 ]
    mass: 118.710000
    reduced_to: 46
  - symbol: Sn # 47
    coordinates: [  0.600222542074276,  0.190261412711695,  0.154377000622393 ]
    mass: 118.710000
    reduced_to: 46
  - symbol: Sn # 48
    coordinates: [  0.933555875407610,  0.190261412711695,  0.154377000622393 ]
    mass: 118.710000
    reduced_to: 46
  - symbol: Sn # 49
    coordinates: [  0.266889208740943,  0.523594746045028,  0.154377000622393 ]
    mass: 118.710000
    reduced_to: 46
  - symbol: Sn # 50
    coordinates: [  0.600222542074276,  0.523594746045028,  0.154377000622393 ]
    mass: 118.710000
    reduced_to: 46
  - symbol: Sn # 51
    coordinates: [  0.933555875407610,  0.523594746045028,  0.154377000622393 ]
    mass: 118.710000
    reduced_to: 46
  - symbol: Sn # 52
    coordinates: [  0.266889208740943,  0.856928079378362,  0.154377000622393 ]
    mass: 118.710000
    reduced_to: 46
  - symbol: Sn # 53
    coordinates: [  0.600222542074276,  0.856928079378362,  0.154377000622393 ]
    mass: 118.710000
    reduced_to: 46
  - symbol: Sn # 54
    coordinates: [  0.933555875407610,  0.856928079378362,  0.154377000622393 ]
    mass: 118.710000
    reduced_to: 46
  - symbol: Sn # 55
    coordinates: [  0.267112421873735,  0.190478133102836,  0.320904606120442 ]
    mass: 118.710000
    reduced_to: 55
  - symbol: Sn # 56
    coordinates: [  0.600445755207068,  0.190478133102836,  0.320904606120442 ]
    mass: 118.710000
    reduced_to: 55
  - symbol: Sn # 57
    coordinates: [  0.933779088540401,  0.190478133102836,  0.320904606120442 ]
    mass: 118.710000
    reduced_to: 55
  - symbol: Sn # 58
    coordinates: [  0.267112421873735,  0.523811466436170,  0.320904606120442 ]
    mass: 118.710000
    reduced_to: 55
  - symbol: Sn # 59
    coordinates: [  0.600445755207068,  0.523811466436170,  0.320904606120442 ]
    mass: 118.710000
    reduced_to: 55
  - symbol: Sn # 60
    coordinates: [  0.933779088540401,  0.523811466436170,  0.320904606120442 ]
    mass: 118.710000
    reduced_to: 55
  - symbol: Sn # 61
    coordinates: [  0.267112421873735,  0.857144799769503,  0.320904606120442 ]
    mass: 118.710000
    reduced_to: 55
  - symbol: Sn # 62
    coordinates: [  0.600445755207068,  0.857144799769503,  0.320904606120442 ]
    mass: 118.710000
    reduced_to: 55
  - symbol: Sn # 63
    coordinates: [  0.933779088540401,  0.857144799769503,  0.320904606120442 ]
    mass: 118.710000
    reduced_to: 55
  - symbol: Sn # 64
    coordinates: [  0.266832373805296,  0.190311433719784,  0.821031733951886 ]
    mass: 118.710000
    reduced_to: 64
  - symbol: Sn # 65
    coordinates: [  0.600165707138629,  0.190311433719784,  0.821031733951886 ]
    mass: 118.710000
    reduced_to: 64
  - symbol: Sn # 66
    coordinates: [  0.933499040471962,  0.190311433719784,  0.821031733951886 ]
    mass: 118.710000
    reduced_to: 64
  - symbol: Sn # 67
    coordinates: [  0.266832373805296,  0.523644767053117,  0.821031733951886 ]
    mass: 118.710000
    reduced_to: 64
  - symbol: Sn # 68
    coordinates: [  0.600165707138629,  0.523644767053117,  0.821031733951886 ]
    mass: 118.710000
    reduced_to: 64
  - symbol: Sn # 69
    coordinates: [  0.933499040471962,  0.523644767053117,  0.821031733951886 ]
    mass: 118.710000
    reduced_to: 64
  - symbol: Sn # 70
    coordinates: [  0.266832373805296,  0.856978100386451,  0.821031733951886 ]
    mass: 118.710000
    reduced_to: 64
  - symbol: Sn # 71
    coordinates: [  0.600165707138629,  0.856978100386451,  0.821031733951886 ]
    mass: 118.710000
    reduced_to: 64
  - symbol: Sn # 72
    coordinates: [  0.933499040471962,  0.856978100386451,  0.821031733951886 ]
    mass: 118.710000
    reduced_to: 64
  - symbol: Sn # 73
    coordinates: [  0.100579249909595,  0.023555874196877,  0.986965338282899 ]
    mass: 118.710000
    reduced_to: 73
  - symbol: Sn # 74
    coordinates: [  0.433912583242928,  0.023555874196877,  0.986965338282899 ]
    mass: 118.710000
    reduced_to: 73
  - symbol: Sn # 75
    coordinates: [  0.767245916576261,  0.023555874196877,  0.986965338282899 ]
    mass: 118.710000
    reduced_to: 73
  - symbol: Sn # 76
    coordinates: [  0.100579249909595,  0.356889207530211,  0.986965338282899 ]
    mass: 118.710000
    reduced_to: 73
  - symbol: Sn # 77
    coordinates: [  0.433912583242928,  0.356889207530211,  0.986965338282899 ]
    mass: 118.710000
    reduced_to: 73
  - symbol: Sn # 78
    coordinates: [  0.767245916576261,  0.356889207530211,  0.986965338282899 ]
    mass: 118.710000
    reduced_to: 73
  - symbol: Sn # 79
    coordinates: [  0.100579249909595,  0.690222540863544,  0.986965338282899 ]
    mass: 118.710000
    reduced_to: 73
  - symbol: Sn # 80
    coordinates: [  0.433912583242928,  0.690222540863544,  0.986965338282899 ]
    mass: 118.710000
    reduced_to: 73
  - symbol: Sn # 81
    coordinates: [  0.767245916576261,  0.690222540863544,  0.986965338282899 ]
    mass: 118.710000
    reduced_to: 73
  - symbol: Sn # 82
    coordinates: [  0.100502802569599,  0.023642323901032,  0.321088267220634 ]
    mass: 118.710000
    reduced_to: 82
  - symbol: Sn # 83
    coordinates: [  0.433836135902932,  0.023642323901032,  0.321088267220634 ]
    mass: 118.710000
    reduced_to: 82
  - symbol: Sn # 84
    coordinates: [  0.767169469236265,  0.023642323901032,  0.321088267220634 ]
    mass: 118.710000
    reduced_to: 82
  - symbol: Sn # 85
    coordinates: [  0.100502802569599,  0.356975657234366,  0.321088267220634 ]
    mass: 118.710000
    reduced_to: 82
  - symbol: Sn # 86
    coordinates: [  0.433836135902932,  0.356975657234366,  0.321088267220634 ]
    mass: 118.710000
    reduced_to: 82
  - symbol: Sn # 87
    coordinates: [  0.767169469236265,  0.356975657234366,  0.321088267220634 ]
    mass: 118.710000
    reduced_to: 82
  - symbol: Sn # 88
    coordinates: [  0.100502802569599,  0.690308990567699,  0.321088267220634 ]
    mass: 118.710000
    reduced_to: 82
  - symbol: Sn # 89
    coordinates: [  0.433836135902932,  0.690308990567699,  0.321088267220634 ]
    mass: 118.710000
    reduced_to: 82
  - symbol: Sn # 90
    coordinates: [  0.767169469236265,  0.690308990567699,  0.321088267220634 ]
    mass: 118.710000
    reduced_to: 82
  - symbol: Sn # 91
    coordinates: [  0.100316524341529,  0.023467747353596,  0.820895005176089 ]
    mass: 118.710000
    reduced_to: 91
  - symbol: Sn # 92
    coordinates: [  0.433649857674863,  0.023467747353596,  0.820895005176089 ]
    mass: 118.710000
    reduced_to: 91
  - symbol: Sn # 93
    coordinates: [  0.766983191008196,  0.023467747353596,  0.820895005176089 ]
    mass: 118.710000
    reduced_to: 91
  - symbol: Sn # 94
    coordinates: [  0.100316524341529,  0.356801080686930,  0.820895005176089 ]
    mass: 118.710000
    reduced_to: 91
  - symbol: Sn # 95
    coordinates: [  0.433649857674863,  0.356801080686930,  0.820895005176089 ]
    mass: 118.710000
    reduced_to: 91
  - symbol: Sn # 96
    coordinates: [  0.766983191008196,  0.356801080686930,  0.820895005176089 ]
    mass: 118.710000
    reduced_to: 91
  - symbol: Sn # 97
    coordinates: [  0.100316524341529,  0.690134414020263,  0.820895005176089 ]
    mass: 118.710000
    reduced_to: 91
  - symbol: Sn # 98
    coordinates: [  0.433649857674863,  0.690134414020263,  0.820895005176089 ]
    mass: 118.710000
    reduced_to: 91
  - symbol: Sn # 99
    coordinates: [  0.766983191008196,  0.690134414020263,  0.820895005176089 ]
    mass: 118.710000
    reduced_to: 91
  - symbol: Sn # 100
    coordinates: [  0.100544107462007,  0.023547552140864,  0.653957423330424 ]
    mass: 118.710000
    reduced_to: 100
  - symbol: Sn # 101
    coordinates: [  0.433877440795341,  0.023547552140864,  0.653957423330424 ]
    mass: 118.710000
    reduced_to: 100
  - symbol: Sn # 102
    coordinates: [  0.767210774128674,  0.023547552140864,  0.653957423330424 ]
    mass: 118.710000
    reduced_to: 100
  - symbol: Sn # 103
    coordinates: [  0.100544107462007,  0.356880885474197,  0.653957423330424 ]
    mass: 118.710000
    reduced_to: 100
  - symbol: Sn # 104
    coordinates: [  0.433877440795341,  0.356880885474197,  0.653957423330424 ]
    mass: 118.710000
    reduced_to: 100
  - symbol: Sn # 105
    coordinates: [  0.767210774128674,  0.356880885474197,  0.653957423330424 ]
    mass: 118.710000
    reduced_to: 100
  - symbol: Sn # 106
    coordinates: [  0.100544107462007,  0.690214218807530,  0.653957423330424 ]
    mass: 118.710000
    reduced_to: 100
  - symbol: Sn # 107
    coordinates: [  0.433877440795341,  0.690214218807530,  0.653957423330424 ]
    mass: 118.710000
    reduced_to: 100
  - symbol: Sn # 108
    coordinates: [  0.767210774128674,  0.690214218807530,  0.653957423330424 ]
    mass: 118.710000
    reduced_to: 100

displacements:
- atom:    1
  displacement:
    [   0.0100000000000000,  0.0000000000000000,  0.0000000000000000 ]
  forces:
  - [  -0.0120195848867297,  0.0000127404928207,  0.0214506126940250 ]
  - [   0.0010546846315265,  0.0000072864349931,  0.0214753821492195 ]
  - [   0.0011158271227032,  0.0000085392966866,  0.0214680526405573 ]
  - [   0.0013432845007628,  0.0000065488275141,  0.0214703995734453 ]
  - [   0.0020957265514880,  0.0011403758544475,  0.0214733220636845 ]
  - [   0.0021089056972414, -0.0011406431440264,  0.0214683357626200 ]
  - [   0.0013445375952870,  0.0000089961104095,  0.0214712731540203 ]
  - [   0.0020947018638253, -0.0011256283614784,  0.0214734654873610 ]
  - [   0.0021077103447169,  0.0011555452365428,  0.0214683916419744 ]
  - [   0.0010080733336508, -0.0011989250779152,  0.0037990100681782 ]
  - [   0.0013762009330094, -0.0011901473626494,  0.0037861689925194 ]
  - [   0.0013779676519334, -0.0011877892538905,  0.0038208910264075 ]
  - [   0.0013391263782978, -0.0011893492192030,  0.0038031069561839 ]
  - [   0.0013925130479038, -0.0012023597955704,  0.0040051294490695 ]
  - [   0.0013919016346335, -0.0011763432994485,  0.0035961437970400 ]
  - [   0.0013421941548586, -0.0011899610981345,  0.0038035442121327 ]
  - [   0.0013933335430920, -0.0011752201244235,  0.0040053897537291 ]
  - [   0.0013914545997977, -0.0012029046192765,  0.0035957060754299 ]
  - [   0.0028619403019547, -0.0014072812628001,  0.0026988717727363 ]
  - [   0.0028785390313715, -0.0014069520402700,  0.0026975057553500 ]
  - [   0.0028763222508132, -0.0014072849880904,  0.0026981313712895 ]
  - [   0.0028656756039709, -0.0014072856865823,  0.0026981395203620 ]
  - [   0.0028729781042784, -0.0014031389728189,  0.0026977839879692 ]
  - [   0.0028736651875079, -0.0014104114379734,  0.0026987213641405 ]
  - [   0.0028682742267847, -0.0014059855602682,  0.0026977960951626 ]
  - [   0.0028747860342264, -0.0014079541433603,  0.0026978547684848 ]
  - [   0.0028748337645084, -0.0014025862328708,  0.0026991469785571 ]
  - [   0.0000669000073685,  0.0022837410215288,  0.0153000829741359 ]
  - [   0.0001982810063055, -0.0031344345770776,  0.0153299774974585 ]
  - [  -0.0016025366494432, -0.0003503408224788,  0.0153147540986538 ]
  - [   0.0000571043710806, -0.0029588798061013,  0.0153003036975861 ]
  - [   0.0001853592693806,  0.0024415180087090,  0.0153287546709180 ]
  - [  -0.0016013407148421, -0.0003333873464726,  0.0153141357004642 ]
  - [  -0.0027621779590845, -0.0003424588940106,  0.0153178898617625 ]
  - [  -0.0027609653770924, -0.0003435233957134,  0.0153103675693274 ]
  - [  -0.0010063548106700, -0.0003401856229175,  0.0153149906545877 ]
  - [  -0.0011772615835071,  0.0004400563193485, -0.0058255600742996 ]
  - [  -0.0011772601865232,  0.0004281213623472, -0.0062673501670361 ]
  - [  -0.0011331224814057,  0.0004332368262112, -0.0060446737334132 ]
  - [  -0.0011768026743084,  0.0004290070210118, -0.0058256676420569 ]
  - [  -0.0011782806832343,  0.0004412474227138, -0.0062660491093993 ]
  - [  -0.0011337355244905,  0.0004356472927611, -0.0060442611575127 ]
  - [  -0.0011714302236214,  0.0004345828201622, -0.0060203149914742 ]
  - [  -0.0011699805036187,  0.0004340773157310, -0.0060692224651575 ]
  - [  -0.0011454187333584,  0.0004349741793703, -0.0060445093549788 ]
  - [   0.0005776812322438, -0.0007365804631263, -0.0067804455757141 ]
  - [   0.0004604009445757, -0.0007363681215793, -0.0066231661476195 ]
  - [   0.0004595129285008, -0.0007361995521933, -0.0069348360411823 ]
  - [   0.0004886598326266, -0.0007348863873631, -0.0067787533625960 ]
  - [   0.0004669143818319, -0.0007424883078784, -0.0067213051952422 ]
  - [   0.0004664508160204, -0.0007275976240635, -0.0068368688225746 ]
  - [   0.0004890870768577, -0.0007355427369475, -0.0067789345048368 ]
  - [   0.0004675122909248, -0.0007284735329449, -0.0067214355804026 ]
  - [   0.0004666189197451, -0.0007428978569806, -0.0068371384404600 ]
  - [   0.0006735729984939, -0.0018796497024596, -0.0100789070129395 ]
  - [   0.0012323884293437, -0.0018803169950843, -0.0100744720548391 ]
  - [   0.0012327125295997, -0.0018795211799443, -0.0101113636046648 ]
  - [   0.0011704610660672, -0.0018799882382154, -0.0100912116467953 ]
  - [   0.0012394785881042, -0.0018880758434534, -0.0102995652705431 ]
  - [   0.0012397672981024, -0.0018726335838437, -0.0098797790706158 ]
  - [   0.0011669839732349, -0.0018789772875607, -0.0100913718342781 ]
  - [   0.0012405286543071, -0.0018719877116382, -0.0103007964789867 ]
  - [   0.0012406879104674, -0.0018863826990128, -0.0098788253962994 ]
  - [   0.0016887416131794, -0.0023708790540695, -0.0101058874279261 ]
  - [   0.0015822909772396, -0.0023768248502165, -0.0102626383304596 ]
  - [   0.0015824153088033, -0.0023762998171151, -0.0099552506580949 ]
  - [   0.0016151939053088, -0.0023777494207025, -0.0101097542792559 ]
  - [   0.0015904693864286, -0.0023865690454841, -0.0101647302508354 ]
  - [   0.0015919741708785, -0.0023689270019531, -0.0100535992532969 ]
  - [   0.0016146039124578, -0.0023776299785823, -0.0101092737168074 ]
  - [   0.0015913364477456, -0.0023692888207734, -0.0101642142981291 ]
  - [   0.0015913322567940, -0.0023856698535383, -0.0100536262616515 ]
  - [  -0.0021250196732581,  0.0015599949983880,  0.0138885173946619 ]
  - [  -0.0021260585635900,  0.0015593650750816,  0.0138971349224448 ]
  - [  -0.0021231125574559,  0.0015607726527378,  0.0138929402455688 ]
  - [  -0.0021259849891067,  0.0015572562115267,  0.0138886496424675 ]
  - [  -0.0021262094378471,  0.0015576174482703,  0.0138967167586088 ]
  - [  -0.0021230506245047,  0.0015576934674755,  0.0138929672539234 ]
  - [  -0.0021249726414680,  0.0015596172306687,  0.0138927698135376 ]
  - [  -0.0021248017437756,  0.0015602853382006,  0.0138935651630163 ]
  - [  -0.0021241828799248,  0.0015607406385243,  0.0138933863490820 ]
  - [  -0.0002208014484495,  0.0023074757773429, -0.0140449833124876 ]
  - [  -0.0002225337084383,  0.0024328096769750, -0.0138553762808442 ]
  - [  -0.0005888087907806,  0.0023708208464086, -0.0139541551470757 ]
  - [  -0.0002193293476012,  0.0024308133870363, -0.0140416799113154 ]
  - [  -0.0002206789649790,  0.0023104758001864, -0.0138602219521999 ]
  - [  -0.0005881211254746,  0.0023696767166257, -0.0139541476964951 ]
  - [  -0.0001491622533649,  0.0023700324818492, -0.0140845458954573 ]
  - [  -0.0001496919430792,  0.0023692003451288, -0.0138212451711297 ]
  - [  -0.0006272860337049,  0.0023691575042903, -0.0139547903090715 ]
  - [  -0.0024273665621877,  0.0022589794825763, -0.0106778480112553 ]
  - [  -0.0024266371037811,  0.0022476641461253, -0.0102731194347143 ]
  - [  -0.0023851993028075,  0.0022524150554091, -0.0104767270386219 ]
  - [  -0.0024280140642077,  0.0022475628647953, -0.0106785520911217 ]
  - [  -0.0024275428149849,  0.0022600777447224, -0.0102723538875580 ]
  - [  -0.0023848041892052,  0.0022524048108608, -0.0104765798896551 ]
  - [  -0.0024211676791310,  0.0022528611589223, -0.0104997809976339 ]
  - [  -0.0024205856025219,  0.0022547633852810, -0.0104528218507767 ]
  - [  -0.0023976950906217,  0.0022536879405379, -0.0104768509045243 ]
  - [  -0.0004160993266851,  0.0012569890823215,  0.0003200503997505 ]
  - [  -0.0004148393636569,  0.0013509525451809,  0.0002291691489518 ]
  - [  -0.0007944205426611,  0.0013059163466096,  0.0002751732245088 ]
  - [  -0.0004199528484605,  0.0013556198682636,  0.0003213579766452 ]
  - [  -0.0004169171734247,  0.0012583169154823,  0.0002289800904691 ]
  - [  -0.0007950184517540,  0.0013033768627793,  0.0002755303867161 ]
  - [  -0.0003653005696833,  0.0013069466222078,  0.0004040859639645 ]
  - [  -0.0003661601804197,  0.0013065468519926,  0.0001446213573217 ]
  - [  -0.0008267944213003,  0.0013046276289970,  0.0002764146775007 ]
- atom:    1
  displacement:
    [  -0.0100000000000000,  0.0000000000000000,  0.0000000000000000 ]
  forces:
  - [   0.0143542829900980,  0.0000067674554884,  0.0214946717023849 ]
  - [   0.0012208295520395,  0.0000085008796304,  0.0214676987379789 ]
  - [   0.0012829008046538,  0.0000078841112554,  0.0214750804007053 ]
  - [   0.0009920201264322, -0.0000027157366276,  0.0214706342667341 ]
  - [   0.0002318592742085, -0.0011429646983743,  0.0214679446071386 ]
  - [   0.0002442980185151,  0.0011380088981241,  0.0214737914502621 ]
  - [   0.0009932578541338,  0.0000184294767678,  0.0214715823531151 ]
  - [   0.0002300371415913,  0.0011587045155466,  0.0214683338999748 ]
  - [   0.0002437289804220, -0.0011239703744650,  0.0214733239263296 ]
  - [   0.0017476505599916, -0.0011879215016961,  0.0037328647449613 ]
  - [   0.0013726702891290, -0.0011894302442670,  0.0038236719556153 ]
  - [   0.0013663629069924, -0.0011882968246937,  0.0037882300093770 ]
  - [   0.0014070775359869, -0.0011878842487931,  0.0038009071722627 ]
  - [   0.0013581239618361, -0.0011742487549782,  0.0035948781296611 ]
  - [   0.0013577071949840, -0.0012022228911519,  0.0040051359683275 ]
  - [   0.0014111706987023, -0.0011913012713194,  0.0038017430342734 ]
  - [   0.0013595344498754, -0.0012040250003338,  0.0035951463505626 ]
  - [   0.0013571437448263, -0.0011776164174080,  0.0040042386390269 ]
  - [   0.0028838443104178, -0.0014075047802180,  0.0026975069195032 ]
  - [   0.0028675452340394, -0.0014070493634790,  0.0026980652473867 ]
  - [   0.0028656285721809, -0.0014071089681238,  0.0026973872445524 ]
  - [   0.0028753255028278, -0.0014070046599954,  0.0026982449926436 ]
  - [   0.0028683573473245, -0.0014094989746809,  0.0026982070412487 ]
  - [   0.0028688679449260, -0.0014041697140783,  0.0026980396360159 ]
  - [   0.0028778947889805, -0.0014059660024941,  0.0026981714181602 ]
  - [   0.0028703010175377, -0.0014018688816577,  0.0026987618766725 ]
  - [   0.0028702754061669, -0.0014086205046624,  0.0026985551230609 ]
  - [  -0.0046053491532803, -0.0032161958515644,  0.0153295323252678 ]
  - [  -0.0043681357055902,  0.0022056275047362,  0.0153001472353935 ]
  - [  -0.0027496253605932, -0.0003503190819174,  0.0153145138174295 ]
  - [  -0.0045886794105172,  0.0025235076900572,  0.0153288347646594 ]
  - [  -0.0043544005602598, -0.0028807581402361,  0.0153001574799418 ]