# Thermal properties / unit cell (natom)

unit:
  temperature:   K
  free_energy:   kJ/mol
  entropy:       J/K/mol
  heat_capacity: J/K/mol

natom: 17   
cutoff_frequency: 0.00000
num_modes: 172125
num_integrated_modes: 169224

zero_point_energy:      42.4694390

thermal_properties:
- temperature:         0.0000000
  free_energy:        42.4694390
  entropy:             0.0000000
  heat_capacity:       0.0000000
  energy:             42.4694390

- temperature:        10.0000000
  free_energy:        42.4614026
  entropy:             2.7097826
  heat_capacity:       6.5321867
  energy:             42.4885004

- temperature:        20.0000000
  free_energy:        42.3841875
  entropy:            14.5313158
  heat_capacity:      34.3463952
  energy:             42.6748138

- temperature:        30.0000000
  free_energy:        42.1376529
  entropy:            36.1440428
  heat_capacity:      76.1388985
  energy:             43.2219742

- temperature:        40.0000000
  free_energy:        41.6404204
  entropy:            64.0590469
  heat_capacity:     119.7701441
  energy:             44.2027823

- temperature:        50.0000000
  free_energy:        40.8457643
  entropy:            95.2255710
  heat_capacity:     160.3915662
  energy:             45.6070428

- temperature:        60.0000000
  free_energy:        39.7315466
  entropy:           127.7250535
  heat_capacity:     196.3823767
  energy:             47.3950499

- temperature:        70.0000000
  free_energy:        38.2907658
  entropy:           160.3889223
  heat_capacity:     227.3828826
  energy:             49.5179904

- temperature:        80.0000000
  free_energy:        36.5255884
  entropy:           192.5164143
  heat_capacity:     253.6502712
  energy:             51.9269016

- temperature:        90.0000000
  free_energy:        34.4435897
  entropy:           223.7044425
  heat_capacity:     275.7180064
  energy:             54.5769895

- temperature:       100.0000000
  free_energy:        32.0553557
  entropy:           253.7395055
  heat_capacity:     294.1980894
  energy:             57.4293063

- temperature:       110.0000000
  free_energy:        29.3729653
  entropy:           282.5272322
  heat_capacity:     309.6786583
  energy:             60.4509608

- temperature:       120.0000000
  free_energy:        26.4090440
  entropy:           310.0465075
  heat_capacity:     322.6801439
  energy:             63.6146249

- temperature:       130.0000000
  free_energy:        23.1761907
  entropy:           336.3198995
  heat_capacity:     333.6432536
  energy:             66.8977777

- temperature:       140.0000000
  free_energy:        19.6866423
  entropy:           361.3948190
  heat_capacity:     342.9322189
  energy:             70.2819169

- temperature:       150.0000000
  free_energy:        15.9520885
  entropy:           385.3316643
  heat_capacity:     350.8441445
  energy:             73.7518382

- temperature:       160.0000000
  free_energy:        11.9835826
  entropy:           408.1964686
  heat_capacity:     357.6198542
  energy:             77.2950175

- temperature:       170.0000000
  free_energy:         7.7915084
  entropy:           430.0564286
  heat_capacity:     363.4541544
  energy:             80.9011013

- temperature:       180.0000000
  free_energy:         3.3855841
  entropy:           450.9772636
  heat_capacity:     368.5047360
  energy:             84.5614915

- temperature:       190.0000000
  free_energy:        -1.2251160
  entropy:           471.0217306
  heat_capacity:     372.8995592
  energy:             88.2690128

- temperature:       200.0000000
  free_energy:        -6.0321266
  entropy:           490.2488642
  heat_capacity:     376.7428297
  energy:             92.0176463

- temperature:       210.0000000
  free_energy:       -11.0275526
  entropy:           508.7136632
  heat_capacity:     380.1197714
  energy:             95.8023166

- temperature:       220.0000000
  free_energy:       -16.2040289
  entropy:           526.4670497
  heat_capacity:     383.1004107
  energy:             99.6187220

- temperature:       230.0000000
  free_energy:       -21.5546792
  entropy:           543.5559865
  heat_capacity:     385.7425684
  energy:            103.4631977

- temperature:       240.0000000
  free_energy:       -27.0730782
  entropy:           560.0236840
  heat_capacity:     388.0942254
  energy:            107.3326060

- temperature:       250.0000000
  free_energy:       -32.7532148
  entropy:           575.9098510
  heat_capacity:     390.1953951
  energy:            111.2242479

- temperature:       260.0000000
  free_energy:       -38.5894587
  entropy:           591.2509614
  heat_capacity:     392.0796111
  energy:            115.1357913

- temperature:       270.0000000
  free_energy:       -44.5765292
  entropy:           606.0805214
  heat_capacity:     393.7751105
  energy:            119.0652116

- temperature:       280.0000000
  free_energy:       -50.7094669
  entropy:           620.4293262
  heat_capacity:     395.3057822
  energy:            123.0107444

- temperature:       290.0000000
  free_energy:       -56.9836079
  entropy:           634.3257023
  heat_capacity:     396.6919273
  energy:            126.9708458

- temperature:       300.0000000
  free_energy:       -63.3945600
  entropy:           647.7957309
  heat_capacity:     397.9508735
  energy:            130.9441593

- temperature:       310.0000000
  free_energy:       -69.9381817
  entropy:           660.8634538
  heat_capacity:     399.0974722
  energy:            134.9294890

- temperature:       320.0000000
  free_energy:       -76.6105622
  entropy:           673.5510601
  heat_capacity:     400.1445040
  energy:            138.9257770

- temperature:       330.0000000
  free_energy:       -83.4080043
  entropy:           685.8790561
  heat_capacity:     401.1030099
  energy:            142.9320842

- temperature:       340.0000000
  free_energy:       -90.3270080
  entropy:           697.8664183
  heat_capacity:     401.9825633
  energy:            146.9475742

- temperature:       350.0000000
  free_energy:       -97.3642560
  entropy:           709.5307319
  heat_capacity:     402.7914951
  energy:            150.9715001

- temperature:       360.0000000
  free_energy:      -104.5166004
  entropy:           720.8883150
  heat_capacity:     403.5370791
  energy:            155.0031930

- temperature:       370.0000000
  free_energy:      -111.7810505
  entropy:           731.9543309
  heat_capacity:     404.2256874
  energy:            159.0420519

- temperature:       380.0000000
  free_energy:      -119.1547622
  entropy:           742.7428890
  heat_capacity:     404.8629194
  energy:            163.0875356

- temperature:       390.0000000
  free_energy:      -126.6350274
  entropy:           753.2671357
  heat_capacity:     405.4537104
  energy:            167.1391555

- temperature:       400.0000000
  free_energy:      -134.2192649
  entropy:           763.5393362
  heat_capacity:     406.0024231
  energy:            171.1964696

- temperature:       410.0000000
  free_energy:      -141.9050122
  entropy:           773.5709485
  heat_capacity:     406.5129242
  energy:            175.2590767

- temperature:       420.0000000
  free_energy:      -149.6899177
  entropy:           783.3726902
  heat_capacity:     406.9886505
  energy:            179.3266122

- temperature:       430.0000000
  free_energy:      -157.5717333
  entropy:           792.9545984
  heat_capacity:     407.4326641
  energy:            183.3987440

- temperature:       440.0000000
  free_energy:      -165.5483083
  entropy:           802.3260846
  heat_capacity:     407.8477002
  energy:            187.4751689

- temperature:       450.0000000
  free_energy:      -173.6175831
  entropy:           811.4959838
  heat_capacity:     408.2362076
  energy:            191.5556096

- temperature:       460.0000000
  free_energy:      -181.7775838
  entropy:           820.4725995
  heat_capacity:     408.6003836
  energy:            195.6398120

- temperature:       470.0000000
  free_energy:      -190.0264169
  entropy:           829.2637441
  heat_capacity:     408.9422044
  energy:            199.7275428

- temperature:       480.0000000
  free_energy:      -198.3622650
  entropy:           837.8767761
  heat_capacity:     409.2634508
  energy:            203.8185875

- temperature:       490.0000000
  free_energy:      -206.7833819
  entropy:           846.3186337
  heat_capacity:     409.5657311
  energy:            207.9127486

- temperature:       500.0000000
  free_energy:      -215.2880890
  entropy:           854.5958655
  heat_capacity:     409.8505002
  energy:            212.0098438

- temperature:       510.0000000
  free_energy:      -223.8747711
  entropy:           862.7146584
  heat_capacity:     410.1190772
  energy:            216.1097046

- temperature:       520.0000000
  free_energy:      -232.5418735
  entropy:           870.6808632
  heat_capacity:     410.3726598
  energy:            220.2121754

- temperature:       530.0000000
  free_energy:      -241.2878983
  entropy:           878.5000184
  heat_capacity:     410.6123378
  energy:            224.3171115

- temperature:       540.0000000
  free_energy:      -250.1114013
  entropy:           886.1773710
  heat_capacity:     410.8391041
  energy:            228.4243791

- temperature:       550.0000000
  free_energy:      -259.0109896
  entropy:           893.7178967
  heat_capacity:     411.0538650
  energy:            232.5338536

- temperature:       560.0000000
  free_energy:      -267.9853189
  entropy:           901.1263179
  heat_capacity:     411.2574493
  energy:            236.6454191

- temperature:       570.0000000
  free_energy:      -277.0330906
  entropy:           908.4071201
  heat_capacity:     411.4506154
  energy:            240.7589678

- temperature:       580.0000000
  free_energy:      -286.1530501
  entropy:           915.5645675
  heat_capacity:     411.6340593
  energy:            244.8743990

- temperature:       590.0000000
  free_energy:      -295.3439843
  entropy:           922.6027171
  heat_capacity:     411.8084195
  energy:            248.9916188

- temperature:       600.0000000
  free_energy:      -304.6047197
  entropy:           929.5254313
  heat_capacity:     411.9742836
  energy:            253.1105391

- temperature:       610.0000000
  free_energy:      -313.9341204
  entropy:           936.3363907
  heat_capacity:     412.1321925
  energy:            257.2310779

- temperature:       620.0000000
  free_energy:      -323.3310867
  entropy:           943.0391045
  heat_capacity:     412.2826449
  energy:            261.3531581

- temperature:       630.0000000
  free_energy:      -332.7945529
  entropy:           949.6369212
  heat_capacity:     412.4261011
  energy:            265.4767075

- temperature:       640.0000000
  free_energy:      -342.3234861
  entropy:           956.1330381
  heat_capacity:     412.5629866
  energy:            269.6016582

- temperature:       650.0000000
  free_energy:      -351.9168848
  entropy:           962.5305100
  heat_capacity:     412.6936954
  energy:            273.7279466

- temperature:       660.0000000
  free_energy:      -361.5737773
  entropy:           968.8322576
  heat_capacity:     412.8185920
  energy:            277.8555128

- temperature:       670.0000000
  free_energy:      -371.2932202
  entropy:           975.0410754
  heat_capacity:     412.9380150
  energy:            281.9843002

- temperature:       680.0000000
  free_energy:      -381.0742979
  entropy:           981.1596380
  heat_capacity:     413.0522785
  energy:            286.1142559

- temperature:       690.0000000
  free_energy:      -390.9161207
  entropy:           987.1905077
  heat_capacity:     413.1616746
  energy:            290.2453296

- temperature:       700.0000000
  free_energy:      -400.8178240
  entropy:           993.1361401
  heat_capacity:     413.2664749
  energy:            294.3774741

- temperature:       710.0000000
  free_energy:      -410.7785672
  entropy:           998.9988899
  heat_capacity:     413.3669326
  energy:            298.5106446

- temperature:       720.0000000
  free_energy:      -420.7975330
  entropy:          1004.7810168
  heat_capacity:     413.4632836
  energy:            302.6447990

- temperature:       730.0000000
  free_energy:      -430.8739261
  entropy:          1010.4846896
  heat_capacity:     413.5557481
  energy:            306.7798973

- temperature:       740.0000000
  free_energy:      -441.0069723
  entropy:          1016.1119919
  heat_capacity:     413.6445317
  energy:            310.9159017

- temperature:       750.0000000
  free_energy:      -451.1959180
  entropy:          1021.6649258
  heat_capacity:     413.7298267
  energy:            315.0527763

- temperature:       760.0000000
  free_energy:      -461.4400293
  entropy:          1027.1454165
  heat_capacity:     413.8118132
  energy:            319.1904872

- temperature:       770.0000000
  free_energy:      -471.7385911
  entropy:          1032.5553158
  heat_capacity:     413.8906594
  energy:            323.3290021

- temperature:       780.0000000
  free_energy:      -482.0909063
  entropy:          1037.8964061
  heat_capacity:     413.9665235
  energy:            327.4682905

- temperature:       790.0000000
  free_energy:      -492.4962956
  entropy:          1043.1704034
  heat_capacity:     414.0395534
  energy:            331.6083232

- temperature:       800.0000000
  free_energy:      -502.9540962
  entropy:          1048.3789610
  heat_capacity:     414.1098885
  energy:            335.7490726

- temperature:       810.0000000
  free_energy:      -513.4636620
  entropy:          1053.5236720
  heat_capacity:     414.1776592
  energy:            339.8905124

- temperature:       820.0000000
  free_energy:      -524.0243620
  entropy:          1058.6060727
  heat_capacity:     414.2429884
  energy:            344.0326176

- temperature:       830.0000000
  free_energy:      -534.6355807
  entropy:          1063.6276446
  heat_capacity:     414.3059919
  energy:            348.1753644

- temperature:       840.0000000
  free_energy:      -545.2967169
  entropy:          1068.5898178
  heat_capacity:     414.3667785
  energy:            352.3187300

- temperature:       850.0000000
  free_energy:      -556.0071836
  entropy:          1073.4939724
  heat_capacity:     414.4254506
  energy:            356.4626929

- temperature:       860.0000000
  free_energy:      -566.7664074
  entropy:          1078.3414415
  heat_capacity:     414.4821052
  energy:            360.6072323

- temperature:       870.0000000
  free_energy:      -577.5738278
  entropy:          1083.1335131
  heat_capacity:     414.5368334
  energy:            364.7523286

- temperature:       880.0000000
  free_energy:      -588.4288971
  entropy:          1087.8714318
  heat_capacity:     414.5897214
  energy:            368.8979629

- temperature:       890.0000000
  free_energy:      -599.3310799
  entropy:          1092.5564012
  heat_capacity:     414.6408507
  energy:            373.0441172

- temperature:       900.0000000
  free_energy:      -610.2798525
  entropy:          1097.1895854
  heat_capacity:     414.6902981
  energy:            377.1907743

- temperature:       910.0000000
  free_energy:      -621.2747028
  entropy:          1101.7721105
  heat_capacity:     414.7381367
  energy:            381.3379178

- temperature:       920.0000000
  free_energy:      -632.3151295
  entropy:          1106.3050668
  heat_capacity:     414.7844352
  energy:            385.4855319

- temperature:       930.0000000
  free_energy:      -643.4006424
  entropy:          1110.7895096
  heat_capacity:     414.8292590
  energy:            389.6336016

- temperature:       940.0000000
  free_energy:      -654.5307614
  entropy:          1115.2264615
  heat_capacity:     414.8726699
  energy:            393.7821123

- temperature:       950.0000000
  free_energy:      -665.7050166
  entropy:          1119.6169127
  heat_capacity:     414.9147266
  energy:            397.9310504

- temperature:       960.0000000
  free_energy:      -676.9229479
  entropy:          1123.9618234
  heat_capacity:     414.9554847
  energy:            402.0804026

- temperature:       970.0000000
  free_energy:      -688.1841044
  entropy:          1128.2621241
  heat_capacity:     414.9949971
  energy:            406.2301560

- temperature:       980.0000000
  free_energy:      -699.4880447
  entropy:          1132.5187175
  heat_capacity:     415.0333139
  energy:            410.3802985

- temperature:       990.0000000
  free_energy:      -710.8343360
  entropy:          1136.7324792
  heat_capacity:     415.0704828
  energy:            414.5308184

- temperature:      1000.0000000
  free_energy:      -722.2225543
  entropy:          1140.9042588
  heat_capacity:     415.1065492
  energy:            418.6817045
