# Thermal properties / unit cell (natom)

unit:
  temperature:   K
  free_energy:   kJ/mol
  entropy:       J/K/mol
  heat_capacity: J/K/mol

natom: 8    
cutoff_frequency: 0.00000
num_modes: 165888
num_integrated_modes: 164955

zero_point_energy:      29.3202594

thermal_properties:
- temperature:         0.0000000
  free_energy:        29.3202594
  entropy:             0.0000000
  heat_capacity:       0.0000000
  energy:             29.3202594

- temperature:        10.0000000
  free_energy:        29.3064847
  entropy:             3.8497142
  heat_capacity:       6.4719014
  energy:             29.3449818

- temperature:        20.0000000
  free_energy:        29.2290529
  entropy:            12.2680881
  heat_capacity:      20.3866352
  energy:             29.4744147

- temperature:        30.0000000
  free_energy:        29.0515108
  entropy:            23.5388318
  heat_capacity:      36.0075385
  energy:             29.7576757

- temperature:        40.0000000
  free_energy:        28.7551571
  entropy:            35.7861815
  heat_capacity:      49.3775332
  energy:             30.1866044

- temperature:        50.0000000
  free_energy:        28.3357709
  entropy:            48.0597297
  heat_capacity:      60.8127532
  energy:             30.7387574

- temperature:        60.0000000
  free_energy:        27.7948441
  entropy:            60.0757998
  heat_capacity:      71.1916124
  energy:             31.3993921

- temperature:        70.0000000
  free_energy:        27.1352586
  entropy:            71.7921893
  heat_capacity:      80.9955418
  energy:             32.1607119

- temperature:        80.0000000
  free_energy:        26.3599486
  entropy:            83.2239239
  heat_capacity:      90.3621655
  energy:             33.0178625

- temperature:        90.0000000
  free_energy:        25.4716780
  entropy:            94.3859169
  heat_capacity:      99.2641325
  energy:             33.9664105

- temperature:       100.0000000
  free_energy:        24.4731145
  entropy:           105.2823847
  heat_capacity:     107.6289659
  energy:             35.0013530

- temperature:       110.0000000
  free_energy:        23.3669272
  entropy:           115.9096873
  heat_capacity:     115.3957473
  energy:             36.1169928

- temperature:       120.0000000
  free_energy:        22.1558406
  entropy:           126.2610551
  heat_capacity:     122.5333245
  energy:             37.3071672

- temperature:       130.0000000
  free_energy:        20.8426476
  entropy:           136.3300506
  heat_capacity:     129.0401262
  energy:             38.5655541

- temperature:       140.0000000
  free_energy:        19.4301953
  entropy:           146.1124336
  heat_capacity:     134.9372926
  energy:             39.8859360

- temperature:       150.0000000
  free_energy:        17.9213591
  entropy:           155.6068519
  heat_capacity:     140.2607885
  energy:             41.2623869

- temperature:       160.0000000
  free_energy:        16.3190133
  entropy:           164.8148306
  heat_capacity:     145.0547265
  energy:             42.6893862

- temperature:       170.0000000
  free_energy:        14.6260040
  entropy:           173.7404119
  heat_capacity:     149.3664542
  energy:             44.1618741

- temperature:       180.0000000
  free_energy:        12.8451264
  entropy:           182.3896637
  heat_capacity:     153.2432622
  energy:             45.6752658

- temperature:       190.0000000
  free_energy:        10.9791067
  entropy:           190.7701788
  heat_capacity:     156.7303602
  energy:             47.2254406

- temperature:       200.0000000
  free_energy:         9.0305898
  entropy:           198.8906234
  heat_capacity:     159.8697582
  energy:             48.8087144

- temperature:       210.0000000
  free_energy:         7.0021300
  entropy:           206.7603569
  heat_capacity:     162.6997564
  energy:             50.4218049

- temperature:       220.0000000
  free_energy:         4.8961859
  entropy:           214.3891259
  heat_capacity:     165.2548224
  energy:             52.0617935

- temperature:       230.0000000
  free_energy:         2.7151177
  entropy:           221.7868266
  heat_capacity:     167.5657011
  energy:             53.7260878

- temperature:       240.0000000
  free_energy:         0.4611866
  entropy:           228.9633258
  heat_capacity:     169.6596530
  energy:             55.4123848

- temperature:       250.0000000
  free_energy:        -1.8634439
  entropy:           235.9283289
  heat_capacity:     171.5607549
  energy:             57.1186383

- temperature:       260.0000000
  free_energy:        -4.2567065
  entropy:           242.6912869
  heat_capacity:     173.2902212
  energy:             58.8430281

- temperature:       270.0000000
  free_energy:        -6.7166266
  entropy:           249.2613324
  heat_capacity:     174.8667203
  energy:             60.5839331

- temperature:       280.0000000
  free_energy:        -9.2413194
  entropy:           255.6472391
  heat_capacity:     176.3066729
  energy:             62.3399076

- temperature:       290.0000000
  free_energy:       -11.8289856
  entropy:           261.8573979
  heat_capacity:     177.6245256
  energy:             64.1096598

- temperature:       300.0000000
  free_energy:       -14.4779082
  entropy:           267.8998062
  heat_capacity:     178.8329964
  energy:             65.8920336

- temperature:       310.0000000
  free_energy:       -17.1864480
  entropy:           273.7820663
  heat_capacity:     179.9432930
  energy:             67.6859926

- temperature:       320.0000000
  free_energy:       -19.9530398
  entropy:           279.5113911
  heat_capacity:     180.9653047
  energy:             69.4906053

- temperature:       330.0000000
  free_energy:       -22.7761888
  entropy:           285.0946135
  heat_capacity:     181.9077705
  energy:             71.3050336

- temperature:       340.0000000
  free_energy:       -25.6544667
  entropy:           290.5382004
  heat_capacity:     182.7784250
  energy:             73.1285215

- temperature:       350.0000000
  free_energy:       -28.5865078
  entropy:           295.8482672
  heat_capacity:     183.5841262
  energy:             74.9603857

- temperature:       360.0000000
  free_energy:       -31.5710062
  entropy:           301.0305948
  heat_capacity:     184.3309649
  energy:             76.8000079

- temperature:       370.0000000
  free_energy:       -34.6067121
  entropy:           306.0906462
  heat_capacity:     185.0243612
  energy:             78.6468269

- temperature:       380.0000000
  free_energy:       -37.6924288
  entropy:           311.0335840
  heat_capacity:     185.6691468
  energy:             80.5003331

- temperature:       390.0000000
  free_energy:       -40.8270097
  entropy:           315.8642872
  heat_capacity:     186.2696371
  energy:             82.3600623

- temperature:       400.0000000
  free_energy:       -44.0093558
  entropy:           320.5873674
  heat_capacity:     186.8296933
  energy:             84.2255911

- temperature:       410.0000000
  free_energy:       -47.2384129
  entropy:           325.2071850
  heat_capacity:     187.3527770
  energy:             86.0965329

- temperature:       420.0000000
  free_energy:       -50.5131691
  entropy:           329.7278641
  heat_capacity:     187.8419967
  energy:             87.9725338

- temperature:       430.0000000
  free_energy:       -53.8326528
  entropy:           334.1533072
  heat_capacity:     188.3001495
  energy:             89.8532693

- temperature:       440.0000000
  free_energy:       -57.1959301
  entropy:           338.4872087
  heat_capacity:     188.7297561
  energy:             91.7384417

- temperature:       450.0000000
  free_energy:       -60.6021035
  entropy:           342.7330676
  heat_capacity:     189.1330924
  energy:             93.6277769

- temperature:       460.0000000
  free_energy:       -64.0503091
  entropy:           346.8941998
  heat_capacity:     189.5122168
  energy:             95.5210228

- temperature:       470.0000000
  free_energy:       -67.5397156
  entropy:           350.9737497
  heat_capacity:     189.8689939
  energy:             97.4179468

- temperature:       480.0000000
  free_energy:       -71.0695221
  entropy:           354.9747000
  heat_capacity:     190.2051159
  energy:             99.3183339

- temperature:       490.0000000
  free_energy:       -74.6389570
  entropy:           358.8998825
  heat_capacity:     190.5221205
  energy:            101.2219854

- temperature:       500.0000000
  free_energy:       -78.2472762
  entropy:           362.7519868
  heat_capacity:     190.8214075
  energy:            103.1287173

- temperature:       510.0000000
  free_energy:       -81.8937617
  entropy:           366.5335695
  heat_capacity:     191.1042529
  energy:            105.0383588

- temperature:       520.0000000
  free_energy:       -85.5777206
  entropy:           370.2470615
  heat_capacity:     191.3718218
  energy:            106.9507514

- temperature:       530.0000000
  free_energy:       -89.2984837
  entropy:           373.8947764
  heat_capacity:     191.6251795
  energy:            108.8657478

- temperature:       540.0000000
  free_energy:       -93.0554042
  entropy:           377.4789169
  heat_capacity:     191.8653012
  energy:            110.7832109

- temperature:       550.0000000
  free_energy:       -96.8478571
  entropy:           381.0015815
  heat_capacity:     192.0930813
  energy:            112.7030127

- temperature:       560.0000000
  free_energy:      -100.6752376
  entropy:           384.4647709
  heat_capacity:     192.3093406
  energy:            114.6250341

- temperature:       570.0000000
  free_energy:      -104.5369606
  entropy:           387.8703935
  heat_capacity:     192.5148339
  energy:            116.5491637

- temperature:       580.0000000
  free_energy:      -108.4324597
  entropy:           391.2202705
  heat_capacity:     192.7102558
  energy:            118.4752972

- temperature:       590.0000000
  free_energy:      -112.3611860
  entropy:           394.5161413
  heat_capacity:     192.8962466
  energy:            120.4033373

- temperature:       600.0000000
  free_energy:      -116.3226080
  entropy:           397.7596679
  heat_capacity:     193.0733970
  energy:            122.3331927

- temperature:       610.0000000
  free_energy:      -120.3162102
  entropy:           400.9524391
  heat_capacity:     193.2422526
  energy:            124.2647776

- temperature:       620.0000000
  free_energy:      -124.3414927
  entropy:           404.0959750
  heat_capacity:     193.4033182
  energy:            126.1980118

- temperature:       630.0000000
  free_energy:      -128.3979705
  entropy:           407.1917302
  heat_capacity:     193.5570609
  energy:            128.1328196

- temperature:       640.0000000
  free_energy:      -132.4851727
  entropy:           410.2410980
  heat_capacity:     193.7039138
  energy:            130.0691300

- temperature:       650.0000000
  free_energy:      -136.6026422
  entropy:           413.2454131
  heat_capacity:     193.8442789
  energy:            132.0068762

- temperature:       660.0000000
  free_energy:      -140.7499350
  entropy:           416.2059550
  heat_capacity:     193.9785294
  energy:            133.9459952

- temperature:       670.0000000
  free_energy:      -144.9266195
  entropy:           419.1239510
  heat_capacity:     194.1070122
  energy:            135.8864276

- temperature:       680.0000000
  free_energy:      -149.1322762
  entropy:           422.0005787
  heat_capacity:     194.2300504
  energy:            137.8281173

- temperature:       690.0000000
  free_energy:      -153.3664970
  entropy:           424.8369688
  heat_capacity:     194.3479448
  energy:            139.7710115

- temperature:       700.0000000
  free_energy:      -157.6288850
  entropy:           427.6342072
  heat_capacity:     194.4609760
  energy:            141.7150600

- temperature:       710.0000000
  free_energy:      -161.9190541
  entropy:           430.3933377
  heat_capacity:     194.5694057
  energy:            143.6602157

- temperature:       720.0000000
  free_energy:      -166.2366281
  entropy:           433.1153635
  heat_capacity:     194.6734786
  energy:            145.6064336

- temperature:       730.0000000
  free_energy:      -170.5812409
  entropy:           435.8012498
  heat_capacity:     194.7734232
  energy:            147.5536715

- temperature:       740.0000000
  free_energy:      -174.9525358
  entropy:           438.4519254
  heat_capacity:     194.8694537
  energy:            149.5018890

- temperature:       750.0000000
  free_energy:      -179.3501650
  entropy:           441.0682843
  heat_capacity:     194.9617702
  energy:            151.4510482

- temperature:       760.0000000
  free_energy:      -183.7737899
  entropy:           443.6511876
  heat_capacity:     195.0505607
  energy:            153.4011127

- temperature:       770.0000000
  free_energy:      -188.2230800
  entropy:           446.2014653
  heat_capacity:     195.1360013
  energy:            155.3520482

- temperature:       780.0000000
  free_energy:      -192.6977131
  entropy:           448.7199170
  heat_capacity:     195.2182573
  energy:            157.3038221

- temperature:       790.0000000
  free_energy:      -197.1973749
  entropy:           451.2073141
  heat_capacity:     195.2974841
  energy:            159.2564033

- temperature:       800.0000000
  free_energy:      -201.7217584
  entropy:           453.6644007
  heat_capacity:     195.3738278
  energy:            161.2097622

- temperature:       810.0000000
  free_energy:      -206.2705642
  entropy:           456.0918950
  heat_capacity:     195.4474257
  energy:            163.1638707

- temperature:       820.0000000
  free_energy:      -210.8435000
  entropy:           458.4904902
  heat_capacity:     195.5184073
  energy:            165.1187020

- temperature:       830.0000000
  free_energy:      -215.4402800
  entropy:           460.8608560
  heat_capacity:     195.5868943
  energy:            167.0742305

- temperature:       840.0000000
  free_energy:      -220.0606252
  entropy:           463.2036394
  heat_capacity:     195.6530018
  energy:            169.0304319

- temperature:       850.0000000
  free_energy:      -224.7042629
  entropy:           465.5194657
  heat_capacity:     195.7168380
  energy:            170.9872830

- temperature:       860.0000000
  free_energy:      -229.3709266
  entropy:           467.8089396
  heat_capacity:     195.7785054
  energy:            172.9447614

- temperature:       870.0000000
  free_energy:      -234.0603558
  entropy:           470.0726459
  heat_capacity:     195.8381005
  energy:            174.9028462

- temperature:       880.0000000
  free_energy:      -238.7722955
  entropy:           472.3111505
  heat_capacity:     195.8957148
  energy:            176.8615169

- temperature:       890.0000000
  free_energy:      -243.5064966
  entropy:           474.5250009
  heat_capacity:     195.9514346
  energy:            178.8207541

- temperature:       900.0000000
  free_energy:      -248.2627151
  entropy:           476.7147274
  heat_capacity:     196.0053417
  energy:            180.7805395

- temperature:       910.0000000
  free_energy:      -253.0407125
  entropy:           478.8808436
  heat_capacity:     196.0575136
  energy:            182.7408552

- temperature:       920.0000000
  free_energy:      -257.8402550
  entropy:           481.0238470
  heat_capacity:     196.1080236
  energy:            184.7016842

- temperature:       930.0000000
  free_energy:      -262.6611140
  entropy:           483.1442197
  heat_capacity:     196.1569411
  energy:            186.6630104

- temperature:       940.0000000
  free_energy:      -267.5030655
  entropy:           485.2424292
  heat_capacity:     196.2043323
  energy:            188.6248180

- temperature:       950.0000000
  free_energy:      -272.3658902
  entropy:           487.3189288
  heat_capacity:     196.2502596
  energy:            190.5870921

- temperature:       960.0000000
  free_energy:      -277.2493732
  entropy:           489.3741580
  heat_capacity:     196.2947825
  energy:            192.5498185

- temperature:       970.0000000
  free_energy:      -282.1533039
  entropy:           491.4085435
  heat_capacity:     196.3379574
  energy:            194.5129833

- temperature:       980.0000000
  free_energy:      -287.0774759
  entropy:           493.4224992
  heat_capacity:     196.3798381
  energy:            196.4765733

- temperature:       990.0000000
  free_energy:      -292.0216871
  entropy:           495.4164273
  heat_capacity:     196.4204754
  energy:            198.4405759

- temperature:      1000.0000000
  free_energy:      -296.9857390
  entropy:           497.3907179
  heat_capacity:     196.4599180
  energy:            200.4049788
