# Tetrahedron method
       -1.0509662652        0.0000000000
       -0.9879082963        0.0000000000
       -0.9248503274        0.0000000000
       -0.8617923585        0.0000000000
       -0.7987343896        0.0000000000
       -0.7356764207        0.0000000000
       -0.6726184518        0.0000000000
       -0.6095604829        0.0000000000
       -0.5465025140        0.0000000000
       -0.4834445452        0.0000000000
       -0.4203865763        0.0000000000
       -0.3573286074        0.0000000000
       -0.2942706385        0.0000000000
       -0.2312126696        0.0000000000
       -0.1681547007        0.0000000000
       -0.1050967318        0.0000000000
       -0.0420387629        0.0000000000
        0.0210192060        0.0003488787
        0.0840771749        0.0055820731
        0.1471351438        0.0189086481
        0.2101931126        0.0664886230
        0.2732510815        0.1136584713
        0.3363090504        0.1919873861
        0.3993670193        0.2796316090
        0.4624249882        0.3924707110
        0.5254829571        0.5376695251
        0.5885409260        0.6881491952
        0.6515988949        0.8980952654
        0.7146568638        1.1102375409
        0.7777148327        1.3989268606
        0.8407728016        1.7695381464
        0.9038307704        1.7216356631
        0.9668887393        2.1594343786
        1.0299467082        2.4762287572
        1.0930046771        2.9970295083
        1.1560626460        3.3243566644
        1.2191206149        3.4951597078
        1.2821785838        4.0233971115
        1.3452365527        4.8979890791
        1.4082945216        5.2166119184
        1.4713524905        6.1388894881
        1.5344104594        7.3031356435
        1.5974684283        6.7300643506
        1.6605263971        7.5395491782
        1.7235843660        7.1534740616
        1.7866423349        8.7556852438
        1.8497003038        8.5653390592
        1.9127582727        8.8774868513
        1.9758162416        9.5760016532
        2.0388742105       10.0038814482
        2.1019321794       10.6773099786
        2.1649901483       12.8494299083
        2.2280481172       12.6464636722
        2.2911060861       15.3614334579
        2.3541640549       13.5801586681
        2.4172220238       13.9652143695
        2.4802799927       13.9358716738
        2.5433379616       13.4238467556
        2.6063959305        6.6279983564
        2.6694538994        2.6718845621
        2.7325118683        1.8956333783
        2.7955698372        1.2389909736
        2.8586278061        0.3403072538
        2.9216857750        0.2130648513
        2.9847437439        0.0929173786
        3.0478017127        0.0000000000
        3.1108596816        0.0000000000
        3.1739176505        0.0000000000
        3.2369756194        0.0000000000
        3.3000335883        0.0000000000
        3.3630915572        0.0000000000
        3.4261495261        0.0000000000
        3.4892074950        0.0000000000
        3.5522654639        0.0000000000
        3.6153234328        0.0000000000
        3.6783814017        0.0000000000
        3.7414393705        0.0000000000
        3.8044973394        0.0000000000
        3.8675553083        0.0000000000
        3.9306132772        0.0000000000
        3.9936712461        0.0000000000
        4.0567292150        0.0000000000
        4.1197871839        0.0000000000
        4.1828451528        0.0000000000
        4.2459031217        0.0000000000
        4.3089610906        0.0000000000
        4.3720190595        0.0000000000
        4.4350770284        0.0000000000
        4.4981349972        0.0000000000
        4.5611929661        0.0000000000
        4.6242509350        0.0000000000
        4.6873089039        0.0000000000
        4.7503668728        0.0000000000
        4.8134248417        0.0000000000
        4.8764828106        0.0000000000
        4.9395407795        0.0000000000
        5.0025987484        0.0000000000
        5.0656567173        0.0000000000
        5.1287146862        0.0000000000
        5.1917726550        0.0000000000
        5.2548306239        0.0000000000
        5.3178885928        0.0000000000
        5.3809465617        0.0000000000
        5.4440045306        0.0000000000
        5.5070624995        0.0000000000
        5.5701204684        0.0000000000
        5.6331784373        0.0000000000
        5.6962364062        0.0000000000
        5.7592943751        0.0000000000
        5.8223523440        0.0000000000
        5.8854103128        0.0000000000
        5.9484682817        0.0000000000
        6.0115262506        0.0000000000
        6.0745842195        0.0000000000
        6.1376421884        0.0000000000
        6.2007001573        0.0000000000
        6.2637581262        0.0000000000
        6.3268160951        0.0000000000
        6.3898740640        0.0000000000
        6.4529320329        0.0000000000
        6.5159900018        0.0000000000
        6.5790479707        0.0000000000
        6.6421059395        0.0000000000
        6.7051639084        0.0000000000
        6.7682218773        0.0000000000
        6.8312798462        0.0000000000
        6.8943378151        0.0716473149
        6.9573957840        0.4174066664
        7.0204537529        0.5648879921
        7.0835117218        0.7452505015
        7.1465696907        0.9041165842
        7.2096276596        1.1421540410
        7.2726856285        1.2212549467
        7.3357435973        1.3544622924
        7.3988015662        1.8134505777
        7.4618595351        1.9496934431
        7.5249175040        1.8108468142
        7.5879754729        2.3911128995
        7.6510334418        3.1658843549
        7.7140914107        3.5915956160
        7.7771493796        3.5946497482
        7.8402073485        4.1975055928
        7.9032653174        4.5840002380
        7.9663232863        4.7213441523
        8.0293812551        6.1519104357
        8.0924392240        8.0248009400
        8.1554971929        8.0606517705
        8.2185551618        7.7097016892
        8.2816131307        6.4598371682
        8.3446710996        5.7903991129
        8.4077290685        5.5614575878
        8.4707870374        6.0539345489
        8.5338450063        5.6150451502
        8.5969029752        5.5739795494
        8.6599609441        5.2021370754
        8.7230189129        5.0399102558
        8.7860768818        4.9357080099
        8.8491348507        5.0105649019
        8.9121928196        4.6541933129
        8.9752507885        4.7159372502
        9.0383087574        4.8381689773
        9.1013667263        4.9699291941
        9.1644246952        5.2586035372
        9.2274826641        6.0875558260
        9.2905406330        6.8482940013
        9.3535986019        8.6073089003
        9.4166565708        8.1896643892
        9.4797145396        8.0409645428
        9.5427725085        7.8609136259
        9.6058304774        7.6014833759
        9.6688884463        6.3103615942
        9.7319464152        6.6838990243
        9.7950043841        4.5692089277
        9.8580623530        3.5671083169
        9.9211203219        3.0128039429
        9.9841782908        2.6087039568
       10.0472362597        2.1630352773
       10.1102942286        2.1122572936
       10.1733521974        1.6731995664
       10.2364101663        1.3864614991
       10.2994681352        1.1121397313
       10.3625261041        0.8239523547
       10.4255840730        0.4570549614
       10.4886420419        0.1235329189
       10.5517000108        0.0000000000
       10.6147579797        0.0000000000
       10.6778159486        0.0000000000
       10.7408739175        0.0000000000
       10.8039318864        0.0000000000
       10.8669898552        0.0000000000
       10.9300478241        0.0000000000
       10.9931057930        0.0000000000
       11.0561637619        0.0000000000
       11.1192217308        0.0000000000
       11.1822796997        0.0000000000
       11.2453376686        0.0000000000
       11.3083956375        0.0000000000
       11.3714536064        0.0000000000
       11.4345115753        0.0000000000
       11.4975695442        0.0000000000
       11.5606275131        0.0000000000
