# Thermal properties / unit cell (natom)

unit:
  temperature:   K
  free_energy:   kJ/mol
  entropy:       J/K/mol
  heat_capacity: J/K/mol

natom: 7    
cutoff_frequency: 0.00000
num_modes: 176400
num_integrated_modes: 176364

zero_point_energy:      18.8270343

thermal_properties:
- temperature:         0.0000000
  free_energy:        18.8270343
  entropy:             0.0000000
  heat_capacity:       0.0000000
  energy:             18.8270343

- temperature:        10.0000000
  free_energy:        18.8209858
  entropy:             2.2708792
  heat_capacity:       5.9759682
  energy:             18.8436946

- temperature:        20.0000000
  free_energy:        18.7580004
  entropy:            11.1423389
  heat_capacity:      21.8831684
  energy:             18.9808471

- temperature:        30.0000000
  free_energy:        18.5880912
  entropy:            23.1367912
  heat_capacity:      38.2564923
  energy:             19.2821949

- temperature:        40.0000000
  free_energy:        18.2916240
  entropy:            36.2563509
  heat_capacity:      53.4441572
  energy:             19.7418780

- temperature:        50.0000000
  free_energy:        17.8619599
  entropy:            49.6913344
  heat_capacity:      67.2725944
  energy:             20.3465266

- temperature:        60.0000000
  free_energy:        17.2979405
  entropy:            63.0885376
  heat_capacity:      79.8717725
  energy:             21.0832528

- temperature:        70.0000000
  free_energy:        16.6009113
  entropy:            76.2710666
  heat_capacity:      91.2469176
  energy:             21.9398860

- temperature:        80.0000000
  free_energy:        15.7736029
  entropy:            89.1296343
  heat_capacity:     101.3588430
  energy:             22.9039736

- temperature:        90.0000000
  free_energy:        14.8196440
  entropy:           101.5915093
  heat_capacity:     110.2180958
  energy:             23.9628798

- temperature:       100.0000000
  free_energy:        13.7432480
  entropy:           113.6115363
  heat_capacity:     117.8985371
  energy:             25.1044016

- temperature:       110.0000000
  free_energy:        12.5489647
  entropy:           125.1667092
  heat_capacity:     124.5151093
  energy:             26.3173027

- temperature:       120.0000000
  free_energy:        11.2414850
  entropy:           136.2509134
  heat_capacity:     130.1988601
  energy:             27.5915947

- temperature:       130.0000000
  free_energy:         9.8254975
  entropy:           146.8700556
  heat_capacity:     135.0796879
  energy:             28.9186047

- temperature:       140.0000000
  free_energy:         8.3055884
  entropy:           157.0380237
  heat_capacity:     139.2770125
  energy:             30.2909117

- temperature:       150.0000000
  free_energy:         6.6861786
  entropy:           166.7736004
  heat_capacity:     142.8959393
  energy:             31.7022187

- temperature:       160.0000000
  free_energy:         4.9714863
  entropy:           176.0982390
  heat_capacity:     146.0266098
  energy:             33.1472045

- temperature:       170.0000000
  free_energy:         3.1655083
  entropy:           185.0345304
  heat_capacity:     148.7451571
  energy:             34.6213785

- temperature:       180.0000000
  free_energy:         1.2720144
  entropy:           193.6051844
  heat_capacity:     151.1153298
  energy:             36.1209476

- temperature:       190.0000000
  free_energy:        -0.7054506
  entropy:           201.8323821
  heat_capacity:     153.1902747
  energy:             37.6427020

- temperature:       200.0000000
  free_energy:        -2.7635594
  entropy:           209.7373834
  heat_capacity:     155.0142346
  energy:             39.1839173

- temperature:       210.0000000
  free_energy:        -4.8991915
  entropy:           217.3403098
  heat_capacity:     156.6240548
  energy:             40.7422735

- temperature:       220.0000000
  free_energy:        -7.1094217
  entropy:           224.6600425
  heat_capacity:     158.0504718
  energy:             42.3157876

- temperature:       230.0000000
  free_energy:        -9.3915072
  entropy:           231.7141957
  heat_capacity:     159.3191911
  energy:             43.9027578

- temperature:       240.0000000
  free_energy:       -11.7428751
  entropy:           238.5191379
  heat_capacity:     160.4517771
  energy:             45.5017180

- temperature:       250.0000000
  free_energy:       -14.1611100
  entropy:           245.0900414
  heat_capacity:     161.4663828
  energy:             47.1114004

- temperature:       260.0000000
  free_energy:       -16.6439427
  entropy:           251.4409481
  heat_capacity:     162.3783448
  energy:             48.7307038

- temperature:       270.0000000
  free_energy:       -19.1892390
  entropy:           257.5848434
  heat_capacity:     163.2006697
  energy:             50.3586687

- temperature:       280.0000000
  free_energy:       -21.7949897
  entropy:           263.5337326
  heat_capacity:     163.9444292
  energy:             51.9944555

- temperature:       290.0000000
  free_energy:       -24.4593008
  entropy:           269.2987166
  heat_capacity:     164.6190844
  energy:             53.6373271

- temperature:       300.0000000
  free_energy:       -27.1803853
  entropy:           274.8900642
  heat_capacity:     165.2327498
  energy:             55.2866340

- temperature:       310.0000000
  free_energy:       -29.9565550
  entropy:           280.3172812
  heat_capacity:     165.7924106
  energy:             56.9418022

- temperature:       320.0000000
  free_energy:       -32.7862132
  entropy:           285.5891738
  heat_capacity:     166.3041014
  energy:             58.6023224

- temperature:       330.0000000
  free_energy:       -35.6678480
  entropy:           290.7139086
  heat_capacity:     166.7730539
  energy:             60.2677418

- temperature:       340.0000000
  free_energy:       -38.6000262
  entropy:           295.6990660
  heat_capacity:     167.2038185
  energy:             61.9376562

- temperature:       350.0000000
  free_energy:       -41.5813876
  entropy:           300.5516908
  heat_capacity:     167.6003664
  energy:             63.6117042

- temperature:       360.0000000
  free_energy:       -44.6106401
  entropy:           305.2783369
  heat_capacity:     167.9661740
  energy:             65.2895612

- temperature:       370.0000000
  free_energy:       -47.6865548
  entropy:           309.8851087
  heat_capacity:     168.3042940
  energy:             66.9709354

- temperature:       380.0000000
  free_energy:       -50.8079617
  entropy:           314.3776986
  heat_capacity:     168.6174148
  energy:             68.6555637

- temperature:       390.0000000
  free_energy:       -53.9737459
  entropy:           318.7614212
  heat_capacity:     168.9079104
  energy:             70.3432083

- temperature:       400.0000000
  free_energy:       -57.1828439
  entropy:           323.0412436
  heat_capacity:     169.1778834
  energy:             72.0336536

- temperature:       410.0000000
  free_energy:       -60.4342400
  entropy:           327.2218142
  heat_capacity:     169.4292006
  energy:             73.7267038

- temperature:       420.0000000
  free_energy:       -63.7269639
  entropy:           331.3074876
  heat_capacity:     169.6635237
  energy:             75.4221809

- temperature:       430.0000000
  free_energy:       -67.0600871
  entropy:           335.3023481
  heat_capacity:     169.8823353
  energy:             77.1199226

- temperature:       440.0000000
  free_energy:       -70.4327209
  entropy:           339.2102302
  heat_capacity:     170.0869616
  energy:             78.8197804

- temperature:       450.0000000
  free_energy:       -73.8440138
  entropy:           343.0347385
  heat_capacity:     170.2785914
  energy:             80.5216185

- temperature:       460.0000000
  free_energy:       -77.2931491
  entropy:           346.7792643
  heat_capacity:     170.4582926
  energy:             82.2253125

- temperature:       470.0000000
  free_energy:       -80.7793431
  entropy:           350.4470021
  heat_capacity:     170.6270267
  energy:             83.9307478

- temperature:       480.0000000
  free_energy:       -84.3018432
  entropy:           354.0409637
  heat_capacity:     170.7856611
  energy:             85.6378193

- temperature:       490.0000000
  free_energy:       -87.8599260
  entropy:           357.5639918
  heat_capacity:     170.9349796
  energy:             87.3464300

- temperature:       500.0000000
  free_energy:       -91.4528956
  entropy:           361.0187717
  heat_capacity:     171.0756923
  energy:             89.0564903

- temperature:       510.0000000
  free_energy:       -95.0800824
  entropy:           364.4078426
  heat_capacity:     171.2084432
  energy:             90.7679173

- temperature:       520.0000000
  free_energy:       -98.7408414
  entropy:           367.7336077
  heat_capacity:     171.3338177
  energy:             92.4806345

- temperature:       530.0000000
  free_energy:      -102.4345511
  entropy:           370.9983434
  heat_capacity:     171.4523487
  energy:             94.1945709

- temperature:       540.0000000
  free_energy:      -106.1606121
  entropy:           374.2042082
  heat_capacity:     171.5645222
  energy:             95.9096603

- temperature:       550.0000000
  free_energy:      -109.9184459
  entropy:           377.3532500
  heat_capacity:     171.6707820
  energy:             97.6258416

- temperature:       560.0000000
  free_energy:      -113.7074942
  entropy:           380.4474139
  heat_capacity:     171.7715342
  energy:             99.3430576

- temperature:       570.0000000
  free_energy:      -117.5272174
  entropy:           383.4885484
  heat_capacity:     171.8671507
  energy:            101.0612552

- temperature:       580.0000000
  free_energy:      -121.3770943
  entropy:           386.4784119
  heat_capacity:     171.9579728
  energy:            102.7803846

- temperature:       590.0000000
  free_energy:      -125.2566204
  entropy:           389.4186780
  heat_capacity:     172.0443140
  energy:            104.5003997

- temperature:       600.0000000
  free_energy:      -129.1653078
  entropy:           392.3109413
  heat_capacity:     172.1264629
  energy:            106.2212570

- temperature:       610.0000000
  free_energy:      -133.1026842
  entropy:           395.1567215
  heat_capacity:     172.2046851
  energy:            107.9429159

- temperature:       620.0000000
  free_energy:      -137.0682921
  entropy:           397.9574686
  heat_capacity:     172.2792258
  energy:            109.6653384

- temperature:       630.0000000
  free_energy:      -141.0616881
  entropy:           400.7145666
  heat_capacity:     172.3503113
  energy:            111.3884889

- temperature:       640.0000000
  free_energy:      -145.0824424
  entropy:           403.4293378
  heat_capacity:     172.4181509
  energy:            113.1123338

- temperature:       650.0000000
  free_energy:      -149.1301380
  entropy:           406.1030457
  heat_capacity:     172.4829385
  energy:            114.8368417

- temperature:       660.0000000
  free_energy:      -153.2043705
  entropy:           408.7368992
  heat_capacity:     172.5448536
  energy:            116.5619830

- temperature:       670.0000000
  free_energy:      -157.3047470
  entropy:           411.3320549
  heat_capacity:     172.6040629
  energy:            118.2877298

- temperature:       680.0000000
  free_energy:      -161.4308863
  entropy:           413.8896206
  heat_capacity:     172.6607211
  energy:            120.0140557

- temperature:       690.0000000
  free_energy:      -165.5824177
  entropy:           416.4106577
  heat_capacity:     172.7149721
  energy:            121.7409362

- temperature:       700.0000000
  free_energy:      -169.7589811
  entropy:           418.8961838
  heat_capacity:     172.7669499
  energy:            123.4683476

- temperature:       710.0000000
  free_energy:      -173.9602262
  entropy:           421.3471750
  heat_capacity:     172.8167793
  energy:            125.1962680

- temperature:       720.0000000
  free_energy:      -178.1858126
  entropy:           423.7645680
  heat_capacity:     172.8645766
  energy:            126.9246764

- temperature:       730.0000000
  free_energy:      -182.4354086
  entropy:           426.1492626
  heat_capacity:     172.9104504
  energy:            128.6535531

- temperature:       740.0000000
  free_energy:      -186.7086917
  entropy:           428.5021231
  heat_capacity:     172.9545023
  energy:            130.3828794

- temperature:       750.0000000
  free_energy:      -191.0053477
  entropy:           430.8239802
  heat_capacity:     172.9968271
  energy:            132.1126374

- temperature:       760.0000000
  free_energy:      -195.3250706
  entropy:           433.1156330
  heat_capacity:     173.0375137
  energy:            133.8428104

- temperature:       770.0000000
  free_energy:      -199.6675623
  entropy:           435.3778503
  heat_capacity:     173.0766452
  energy:            135.5733825

- temperature:       780.0000000
  free_energy:      -204.0325320
  entropy:           437.6113723
  heat_capacity:     173.1142998
  energy:            137.3043384

- temperature:       790.0000000
  free_energy:      -208.4196964
  entropy:           439.8169117
  heat_capacity:     173.1505505
  energy:            139.0356638

- temperature:       800.0000000
  free_energy:      -212.8287792
  entropy:           441.9951553
  heat_capacity:     173.1854661
  energy:            140.7673450

- temperature:       810.0000000
  free_energy:      -217.2595108
  entropy:           444.1467650
  heat_capacity:     173.2191111
  energy:            142.4993689

- temperature:       820.0000000
  free_energy:      -221.7116279
  entropy:           446.2723793
  heat_capacity:     173.2515464
  energy:            144.2317232

- temperature:       830.0000000
  free_energy:      -226.1848738
  entropy:           448.3726141
  heat_capacity:     173.2828290
  energy:            145.9643960

- temperature:       840.0000000
  free_energy:      -230.6789976
  entropy:           450.4480639
  heat_capacity:     173.3130128
  energy:            147.6973761

- temperature:       850.0000000
  free_energy:      -235.1937543
  entropy:           452.4993025
  heat_capacity:     173.3421486
  energy:            149.4306528

- temperature:       860.0000000
  free_energy:      -239.7289048
  entropy:           454.5268843
  heat_capacity:     173.3702841
  energy:            151.1642157

- temperature:       870.0000000
  free_energy:      -244.2842149
  entropy:           456.5313451
  heat_capacity:     173.3974645
  energy:            152.8980552

- temperature:       880.0000000
  free_energy:      -248.8594563
  entropy:           458.5132026
  heat_capacity:     173.4237325
  energy:            154.6321620

- temperature:       890.0000000
  free_energy:      -253.4544053
  entropy:           460.4729577
  heat_capacity:     173.4491284
  energy:            156.3665270

- temperature:       900.0000000
  free_energy:      -258.0688434
  entropy:           462.4110946
  heat_capacity:     173.4736902
  energy:            158.1011418

- temperature:       910.0000000
  free_energy:      -262.7025567
  entropy:           464.3280823
  heat_capacity:     173.4974541
  energy:            159.8359981

- temperature:       920.0000000
  free_energy:      -267.3553361
  entropy:           466.2243743
  heat_capacity:     173.5204540
  energy:            161.5710883

- temperature:       930.0000000
  free_energy:      -272.0269767
  entropy:           468.1004102
  heat_capacity:     173.5427224
  energy:            163.3064048

- temperature:       940.0000000
  free_energy:      -276.7172782
  entropy:           469.9566155
  heat_capacity:     173.5642899
  energy:            165.0419404

- temperature:       950.0000000
  free_energy:      -281.4260443
  entropy:           471.7934028
  heat_capacity:     173.5851855
  energy:            166.7776883

- temperature:       960.0000000
  free_energy:      -286.1530828
  entropy:           473.6111717
  heat_capacity:     173.6054368
  energy:            168.5136420

- temperature:       970.0000000
  free_energy:      -290.8982056
  entropy:           475.4103099
  heat_capacity:     173.6250699
  energy:            170.2497950

- temperature:       980.0000000
  free_energy:      -295.6612282
  entropy:           477.1911934
  heat_capacity:     173.6441098
  energy:            171.9861414

- temperature:       990.0000000
  free_energy:      -300.4419698
  entropy:           478.9541870
  heat_capacity:     173.6625800
  energy:            173.7226753

- temperature:      1000.0000000
  free_energy:      -305.2402535
  entropy:           480.6996446
  heat_capacity:     173.6805030
  energy:            175.4593912
