phonopy:
  version: "2.37.1"
  frequency_unit_conversion_factor: 15.633302
  symmetry_tolerance: 1.00000e-05

space_group:
  type: "Fm-3m"
  number: 225
  Hall_symbol: "-F 4 2 3"

primitive_matrix:
- [  0.000000000000000,  1.000000000000000,  0.000000000000000 ]
- [ -0.000000000000000,  0.000000000000000,  1.000000000000000 ]
- [  1.000000000000000,  0.000000000000000, -0.000000000000000 ]

supercell_matrix:
- [   3,   0,   0 ]
- [   0,   3,   0 ]
- [   0,   0,   3 ]

primitive_cell:
  lattice:
  - [     2.324709005000000,     1.342171369824297,     3.796233908468790 ] # a
  - [     4.649418009999999,     0.000000000000000,     0.000000000000000 ] # b
  - [     2.324709005000000,     4.026514109472890,    -0.000000000000000 ] # c
  points:
  - symbol: Li # 1
    coordinates: [  0.250000000000000,  0.250000000000000,  0.250000000000000 ]
    mass: 6.940000
  - symbol: Li # 2
    coordinates: [  0.750000000000000,  0.750000000000000,  0.750000000000000 ]
    mass: 6.940000
  - symbol: Li # 3
    coordinates: [  0.500000000000000,  0.500000000000000,  0.500000000000000 ]
    mass: 6.940000
  - symbol: Sn # 4
    coordinates: [  0.000000000000000,  0.000000000000000,  0.000000000000000 ]
    mass: 118.710000
  reciprocal_lattice: # without 2pi
  - [     0.000000000000000,     0.000000000000000,     0.263418963138483 ] # a*
  - [     0.215080682754098,    -0.124176890085567,    -0.087806321046161 ] # b*
  - [     0.000000000000000,     0.248353780171134,    -0.087806321046161 ] # c*

unit_cell:
  lattice:
  - [     4.649418010000000,     0.000000000000000,     0.000000000000000 ] # a
  - [     2.324709005000000,     4.026514109472891,     0.000000000000000 ] # b
  - [     2.324709005000000,     1.342171369824297,     3.796233908468791 ] # c
  points:
  - symbol: Li # 1
    coordinates: [  0.250000000000000,  0.250000000000000,  0.250000000000000 ]
    mass: 6.940000
    reduced_to: 1
  - symbol: Li # 2
    coordinates: [  0.750000000000000,  0.750000000000000,  0.750000000000000 ]
    mass: 6.940000
    reduced_to: 2
  - symbol: Li # 3
    coordinates: [  0.500000000000000,  0.500000000000000,  0.500000000000000 ]
    mass: 6.940000
    reduced_to: 3
  - symbol: Sn # 4
    coordinates: [  0.000000000000000,  0.000000000000000,  0.000000000000000 ]
    mass: 118.710000
    reduced_to: 4

supercell:
  lattice:
  - [    13.948254029999999,     0.000000000000000,     0.000000000000000 ] # a
  - [     6.974127015000001,    12.079542328418672,     0.000000000000000 ] # b
  - [     6.974127015000001,     4.026514109472892,    11.388701725406374 ] # c
  points:
  - symbol: Li # 1
    coordinates: [  0.083333333333333,  0.083333333333333,  0.083333333333333 ]
    mass: 6.940000
    reduced_to: 1
  - symbol: Li # 2
    coordinates: [  0.416666666666667,  0.083333333333333,  0.083333333333333 ]
    mass: 6.940000
    reduced_to: 1
  - symbol: Li # 3
    coordinates: [  0.750000000000000,  0.083333333333333,  0.083333333333333 ]
    mass: 6.940000
    reduced_to: 1
  - symbol: Li # 4
    coordinates: [  0.083333333333333,  0.416666666666667,  0.083333333333333 ]
    mass: 6.940000
    reduced_to: 1
  - symbol: Li # 5
    coordinates: [  0.416666666666667,  0.416666666666667,  0.083333333333333 ]
    mass: 6.940000
    reduced_to: 1
  - symbol: Li # 6
    coordinates: [  0.750000000000000,  0.416666666666667,  0.083333333333333 ]
    mass: 6.940000
    reduced_to: 1
  - symbol: Li # 7
    coordinates: [  0.083333333333333,  0.750000000000000,  0.083333333333333 ]
    mass: 6.940000
    reduced_to: 1
  - symbol: Li # 8
    coordinates: [  0.416666666666667,  0.750000000000000,  0.083333333333333 ]
    mass: 6.940000
    reduced_to: 1
  - symbol: Li # 9
    coordinates: [  0.750000000000000,  0.750000000000000,  0.083333333333333 ]
    mass: 6.940000
    reduced_to: 1
  - symbol: Li # 10
    coordinates: [  0.083333333333333,  0.083333333333333,  0.416666666666667 ]
    mass: 6.940000
    reduced_to: 1
  - symbol: Li # 11
    coordinates: [  0.416666666666667,  0.083333333333333,  0.416666666666667 ]
    mass: 6.940000
    reduced_to: 1
  - symbol: Li # 12
    coordinates: [  0.750000000000000,  0.083333333333333,  0.416666666666667 ]
    mass: 6.940000
    reduced_to: 1
  - symbol: Li # 13
    coordinates: [  0.083333333333333,  0.416666666666667,  0.416666666666667 ]
    mass: 6.940000
    reduced_to: 1
  - symbol: Li # 14
    coordinates: [  0.416666666666667,  0.416666666666667,  0.416666666666667 ]
    mass: 6.940000
    reduced_to: 1
  - symbol: Li # 15
    coordinates: [  0.750000000000000,  0.416666666666667,  0.416666666666667 ]
    mass: 6.940000
    reduced_to: 1
  - symbol: Li # 16
    coordinates: [  0.083333333333333,  0.750000000000000,  0.416666666666667 ]
    mass: 6.940000
    reduced_to: 1
  - symbol: Li # 17
    coordinates: [  0.416666666666667,  0.750000000000000,  0.416666666666667 ]
    mass: 6.940000
    reduced_to: 1
  - symbol: Li # 18
    coordinates: [  0.750000000000000,  0.750000000000000,  0.416666666666667 ]
    mass: 6.940000
    reduced_to: 1
  - symbol: Li # 19
    coordinates: [  0.083333333333333,  0.083333333333333,  0.750000000000000 ]
    mass: 6.940000
    reduced_to: 1
  - symbol: Li # 20
    coordinates: [  0.416666666666667,  0.083333333333333,  0.750000000000000 ]
    mass: 6.940000
    reduced_to: 1
  - symbol: Li # 21
    coordinates: [  0.750000000000000,  0.083333333333333,  0.750000000000000 ]
    mass: 6.940000
    reduced_to: 1
  - symbol: Li # 22
    coordinates: [  0.083333333333333,  0.416666666666667,  0.750000000000000 ]
    mass: 6.940000
    reduced_to: 1
  - symbol: Li # 23
    coordinates: [  0.416666666666667,  0.416666666666667,  0.750000000000000 ]
    mass: 6.940000
    reduced_to: 1
  - symbol: Li # 24
    coordinates: [  0.750000000000000,  0.416666666666667,  0.750000000000000 ]
    mass: 6.940000
    reduced_to: 1
  - symbol: Li # 25
    coordinates: [  0.083333333333333,  0.750000000000000,  0.750000000000000 ]
    mass: 6.940000
    reduced_to: 1
  - symbol: Li # 26
    coordinates: [  0.416666666666667,  0.750000000000000,  0.750000000000000 ]
    mass: 6.940000
    reduced_to: 1
  - symbol: Li # 27
    coordinates: [  0.750000000000000,  0.750000000000000,  0.750000000000000 ]
    mass: 6.940000
    reduced_to: 1
  - symbol: Li # 28
    coordinates: [  0.250000000000000,  0.250000000000000,  0.250000000000000 ]
    mass: 6.940000
    reduced_to: 28
  - symbol: Li # 29
    coordinates: [  0.583333333333333,  0.250000000000000,  0.250000000000000 ]
    mass: 6.940000
    reduced_to: 28
  - symbol: Li # 30
    coordinates: [  0.916666666666667,  0.250000000000000,  0.250000000000000 ]
    mass: 6.940000
    reduced_to: 28
  - symbol: Li # 31
    coordinates: [  0.250000000000000,  0.583333333333333,  0.250000000000000 ]
    mass: 6.940000
    reduced_to: 28
  - symbol: Li # 32
    coordinates: [  0.583333333333333,  0.583333333333333,  0.250000000000000 ]
    mass: 6.940000
    reduced_to: 28
  - symbol: Li # 33
    coordinates: [  0.916666666666667,  0.583333333333333,  0.250000000000000 ]
    mass: 6.940000
    reduced_to: 28
  - symbol: Li # 34
    coordinates: [  0.250000000000000,  0.916666666666667,  0.250000000000000 ]
    mass: 6.940000
    reduced_to: 28
  - symbol: Li # 35
    coordinates: [  0.583333333333333,  0.916666666666667,  0.250000000000000 ]
    mass: 6.940000
    reduced_to: 28
  - symbol: Li # 36
    coordinates: [  0.916666666666667,  0.916666666666667,  0.250000000000000 ]
    mass: 6.940000
    reduced_to: 28
  - symbol: Li # 37
    coordinates: [  0.250000000000000,  0.250000000000000,  0.583333333333333 ]
    mass: 6.940000
    reduced_to: 28
  - symbol: Li # 38
    coordinates: [  0.583333333333333,  0.250000000000000,  0.583333333333333 ]
    mass: 6.940000
    reduced_to: 28
  - symbol: Li # 39
    coordinates: [  0.916666666666667,  0.250000000000000,  0.583333333333333 ]
    mass: 6.940000
    reduced_to: 28
  - symbol: Li # 40
    coordinates: [  0.250000000000000,  0.583333333333333,  0.583333333333333 ]
    mass: 6.940000
    reduced_to: 28
  - symbol: Li # 41
    coordinates: [  0.583333333333333,  0.583333333333333,  0.583333333333333 ]
    mass: 6.940000
    reduced_to: 28
  - symbol: Li # 42
    coordinates: [  0.916666666666667,  0.583333333333333,  0.583333333333333 ]
    mass: 6.940000
    reduced_to: 28
  - symbol: Li # 43
    coordinates: [  0.250000000000000,  0.916666666666667,  0.583333333333333 ]
    mass: 6.940000
    reduced_to: 28
  - symbol: Li # 44
    coordinates: [  0.583333333333333,  0.916666666666667,  0.583333333333333 ]
    mass: 6.940000
    reduced_to: 28
  - symbol: Li # 45
    coordinates: [  0.916666666666667,  0.916666666666667,  0.583333333333333 ]
    mass: 6.940000
    reduced_to: 28
  - symbol: Li # 46
    coordinates: [  0.250000000000000,  0.250000000000000,  0.916666666666667 ]
    mass: 6.940000
    reduced_to: 28
  - symbol: Li # 47
    coordinates: [  0.583333333333333,  0.250000000000000,  0.916666666666667 ]
    mass: 6.940000
    reduced_to: 28
  - symbol: Li # 48
    coordinates: [  0.916666666666667,  0.250000000000000,  0.916666666666667 ]
    mass: 6.940000
    reduced_to: 28
  - symbol: Li # 49
    coordinates: [  0.250000000000000,  0.583333333333333,  0.916666666666667 ]
    mass: 6.940000
    reduced_to: 28
  - symbol: Li # 50
    coordinates: [  0.583333333333333,  0.583333333333333,  0.916666666666667 ]
    mass: 6.940000
    reduced_to: 28
  - symbol: Li # 51
    coordinates: [  0.916666666666667,  0.583333333333333,  0.916666666666667 ]
    mass: 6.940000
    reduced_to: 28
  - symbol: Li # 52
    coordinates: [  0.250000000000000,  0.916666666666667,  0.916666666666667 ]
    mass: 6.940000
    reduced_to: 28
  - symbol: Li # 53
    coordinates: [  0.583333333333333,  0.916666666666667,  0.916666666666667 ]
    mass: 6.940000
    reduced_to: 28
  - symbol: Li # 54
    coordinates: [  0.916666666666667,  0.916666666666667,  0.916666666666667 ]
    mass: 6.940000
    reduced_to: 28
  - symbol: Li # 55
    coordinates: [  0.166666666666667,  0.166666666666667,  0.166666666666667 ]
    mass: 6.940000
    reduced_to: 55
  - symbol: Li # 56
    coordinates: [  0.500000000000000,  0.166666666666667,  0.166666666666667 ]
    mass: 6.940000
    reduced_to: 55
  - symbol: Li # 57
    coordinates: [  0.833333333333333,  0.166666666666667,  0.166666666666667 ]
    mass: 6.940000
    reduced_to: 55
  - symbol: Li # 58
    coordinates: [  0.166666666666667,  0.500000000000000,  0.166666666666667 ]
    mass: 6.940000
    reduced_to: 55
  - symbol: Li # 59
    coordinates: [  0.500000000000000,  0.500000000000000,  0.166666666666667 ]
    mass: 6.940000
    reduced_to: 55
  - symbol: Li # 60
    coordinates: [  0.833333333333333,  0.500000000000000,  0.166666666666667 ]
    mass: 6.940000
    reduced_to: 55
  - symbol: Li # 61
    coordinates: [  0.166666666666667,  0.833333333333333,  0.166666666666667 ]
    mass: 6.940000
    reduced_to: 55
  - symbol: Li # 62
    coordinates: [  0.500000000000000,  0.833333333333333,  0.166666666666667 ]
    mass: 6.940000
    reduced_to: 55
  - symbol: Li # 63
    coordinates: [  0.833333333333333,  0.833333333333333,  0.166666666666667 ]
    mass: 6.940000
    reduced_to: 55
  - symbol: Li # 64
    coordinates: [  0.166666666666667,  0.166666666666667,  0.500000000000000 ]
    mass: 6.940000
    reduced_to: 55
  - symbol: Li # 65
    coordinates: [  0.500000000000000,  0.166666666666667,  0.500000000000000 ]
    mass: 6.940000
    reduced_to: 55
  - symbol: Li # 66
    coordinates: [  0.833333333333333,  0.166666666666667,  0.500000000000000 ]
    mass: 6.940000
    reduced_to: 55
  - symbol: Li # 67
    coordinates: [  0.166666666666667,  0.500000000000000,  0.500000000000000 ]
    mass: 6.940000
    reduced_to: 55
  - symbol: Li # 68
    coordinates: [  0.500000000000000,  0.500000000000000,  0.500000000000000 ]
    mass: 6.940000
    reduced_to: 55
  - symbol: Li # 69
    coordinates: [  0.833333333333333,  0.500000000000000,  0.500000000000000 ]
    mass: 6.940000
    reduced_to: 55
  - symbol: Li # 70
    coordinates: [  0.166666666666667,  0.833333333333333,  0.500000000000000 ]
    mass: 6.940000
    reduced_to: 55
  - symbol: Li # 71
    coordinates: [  0.500000000000000,  0.833333333333333,  0.500000000000000 ]
    mass: 6.940000
    reduced_to: 55
  - symbol: Li # 72
    coordinates: [  0.833333333333333,  0.833333333333333,  0.500000000000000 ]
    mass: 6.940000
    reduced_to: 55
  - symbol: Li # 73
    coordinates: [  0.166666666666667,  0.166666666666667,  0.833333333333333 ]
    mass: 6.940000
    reduced_to: 55
  - symbol: Li # 74
    coordinates: [  0.500000000000000,  0.166666666666667,  0.833333333333333 ]
    mass: 6.940000
    reduced_to: 55
  - symbol: Li # 75
    coordinates: [  0.833333333333333,  0.166666666666667,  0.833333333333333 ]
    mass: 6.940000
    reduced_to: 55
  - symbol: Li # 76
    coordinates: [  0.166666666666667,  0.500000000000000,  0.833333333333333 ]
    mass: 6.940000
    reduced_to: 55
  - symbol: Li # 77
    coordinates: [  0.500000000000000,  0.500000000000000,  0.833333333333333 ]
    mass: 6.940000
    reduced_to: 55
  - symbol: Li # 78
    coordinates: [  0.833333333333333,  0.500000000000000,  0.833333333333333 ]
    mass: 6.940000
    reduced_to: 55
  - symbol: Li # 79
    coordinates: [  0.166666666666667,  0.833333333333333,  0.833333333333333 ]
    mass: 6.940000
    reduced_to: 55
  - symbol: Li # 80
    coordinates: [  0.500000000000000,  0.833333333333333,  0.833333333333333 ]
    mass: 6.940000
    reduced_to: 55
  - symbol: Li # 81
    coordinates: [  0.833333333333333,  0.833333333333333,  0.833333333333333 ]
    mass: 6.940000
    reduced_to: 55
  - symbol: Sn # 82
    coordinates: [  0.000000000000000,  0.000000000000000,  0.000000000000000 ]
    mass: 118.710000
    reduced_to: 82
  - symbol: Sn # 83
    coordinates: [  0.333333333333333,  0.000000000000000,  0.000000000000000 ]
    mass: 118.710000
    reduced_to: 82
  - symbol: Sn # 84
    coordinates: [  0.666666666666667,  0.000000000000000,  0.000000000000000 ]
    mass: 118.710000
    reduced_to: 82
  - symbol: Sn # 85
    coordinates: [  0.000000000000000,  0.333333333333333,  0.000000000000000 ]
    mass: 118.710000
    reduced_to: 82
  - symbol: Sn # 86
    coordinates: [  0.333333333333333,  0.333333333333333,  0.000000000000000 ]
    mass: 118.710000
    reduced_to: 82
  - symbol: Sn # 87
    coordinates: [  0.666666666666667,  0.333333333333333,  0.000000000000000 ]
    mass: 118.710000
    reduced_to: 82
  - symbol: Sn # 88
    coordinates: [  0.000000000000000,  0.666666666666667,  0.000000000000000 ]
    mass: 118.710000
    reduced_to: 82
  - symbol: Sn # 89
    coordinates: [  0.333333333333333,  0.666666666666667,  0.000000000000000 ]
    mass: 118.710000
    reduced_to: 82
  - symbol: Sn # 90
    coordinates: [  0.666666666666667,  0.666666666666667,  0.000000000000000 ]
    mass: 118.710000
    reduced_to: 82
  - symbol: Sn # 91
    coordinates: [  0.000000000000000,  0.000000000000000,  0.333333333333333 ]
    mass: 118.710000
    reduced_to: 82
  - symbol: Sn # 92
    coordinates: [  0.333333333333333,  0.000000000000000,  0.333333333333333 ]
    mass: 118.710000
    reduced_to: 82
  - symbol: Sn # 93
    coordinates: [  0.666666666666667,  0.000000000000000,  0.333333333333333 ]
    mass: 118.710000
    reduced_to: 82
  - symbol: Sn # 94
    coordinates: [  0.000000000000000,  0.333333333333333,  0.333333333333333 ]
    mass: 118.710000
    reduced_to: 82
  - symbol: Sn # 95
    coordinates: [  0.333333333333333,  0.333333333333333,  0.333333333333333 ]
    mass: 118.710000
    reduced_to: 82
  - symbol: Sn # 96
    coordinates: [  0.666666666666667,  0.333333333333333,  0.333333333333333 ]
    mass: 118.710000
    reduced_to: 82
  - symbol: Sn # 97
    coordinates: [  0.000000000000000,  0.666666666666667,  0.333333333333333 ]
    mass: 118.710000
    reduced_to: 82
  - symbol: Sn # 98
    coordinates: [  0.333333333333333,  0.666666666666667,  0.333333333333333 ]
    mass: 118.710000
    reduced_to: 82
  - symbol: Sn # 99
    coordinates: [  0.666666666666667,  0.666666666666667,  0.333333333333333 ]
    mass: 118.710000
    reduced_to: 82
  - symbol: Sn # 100
    coordinates: [  0.000000000000000,  0.000000000000000,  0.666666666666667 ]
    mass: 118.710000
    reduced_to: 82
  - symbol: Sn # 101
    coordinates: [  0.333333333333333,  0.000000000000000,  0.666666666666667 ]
    mass: 118.710000
    reduced_to: 82
  - symbol: Sn # 102
    coordinates: [  0.666666666666667,  0.000000000000000,  0.666666666666667 ]
    mass: 118.710000
    reduced_to: 82
  - symbol: Sn # 103
    coordinates: [  0.000000000000000,  0.333333333333333,  0.666666666666667 ]
    mass: 118.710000
    reduced_to: 82
  - symbol: Sn # 104
    coordinates: [  0.333333333333333,  0.333333333333333,  0.666666666666667 ]
    mass: 118.710000
    reduced_to: 82
  - symbol: Sn # 105
    coordinates: [  0.666666666666667,  0.333333333333333,  0.666666666666667 ]
    mass: 118.710000
    reduced_to: 82
  - symbol: Sn # 106
    coordinates: [  0.000000000000000,  0.666666666666667,  0.666666666666667 ]
    mass: 118.710000
    reduced_to: 82
  - symbol: Sn # 107
    coordinates: [  0.333333333333333,  0.666666666666667,  0.666666666666667 ]
    mass: 118.710000
    reduced_to: 82
  - symbol: Sn # 108
    coordinates: [  0.666666666666667,  0.666666666666667,  0.666666666666667 ]
    mass: 118.710000
    reduced_to: 82

displacements:
- atom:    1
  displacement:
    [   0.0100000000000000,  0.0000000000000000,  0.0000000000000000 ]
  forces:
  - [  -0.0226233396679163,  0.0001149464515038,  0.0000813510268927 ]
  - [  -0.0004771858220920,  0.0000846609473228,  0.0000596935860813 ]
  - [  -0.0004939727950841, -0.0000839207204990, -0.0000595115125179 ]
  - [  -0.0000112392008305, -0.0003558082389645,  0.0001350874081254 ]
  - [  -0.0000074082054198,  0.0000000133877620, -0.0000003804452717 ]
  - [  -0.0000133663415909,  0.0003594899899326, -0.0001364769414067 ]
  - [  -0.0000149876577780, -0.0001907619880512,  0.0000751214101911 ]
  - [  -0.0000097053125501,  0.0001876294845715, -0.0000775293447077 ]
  - [  -0.0000073711853474, -0.0000009357463568,  0.0000002589076757 ]
  - [  -0.0000112819252536,  0.0000088606029749, -0.0003802813589573 ]
  - [  -0.0000074990093708, -0.0000000027357601,  0.0000003729946911 ]
  - [  -0.0000133182620630, -0.0000085289939307,  0.0003847815096378 ]
  - [   0.0000046258792281, -0.0000069644302130, -0.0000042566098273 ]
  - [   0.0000043907202780,  0.0000068811932579,  0.0000052987597883 ]
  - [  -0.0000093068229035, -0.0000002147280611,  0.0000003888271749 ]
  - [  -0.0000275188358501,  0.0000009129871614,  0.0000016652047634 ]
  - [   0.0000172419240698, -0.0000144218211062,  0.0000227214768529 ]
  - [   0.0000173486769199,  0.0000162021024153, -0.0000207195989788 ]
  - [  -0.0000151497079059,  0.0000078557059169, -0.0002037272788584 ]
  - [  -0.0000098230084404, -0.0000098086893559,  0.0002037435770035 ]
  - [  -0.0000072144903243,  0.0000005047768354,  0.0000001899898052 ]
  - [  -0.0000274644698948, -0.0000001639127731,  0.0000006430782378 ]
  - [   0.0000172064173967,  0.0000144643709064, -0.0000204956158996 ]
  - [   0.0000173808075488, -0.0000164536759257,  0.0000227470882237 ]
  - [   0.0000046025961637, -0.0000075171701610, -0.0000039571896195 ]
  - [  -0.0000092396512628, -0.0000006048940122,  0.0000007739290595 ]
  - [   0.0000043157488108,  0.0000061737373471,  0.0000057350844145 ]
  - [  -0.0001702001318336, -0.0000828721094877, -0.0000582449138165 ]
  - [  -0.0001725433394313,  0.0000843170564622,  0.0000598905608058 ]
  - [   0.0002235043793917, -0.0000040989834815, -0.0000027054920793 ]
  - [  -0.0000267541036010, -0.0000011790543795,  0.0000005788169801 ]
  - [   0.0000104964710772, -0.0000190772116184, -0.0000012675300241 ]
  - [   0.0000102799385786,  0.0000182553194463,  0.0000013853423297 ]
  - [   0.0005329836858436, -0.0001804283820093,  0.0004551107995212 ]
  - [   0.0000424137106165, -0.0000000884756446,  0.0000002598389983 ]
  - [   0.0005268134409562,  0.0001730429939926, -0.0004425989463925 ]
  - [  -0.0000267084687948,  0.0000002316664904, -0.0000012042000890 ]
  - [   0.0000104270875454, -0.0000074538402259, -0.0000171535648406 ]
  - [   0.0000102831982076,  0.0000075064599514,  0.0000169812701643 ]
  - [   0.0000083595514297, -0.0000069711823016, -0.0000044917687774 ]
  - [  -0.0000168839469552, -0.0000004915054888, -0.0000001103617251 ]
  - [   0.0000085411593318,  0.0000059364829212,  0.0000043394975364 ]
  - [   0.0000214544124901, -0.0000002807937562,  0.0000124620273709 ]
  - [   0.0000210978323594, -0.0000025145709515, -0.0000127749517560 ]
  - [  -0.0002056378871202, -0.0000012321397662,  0.0000003641471267 ]
  - [   0.0005330763524398,  0.0003689714358188, -0.0003219014033675 ]
  - [   0.0000424009049311,  0.0000002688029781,  0.0000000046566129 ]
  - [   0.0005267852684483, -0.0003594838781282,  0.0003109560348094 ]
  - [   0.0000213827006519,  0.0000128973624669, -0.0000027655623853 ]
  - [   0.0000213372986764, -0.0000114178983495,  0.0000035399571061 ]
  - [  -0.0002057022647932,  0.0000013339449652,  0.0000005001202226 ]
  - [  -0.0001008788822219,  0.0000014326402606,  0.0000025331974030 ]
  - [  -0.0004427793901414,  0.0001340423186775,  0.0000964752398431 ]
  - [  -0.0004427965031937, -0.0001397319429088, -0.0000972282141447 ]
  - [   0.0028030741959810,  0.0018417361425236,  0.0013018525205553 ]
  - [  -0.0000259069493040,  0.0000000401632860, -0.0000004280591384 ]
  - [   0.0027483459562063, -0.0017979159019887, -0.0012717458885163 ]
  - [  -0.0000044514890760, -0.0000117715680972, -0.0000069050583988 ]
  - [  -0.0000045939814299,  0.0000122683122754,  0.0000058104051277 ]
  - [  -0.0000191577710211,  0.0000005876645446, -0.0000005060574040 ]
  - [  -0.0003764652647078,  0.0000099200988188, -0.0000036271521822 ]
  - [   0.0001468388363719, -0.0000956370495260,  0.0000237394124269 ]
  - [   0.0001475745812058,  0.0000963541097008, -0.0000252715544775 ]
  - [  -0.0000045464839786, -0.0000098422169685, -0.0000093486160040 ]
  - [  -0.0000046528875828,  0.0000103339552879,  0.0000092145055532 ]
  - [  -0.0000191394938156,  0.0000005513429642, -0.0000002458691597 ]
  - [   0.0000128378160298, -0.0000002811430022,  0.0000000912696123 ]
  - [  -0.0000063190236688,  0.0000091519905254,  0.0000064428895712 ]
  - [  -0.0000065646599978, -0.0000094874994829, -0.0000064838677645 ]
  - [   0.0001529112923890, -0.0000994137953967,  0.0000753961503506 ]
  - [  -0.0000227545388043, -0.0000002927845344,  0.0000004619359970 ]
  - [   0.0001531520392746,  0.0000995162408799, -0.0000754408538342 ]
  - [  -0.0003763549029827,  0.0000005904585123,  0.0000103339552879 ]
  - [   0.0001471154391766, -0.0000088438391685, -0.0000986382365227 ]
  - [   0.0001476742327213,  0.0000088121742010,  0.0000986922532320 ]
  - [   0.0001528579741716,  0.0000378228724003, -0.0001190192997456 ]
  - [  -0.0000223349779844,  0.0000000335276127, -0.0000007636845112 ]
  - [   0.0001530852168798, -0.0000382084399462,  0.0001185741275549 ]
  - [   0.0001240646524820, -0.0000264547998086, -0.0000177416950464 ]
  - [   0.0001257835683646,  0.0000303190900013,  0.0000222921371460 ]
  - [  -0.0000238734355662, -0.0000011448282748,  0.0000001247972250 ]
  - [   0.0078386664390564,  0.0043407659977674,  0.0030683167278767 ]
  - [   0.0080438554286957, -0.0044974731281400, -0.0031812470406294 ]
  - [   0.0002008192241192, -0.0000007804483175, -0.0000016801059246 ]
  - [   0.0002876892685890, -0.0000215806066990,  0.0000060945749283 ]
  - [   0.0000248141586781,  0.0000435598194599, -0.0000951681286097 ]
  - [   0.0000245012342930, -0.0000449288636446,  0.0000930223613977 ]
  - [   0.0000240281224251,  0.0001051239669323, -0.0000293012708426 ]
  - [  -0.0000523552298546,  0.0000037495046854, -0.0000002812594175 ]
  - [   0.0000227168202400, -0.0000994903966784,  0.0000273007899523 ]
  - [   0.0002879500389099, -0.0000006947666407, -0.0000221319496632 ]
  - [   0.0000249445438385, -0.0000744629651308,  0.0000730939209461 ]
  - [   0.0000246837735176,  0.0000731404870749, -0.0000732708722353 ]
  - [  -0.0000047590583563,  0.0000524297356606,  0.0000370088964701 ]
  - [   0.0000292677432299, -0.0000001797452569,  0.0000001583248377 ]
  - [  -0.0000054910778999, -0.0000510523095727, -0.0000363010913134 ]
  - [   0.0000287592411041, -0.0000365199521184, -0.0000383183360100 ]
  - [   0.0000287685543299,  0.0000379299744964,  0.0000348351895809 ]
  - [  -0.0000154115259647, -0.0000000027939677, -0.0000006370246410 ]
  - [   0.0000240057706833,  0.0000085383653641,  0.0001075472682714 ]
  - [  -0.0000520646572113,  0.0000013839453459,  0.0000020451843739 ]
  - [   0.0000228211283684, -0.0000065378844738, -0.0001042410731316 ]
  - [   0.0000288747251034, -0.0000476520508528, -0.0000221170485020 ]
  - [   0.0000285096466541,  0.0000460892915726,  0.0000238455832005 ]
  - [  -0.0000153407454491, -0.0000000689178705, -0.0000003818422556 ]
  - [   0.0000103041529655,  0.0000017527490854, -0.0000003632158041 ]
  - [  -0.0000052675604820, -0.0000035138800740, -0.0000048894435167 ]
  - [  -0.0000050552189350,  0.0000082058832049,  0.0000039376318455 ]
- atom:   55
  displacement:
    [   0.0100000000000000,  0.0000000000000000,  0.0000000000000000 ]
  forces:
  - [   0.0027485175523907,  0.0017982067074627,  0.0012712990865111 ]
  - [   0.0028025985229760, -0.0018416105303913, -0.0013022995553911 ]
  - [  -0.0000255120685324,  0.0000004395260476,  0.0000001345761120 ]
  - [  -0.0003762689884752, -0.0000052842660807,  0.0000049974769354 ]
  - [   0.0001481631770730,  0.0000971905537881, -0.0000767349265516 ]
  - [   0.0001464302185923, -0.0000953134731390,  0.0000787344761193 ]
  - [  -0.0000045420601964, -0.0000131247797981, -0.0000065318308771 ]
  - [  -0.0000190620776266, -0.0000001781154424,  0.0000002696178854 ]
  - [  -0.0000047285575420,  0.0000113903079182,  0.0000064424239099 ]
  - [  -0.0003763138083741,  0.0000031023519114, -0.0000066081993282 ]
  - [   0.0001480607315898, -0.0000396584509872,  0.0001173946075141 ]
  - [   0.0001463192747906,  0.0000429201172665, -0.0001157876104116 ]
  - [   0.0001245359890163,  0.0000203173840418,  0.0000149803236127 ]
  - [  -0.0000237402273342, -0.0000001596636139,  0.0000004968605936 ]
  - [   0.0001253627706319, -0.0000231859739870, -0.0000158557668328 ]
  - [   0.0001527065178379, -0.0000102980993688, -0.0000997423194349 ]
  - [   0.0001530750887468,  0.0000140257179737,  0.0001021237112582 ]
  - [  -0.0000222766539082,  0.0000008467468433,  0.0000011473894119 ]
  - [  -0.0000045193592086, -0.0000097136944532, -0.0000089132227004 ]
  - [  -0.0000191139988601,  0.0000009061768651,  0.0000009676441550 ]
  - [  -0.0000045869965106,  0.0000105183571577,  0.0000097653828561 ]
  - [   0.0001527536660433, -0.0000996040180326,  0.0000239927321672 ]
  - [   0.0001531608868390,  0.0000990033149719, -0.0000203354284167 ]
  - [  -0.0000222715316340, -0.0000007455237210,  0.0000009145587683 ]
  - [   0.0000129165127873, -0.0000004125759006,  0.0000011110678315 ]
  - [  -0.0000063572078943, -0.0000097141601145, -0.0000054938718677 ]
  - [  -0.0000064857304096,  0.0000085956417024,  0.0000073830597103 ]
  - [   0.0028025349602103,  0.0018413688521832,  0.0013022813946009 ]
  - [  -0.0000255610793829, -0.0000004803296179, -0.0000001569278538 ]
  - [   0.0027485005557537, -0.0017984355799854, -0.0012712678872049 ]
  - [  -0.0000046496279538, -0.0000123851932585, -0.0000065746717155 ]
  - [  -0.0000046575441957,  0.0000120420008898,  0.0000063525512815 ]
  - [  -0.0000190641731024, -0.0000009383074939, -0.0000004381872714 ]
  - [  -0.0003763914573938,  0.0000056796707213, -0.0000056866556406 ]
  - [   0.0001480195205659, -0.0000967564992607,  0.0000760662369430 ]
  - [   0.0001464508241042,  0.0000955942086875, -0.0000793663784862 ]
  - [  -0.0000048913061619, -0.0000100992619991, -0.0000090450048447 ]
  - [  -0.0000045262277126,  0.0000100566539913,  0.0000094496645033 ]
  - [  -0.0000190404243767, -0.0000003906898201, -0.0000003539025784 ]
  - [   0.0000128839164972, -0.0000004554167390, -0.0000000754371285 ]
  - [  -0.0000063627958298,  0.0000087139196694,  0.0000063469633460 ]
  - [  -0.0000064279884100, -0.0000095949508250, -0.0000064601190388 ]
  - [   0.0001531102461740, -0.0001008342951536,  0.0000213207677007 ]
  - [  -0.0000223665265366, -0.0000012982636690, -0.0000000065192580 ]
  - [   0.0001528137363493,  0.0000977269373834, -0.0000232108868659 ]
  - [  -0.0003763721324503, -0.0000031440868042,  0.0000074752606452 ]
  - [   0.0001481177750975,  0.0000396583345719, -0.0001165163703263 ]
  - [   0.0001464491942897, -0.0000429132487625,  0.0001167841255665 ]
  - [   0.0001530308509246, -0.0000122662750073, -0.0001005795784295 ]
  - [  -0.0000224617542699,  0.0000009181094356,  0.0000004279427230 ]
  - [   0.0001528182765469,  0.0000120698241517,  0.0001014932058752 ]
  - [   0.0001253866357729,  0.0000218277309614,  0.0000169044360518 ]
  - [   0.0001244704471901, -0.0000216402913793, -0.0000136899761856 ]
  - [  -0.0000238037900999, -0.0000011766928765,  0.0000006086193025 ]
  - [  -0.0120647512376308,  0.0000001281732693, -0.0000002139713615 ]
  - [   0.0003796912496909,  0.0000000162981451, -0.0000005075708032 ]
  - [   0.0003649079008028,  0.0000001633306965, -0.0000001324806362 ]
  - [  -0.0000106291845441,  0.0002223849296570,  0.0001397237647325 ]
  - [   0.0000196695327759,  0.0000003086170182, -0.0000006157206371 ]
  - [  -0.0000112208072096, -0.0002202858449891, -0.0001394667197019 ]
  - [  -0.0000113314017653,  0.0002210943493992,  0.0001385950017720 ]
  - [  -0.0000105700455606, -0.0002215981949121, -0.0001406158553436 ]
  - [   0.0000195298343897,  0.0000004455796443, -0.0000002866145223 ]
  - [  -0.0000106086954474,  0.0002064201980829,  0.0001624301075935 ]