3
Lattice="3.9327424867923386 0.0011934016112790898 2.2689777619675287 1.3100276594089413 3.7076393533395584 2.267673800728255 0.0006748173096712101 0.0007828524378369667 4.538720484552586" Properties=species:S:1:pos:R:3:forces:R:3 structure_index=0 total_energy=-9.42534065246582 stress="0.05330640822649002 -0.0018947581993415952 0.00047232932411134243 -0.0018947615753859282 0.04771106317639351 -0.003400768619030714 0.0004725363978650421 -0.0034008962102234364 0.03983556479215622" pbc="T T T"
Li       1.53933284       3.05712184       2.14329546       0.00135332       0.00111608       0.00218260
Ga       1.54200459       0.27821128       2.14708234      -0.00095860      -0.00178257      -0.00500749
Sn       2.85312145       1.20546111       4.41526010      -0.00039472       0.00066649       0.00282490
20
Lattice="4.153978068095707 0.00010361737420465653 0.002190694002882234 0.0005342428393402999 8.336406058245778 -1.3743993175531675 -0.005500575839504209 -0.40803724752529946 10.485275873963461" Properties=species:S:1:pos:R:3:forces:R:3 structure_index=1 total_energy=-56.420494079589844 stress="-0.013765574432909489 6.868692253192421e-06 1.561762110213749e-05 6.973333711357554e-06 -0.01081522461026907 -0.0011971758212894201 1.565732600283809e-05 -0.001197216333821416 -0.018495110794901848" pbc="T T T"
Li       1.85730159       1.20867167       4.03195805       0.00026247       0.01653789       0.01762278
Li       1.85551161       1.85440834       8.13817565      -0.00044127       0.00989571       0.00187558
Li       3.93343459       1.57668655       6.05909728      -0.00016424      -0.01311599      -0.01034262
Li       3.93231084      -0.31169901       8.42196811      -0.00045831       0.01740408       0.03649579
Li       1.85527394       5.99564184       7.42875690       0.00056207      -0.01247827      -0.02161299
Li       3.93540916       0.81165114       2.03708550       0.00009266       0.01265031      -0.01930461
Li       3.93236325       3.99048939       7.77130472      -0.00005205      -0.00972390       0.00714959
Li       3.93376572       5.59943908       5.38338118      -0.00042878      -0.00007529      -0.05277541
Li       1.85756738       5.30422309       3.36336969       0.00030206      -0.00469245       0.02429125
Li       3.93450147       3.24634026       3.66063037       0.00010767      -0.00846111      -0.01579101
Li       3.93636842       2.59960151      -0.20874587       0.00062063       0.00387465       0.01006252
Li       1.85889868       7.10802800       1.06668831      -0.00000571       0.01125664       0.02690582
Li       3.93574474       5.03797051       1.35731694      -0.00009032      -0.02099086      -0.01340273
Ga       1.85882986       2.92686698       1.73223359      -0.00057833      -0.00669888       0.01029526
Ga       3.93688517       6.76952124      -1.02492186      -0.00001887      -0.00678687      -0.00646744
Sn       1.85672586       7.77469791       5.07005110       0.00056108       0.00831744       0.01077273
Sn       1.85969979       4.71059314      -0.61781877       0.00010776       0.01171360      -0.00347656
Sn       1.85650169       3.57070093       5.68628360       0.00013742      -0.00132602       0.02710409
Sn       3.93491082       7.42722250       3.02291613      -0.00055726      -0.00041186      -0.01072961
Sn       1.85949488       0.48494384       0.03702996       0.00004133      -0.00688887      -0.01867247
10
Lattice="3.012233945759162 0.00024302256202374722 0.00032209932925891224 -0.0006030888255921498 7.905811700175758 0.0008062725797757065 -0.0008360656950734058 -0.000783454363275097 7.909314890928622" Properties=species:S:1:pos:R:3:forces:R:3 structure_index=2 total_energy=-28.909019470214844 stress="-0.016695545986294746 1.7284583009313792e-05 -1.4888663827150594e-05 1.7288246453972533e-05 -0.01556777860969305 0.00012893500388599932 -1.4993233889981639e-05 0.0001290974032599479 -0.015749571844935417" pbc="T T T"
Li       0.26197978       7.78884452       3.43995631       0.00037510      -0.02291712       0.02339757
Li       0.26247303       2.70558133       0.61479907       0.00068467       0.02063312      -0.02081675
Li       0.26212085       6.66379301       7.38852134      -0.00053256       0.01838121       0.02711523
Li       0.26257985       3.83895744       4.56604196      -0.00031449      -0.02356390      -0.01777722
Ga       1.76880509       2.22214868       2.95680677      -0.00018844      -0.01419105      -0.01583746
Ga       1.76897312       0.36455332       1.10016265       0.00016639       0.01482831       0.01315382
Ga       1.76831948       6.17612006       5.05349572      -0.00000716      -0.01459326       0.01292698
Ga       1.76821406       4.31919610       6.91073573      -0.00004120       0.01520166      -0.01477690
Sn       1.76848296       1.29638763       5.98174137       0.00003077       0.00246519      -0.00227969
Sn       1.76878978       5.24670382       2.02709566      -0.00017309       0.00375587      -0.00510556
10
Lattice="4.539427558568534 0.0028669405220110187 0.00017709802487871594 -2.2716529336073217 3.930230829466302 0.00090090304564859 -0.0010807513992239256 -0.0022263162688644033 13.603194895569825" Properties=species:S:1:pos:R:3:forces:R:3 structure_index=3 total_energy=-32.087406158447266 stress="0.024039385840296745 -6.6223915382579435e-06 8.621313099865802e-06 -6.638956620008685e-06 0.024019626900553703 -1.6550001191717456e-06 8.52080211188877e-06 -1.6852306998771382e-06 0.017484361305832863" pbc="T T T"
Li       1.28867992       1.91605224       6.19995668       0.00032138      -0.00016809      -0.01961061
Li       1.29028303       1.91355072      10.21997549      -0.00016785       0.00016926       0.00178102
Li       1.28874256       1.91490851      14.10061518      -0.00007118       0.00014203       0.04545559
Ga      -0.98028340       3.22277517      11.19613445      -0.00012694      -0.00001527      -0.00089471
Ga       3.55941450       0.60599431       7.53862208       0.00015289       0.00007131      -0.02165341
Sn       3.55973718       0.60717076       4.70977332       0.00014319      -0.00012323      -0.01445253
Sn       3.56026838       0.60780930       1.48159079      -0.00012309      -0.00005717       0.00351115
Sn       3.56029734       0.60443722      12.04842963      -0.00019173       0.00010004       0.01110139
Sn      -0.98111916       3.22387903       8.36973402       0.00029920      -0.00008538      -0.00334242
Sn      -0.98051552       3.22565821       3.11769741      -0.00023589      -0.00003350      -0.00189542
6
Lattice="4.377321704723968 0.004305798877513881 1.3257278287882543 1.9842140615942279 3.902130745461452 1.3251690501682276 0.07381131120819182 0.04730664213066709 7.643539381149692" Properties=species:S:1:pos:R:3:forces:R:3 structure_index=4 total_energy=-17.35230827331543 stress="0.0048355478793382645 -0.00038083369145169854 0.0004542825627140701 -0.0003810541529674083 0.005233197007328272 0.0005812302115373313 0.0004539817455224693 0.000581565429456532 -0.0006807372556068003" pbc="T T T"
Li       1.66796058       1.91487144       1.86241171       0.00461457       0.00235320      -0.00858735
Li       3.48656693       0.34749552       3.76009212       0.00130258       0.00100289      -0.00923495
Ga       0.72888257       1.33788709       4.97187722      -0.00486821      -0.00251479       0.01562767
Ga       4.37015830       0.89219179       8.72269318      -0.00982731      -0.00587245       0.02941056
Ga       3.94414700       3.31249200       2.23310248      -0.00464426      -0.00310614       0.01676078
Sn       3.08881723       2.78698555       5.06467642       0.01342266       0.00813730      -0.04397674
4
Lattice="4.062330709503948 -0.00025593299563329765 0.0038001821418853924 0.0002658751317802128 4.061826820270794 0.0015325328887185222 -0.003192541171355314 -0.001288445484200222 4.436220644697703" Properties=species:S:1:pos:R:3:forces:R:3 structure_index=5 total_energy=-11.8002290725708 stress="0.10397714376449585 0.0001081011287169531 0.003049880499020219 0.00010817209113156423 0.10147115588188171 0.0012259490322321653 0.0030499740969389677 0.001225984306074679 0.001982559449970722" pbc="T T T"
Li       3.33090767       2.78354514       0.07984400       0.00068614       0.00021538      -0.00117105
Li       1.30006051       0.75288564       0.07704748      -0.00024846      -0.00011442      -0.00094526
Ga       1.29838414       2.78318309       2.29564548       0.00128865      -0.00026462       0.00036812
Sn       3.32985551       0.75206793       2.29653898      -0.00172633       0.00016366       0.00174818
3
Lattice="3.9326636416013434 0.000578806705817714 2.267582783195975 1.3108239683953065 3.709059063021203 2.2663800449277614 0.0008224752515345701 0.0008644745343868942 4.54013771535569" Properties=species:S:1:pos:R:3:forces:R:3 structure_index=6 total_energy=-9.42531967163086 stress="0.07161048799753189 -0.0005112977232784033 -0.004653570242226124 -0.0005114764790050685 0.08022254705429077 -0.006749932654201984 -0.004653240088373423 -0.006749715656042099 0.06969904154539108" pbc="T T T"
Li       2.20221300       2.07376024       3.82096733      -0.00053595      -0.00062730       0.00018040
Ga       0.89046857       1.14520233       1.55239697       0.00031906      -0.00180467      -0.00683942
Sn       3.51280054       0.21828976       6.08977065       0.00021691       0.00243198       0.00665904
12
Lattice="5.521011434575693 0.0022976826673680507 -2.051409485610055 -0.7509565772196459 5.3723179469002575 -2.016912406875389 0.04145056523984907 0.09832942571579213 8.564107787602184" Properties=species:S:1:pos:R:3:forces:R:3 structure_index=7 total_energy=-35.69123840332031 stress="0.004016499035060406 -0.0015882095322012901 -0.004414866678416729 -0.0015882141888141632 0.00046254959306679666 -0.003848468419164419 -0.004415016155689955 -0.003848570864647627 -0.005187590606510639" pbc="T T T"
Li       2.32581584       3.55492398       4.88552303      -0.01484924      -0.02056045      -0.03821541
Li       5.04143757       0.41476507      -0.48755477       0.00040717      -0.00080032       0.00180399
Li      -0.07134539       0.95472286       6.88581145      -0.01486350      -0.01611787      -0.03888888
Li       1.16715376       5.33320554       1.77208096       0.01415254       0.01708641       0.03851520
Li       4.28822397       2.75702212       1.71568356       0.01436915       0.01601288       0.03759427
Li       2.28114236       0.41395159       0.53798905       0.00036063      -0.00207953       0.00116854
Ga       1.90782499       3.10133670      -0.46457009      -0.00019715       0.00092067      -0.00182249
Ga       4.66808585       3.10236356      -1.49046804      -0.00102863       0.00061152      -0.00049610
Sn       2.87414969       1.05910440       6.35895280      -0.01191846       0.00096550      -0.03328779
Sn       1.37134817       2.44309580       2.31960592       0.00967140       0.02248129       0.02699971
Sn       3.73956965       5.25098228       0.24034004       0.01191490       0.00246920       0.03164387
Sn      -0.27606148       3.84456266       6.33964510      -0.00801880      -0.02098930      -0.02501491
4
Lattice="4.287265766858281 -6.923955655190364e-05 -0.0004086217466427364 0.0002903134451556648 4.2871992194457675 -0.00025636461961434077 0.00019436920425757928 0.00012235488311158305 4.348022579420682" Properties=species:S:1:pos:R:3:forces:R:3 structure_index=8 total_energy=-12.158585548400879 stress="0.09052126854658127 0.000643484469037503 -0.0010919759515672922 0.0006434459355659783 0.09004087001085281 -0.0006862668669782579 -0.0010920065687969327 -0.0006862307782284915 0.016785917803645134" pbc="T T T"
Li       2.44743678       3.96949414       1.63950477       0.00007915      -0.00016742       0.00006473
Ga       2.44728433       1.82591689       3.81381880       0.00031769      -0.00000985      -0.00053793
Ga       0.30392790       3.96949469       3.81361460      -0.00011833      -0.00002266       0.00019036
Sn       0.30369353       1.82580467       1.63977979      -0.00027852       0.00019993       0.00028285
5
Lattice="4.604003136342485 -0.00020416063027099468 0.00231535490512093 -2.302762924333341 3.987856928242498 -0.0029074769129068443 -0.0055914126049949045 0.0028614290818313516 5.640019555932826" Properties=species:S:1:pos:R:3:forces:R:3 structure_index=9 total_energy=-15.323674201965332 stress="0.034548722207546234 0.0028893162962049246 -0.0025854180566966534 0.002889123512431979 0.039352379739284515 0.0016061748610809445 -0.0025856075808405876 0.0016061733476817608 0.07440506666898727" pbc="T T T"
Li       0.45542689       2.91015484       0.05450259      -0.00081849      -0.00083781      -0.00003562
Li       2.75287774       1.58295983       4.08399489       0.00250079      -0.00039278       0.01663324
Ga       2.75550372       1.58138445       1.31711433       0.00080811      -0.00009988      -0.01077333
Sn       0.45302498       2.91171901       2.81547471      -0.00196526       0.00006009      -0.01406983
Sn       0.45096559       0.25391247       4.94242650      -0.00052516       0.00127037       0.00824553
4
Lattice="4.122250080108643 0.0 2.3788681030273433 1.3719740880866884 3.8859012222228246 2.378717422485352 0.0 0.0 4.759622097015381" Properties=species:S:1:pos:R:3:forces:R:3 structure_index=10 total_energy=-11.497543334960938 stress="0.07418008148670197 0.0015066267224028707 -0.0003458965220488608 0.0015069158980622888 0.06116250157356262 0.00032246572664007545 -0.00034534954465925694 0.00032209482742473483 0.0588240884244442" pbc="T T T"
Li       1.24174477       2.52496737       4.87950179      -0.00158916      -0.00010877       0.00003540
Li       2.61424179       3.49607417       7.25892152       0.00013289       0.00033832      -0.00149025
Ga       3.98897507       1.55364887       4.87931048       0.00190897      -0.00129828      -0.00206802
Sn       2.61562351       0.58168381       2.49873242      -0.00045269       0.00106873       0.00352288
18
Lattice="4.675323486072609 -1.4761957900322385e-05 -0.903946535911661 -0.14808023684610838 5.901724738221554 -0.7680196071655596 -0.021733129496233097 0.2154748652328312 12.43187516942423" Properties=species:S:1:pos:R:3:forces:R:3 structure_index=11 total_energy=-52.92644500732422 stress="0.006297013256698847 -0.0004020032938569784 -0.0003330991603434086 -0.00040204322431236506 0.0014858911745250225 -0.0019013150595128536 -0.0003331597545184195 -0.0019014052813872695 0.004562897142022848" pbc="T T T"
Li       1.38794955       4.02788611       8.37462639      -0.00078310      -0.02728832      -0.00236558
Li       0.88147221       5.28884169       5.75526448       0.00223106       0.04241030       0.01227817
Li       2.41478160       4.56553015       1.14537139      -0.00033054       0.02516746      -0.00214941
Li       3.00321725       3.62051145       4.18603221       0.00125021       0.01068475       0.00736891
Li       4.13694982       1.32454600      10.05333399      -0.00048740       0.02427589      -0.00122200
Li       0.42044765       1.75353687       3.37042513       0.00130052      -0.04818264       0.00799602
Li       1.92694409       2.85821917      11.16431953      -0.00279466       0.01265515      -0.01172464
Li       3.05711211       0.59773089       4.46596494      -0.00018692       0.00733310       0.00006741
Li       4.52741729       5.87876242      -0.47395891      -0.00294990       0.01114857      -0.01274191
Ga       3.49427107       5.44075884       6.72787321       0.00342527      -0.02775189       0.01626486
Ga       3.56996649       2.53632733       7.11683339      -0.00175517      -0.04231779      -0.00746404
Ga      -0.07418976       3.01204868       0.81467908       0.00018721       0.00995901      -0.00175507
Ga       1.85747366       5.81089828      10.80632682       0.00113297      -0.00845266       0.00260312
Sn       4.06121642       4.26741599       9.66123901      -0.00256291       0.01480202      -0.01537345
Sn       2.46547043       1.57374897       1.40582105      -0.00271395       0.01921470      -0.01372182
Sn       0.37578971       4.76391999       3.14239058       0.00524418      -0.03503935       0.02390165
Sn       0.91579283       2.37864808       5.93103239      -0.00377041       0.02678001      -0.01854710
Sn       1.48162714       1.02615455       8.86317249       0.00356355      -0.01539827       0.01658489
9
Lattice="4.151418800779023 0.005606087420198866 1.1990341197881413 1.9508834537738646 6.557306610564859 1.0018786655038758 0.14981722196129496 -0.3241377980365822 7.2702293576846335" Properties=species:S:1:pos:R:3:forces:R:3 structure_index=12 total_energy=-28.599925994873047 stress="0.003451643278822303 0.006676948629319668 0.0019425159553065896 0.006676929071545601 0.010960406623780727 -0.022871727123856544 0.0019425764912739396 -0.02287163771688938 -0.0013090260326862335" pbc="T T T"
Li       2.86327452       5.23251882       7.55514159      -0.00021794       0.00028350       0.00008137
Li       3.55146138       3.12970054       5.18147812      -0.00034737       0.00862528       0.00040325
Li       4.22602279       1.10894026       2.85501148      -0.00087409      -0.00848092       0.00244466
Ga       4.14815422       5.46853259       3.10499343       0.00173160       0.00835928      -0.00567867
Ga       5.57917918       5.32838234       5.93660094      -0.00178878      -0.01009861       0.00507128
Sn       1.53659742       0.81873897       4.37998000       0.00545049      -0.02873690      -0.01529458
Sn       2.92073793       0.81787882       7.37608506      -0.00113576       0.01114822       0.00257533
Sn       2.08865943       3.41552018       2.45919466      -0.00521756       0.02822833       0.01598271
Sn       5.00537549       3.09455968       7.93343895       0.00239942      -0.00932818      -0.00558536
15
Lattice="6.379624906320428 0.04095142981434191 0.0007026952356277787 -0.03401163319895512 6.380364105419752 -0.0010143562550398296 -0.001027518077932256 0.0013016356252566412 8.85205207242398" Properties=species:S:1:pos:R:3:forces:R:3 structure_index=13 total_energy=-49.99943923950195 stress="0.011884006671607494 0.008821824565529823 -0.0002927390160039067 0.008821805007755756 0.01460129115730524 -0.0004259611596353352 -0.0002927246387116611 -0.0004259018169250339 -0.02004915103316307" pbc="T T T"
Li       3.18909279       4.04839101       2.92733332       0.00052467       0.00058166       0.00092364
Li       0.01404888       0.84130754       2.92772291       0.00066033      -0.00120761       0.00063801
Li       0.01464493       0.84053221       7.35354381       0.00141935      -0.00016127       0.00117082
Li       3.18738746       4.05063701       7.35337234      -0.00007155      -0.00073898       0.00108023
Ga       3.20573349       0.85952970       7.35412428      -0.00233786       0.00178822       0.00066097
Ga      -0.00052688       4.02931639       2.92771866      -0.00157927       0.00080007      -0.00047083
Sn       1.57536916       2.47093704       0.63340966      -0.00724667       0.00610533       0.02929824
Sn       1.57466902       2.47200735       5.22303948      -0.00627077       0.00402530      -0.03136312
Sn       1.55801117       5.60770167       5.22354768      -0.00663707      -0.00478816      -0.03437505
Sn       3.20530286       0.85877798       2.92770138       0.00028173       0.00010483       0.00361164
Sn       4.81834955       2.49180885       0.63220201       0.00814237       0.00739628       0.03271506
Sn       4.80170489       5.62853560       5.22424430       0.00662970      -0.00616380      -0.03395530
Sn       4.80222196       5.62817872       0.63167601       0.00909405      -0.00742808       0.03233869
Sn       1.55960824       5.60737239       0.63192287      -0.00993340      -0.00682150       0.03236137
Sn       4.81782987       2.49249497       5.22487822       0.00732441       0.00650773      -0.03463440
12
Lattice="4.021411552728023 0.0028531102192577897 0.0009607965095154951 -0.0049426440333045375 5.873014900245819 -0.0016816069432966836 -0.002126252498202477 0.004153395809769307 9.070696441037674" Properties=species:S:1:pos:R:3:forces:R:3 structure_index=14 total_energy=-33.99690246582031 stress="0.02064150758087635 -0.0024274929892271757 0.0005234463606029749 -0.0024274266324937344 0.003587755374610424 0.0007551382877863944 0.000523640017490834 0.0007548429421149194 -0.005633160937577486" pbc="T T T"
Li       1.13966202       2.25008097       7.58976647       0.00006116       0.01450364       0.01601071
Li       3.15330198       0.82565464       0.13445142       0.00030158       0.00925900       0.02603788
Li       3.15020931       3.75947081       2.99563611      -0.00008762       0.00886855      -0.01511129
Li       1.13714060       5.27833648       7.52832148       0.00010782      -0.00420601      -0.01229223
Li       1.14014379       2.33876000       4.66959153       0.00061920      -0.01195729       0.02628314
Li       3.15271060       0.91746039       3.05491786      -0.00017952      -0.01817422       0.01543220
Ga       3.14975557       3.67723366       6.12015389      -0.00118809       0.01649253      -0.01337730
Ga       1.13869176       5.35981626       1.58239963      -0.00088792      -0.00900845      -0.00813674
Ga       3.15201542       0.92174276       6.15894961      -0.00089514      -0.02180926      -0.03498106
Ga       1.14123679       2.24651824       1.62139523      -0.00084976       0.01045812      -0.02967250
Sn       3.15052310       3.76401583       0.06896391       0.00138731       0.00939429       0.01484642
Sn       1.13743951       5.27219012       4.60375171       0.00161101      -0.00382096       0.01496080
12
Lattice="6.433247783693104 0.027268842262404128 -1.394749452211207 -0.583211609765558 5.75879555037312 -2.5997365352636903 0.14218526481635121 0.14616244236831905 8.040278674347494" Properties=species:S:1:pos:R:3:forces:R:3 structure_index=15 total_energy=-41.57766342163086 stress="-0.005095364525914192 0.0016697699902579188 0.0009408621117472649 0.0016696355305612087 0.00896107591688633 -0.009488889947533607 0.0009407791076228023 -0.00948866456747055 -0.006557333283126354" pbc="T T T"
Li       1.00546380       1.88225019       6.25465012      -0.00256213       0.00293001       0.00264588
Li       0.71010978       4.76373930       4.96019088      -0.00107808      -0.00203085      -0.00237481
Ga       4.21823012       1.89838735       5.55986127       0.00204108       0.00206270       0.00058652
Sn       1.64978964       5.31507342       2.04397220      -0.01682186      -0.00708605      -0.03538148
Sn       3.92814043       4.77852470       4.26151808       0.00213082      -0.00377265      -0.00155159
Sn       4.99417902       5.28796418       1.22576514      -0.00690167       0.00282580      -0.00523368
Sn       5.27724735       2.36757651       2.54026567       0.01440101      -0.00432567       0.00446038
Sn      -0.36507447       4.06537030      -0.16837367       0.01144719       0.00885900       0.03098672
Sn       3.00471279       1.27553101       0.53637824       0.00346665       0.01701745       0.00366120
Sn      -0.08245249       1.23112772       1.11167012       0.01228829       0.01603180       0.03242013
Sn       1.94210971       2.39367119       3.36467807      -0.01754694      -0.01854508      -0.03406184
Sn       2.72599190       4.12229225      -0.74284718      -0.00086441      -0.01396642       0.00384254
18
Lattice="5.423520132732599 0.0030016643039562515 -2.0192517085084796 -1.3799932529229664 6.800210606521327 -3.693547373967326 0.03201840080363891 0.01136600570731411 8.372068250111342" Properties=species:S:1:pos:R:3:forces:R:3 structure_index=16 total_energy=-50.16691207885742 stress="-0.0132190166041255 -0.0005662564653903246 0.011086154729127884 -0.000566217873711139 0.01844937354326248 -0.0028644485864788294 0.011086205951869488 -0.002864258596673608 0.011836841702461243" pbc="T T T"
Li       2.17649048       6.38585121       0.87906163       0.01693913      -0.03033974       0.01527134
Li       3.54924238       3.73792357       4.56853027       0.00679749       0.02768559       0.00790630
Li       1.76724888       1.64915261       3.96160148       0.00064511      -0.00622253       0.00668952
Li       0.36274107       6.18642916      -3.92069856      -0.01063030       0.00226855      -0.00994241
Li       4.45425567       3.92973752      -1.23491958      -0.00570334       0.00996001       0.00251522
Li       3.08360471       6.18821145      -4.93571853       0.00482641       0.00039500      -0.00928698
Li       0.80904198       3.73653346       5.58822529       0.00120769       0.02501656       0.01052095
Li       1.75266773       3.92852683      -0.22983593       0.00421302       0.00993375      -0.00041256
Li       4.98245222       1.65841546       0.20394693      -0.01457749       0.00067447      -0.02644694
Li       2.29893985       1.65750937       1.20113426      -0.00881504       0.00082153      -0.02520020
Li      -0.57004456       6.38609199       1.90071957      -0.00066239      -0.03265443       0.02441880
Ga       2.62233563       6.08945693      -2.01440976       0.01387623       0.03378244       0.03249113
Ga      -0.02554732       1.64935063      -0.84962412      -0.01824675      -0.02281484      -0.03687072
Ga       4.47306684       1.66712951       2.94373239       0.00242589       0.00069747       0.00135544
Ga       3.98790055       4.05426276       1.64985841       0.00899955      -0.02912039       0.01560615
Sn       1.27119142       4.08264571       2.64545159       0.00172784      -0.00802485      -0.00243894
Sn       2.72551895       1.67332317      -1.75212934       0.00201506       0.01577329       0.00853403
Sn      -0.11674285       6.00481412      -1.07900080      -0.00503805       0.00216807      -0.01471018
10
Lattice="4.403185296446512 -0.0038282100597539356 0.0022022074469302284 -2.196402109632995 3.815644925917819 0.002228313368469475 0.003799405879426559 -0.017593338286308435 12.388358006879416" Properties=species:S:1:pos:R:3:forces:R:3 structure_index=17 total_energy=-28.908525466918945 stress="0.020125731825828552 0.0006054537370800972 4.880978963228699e-07 0.0006056280108168721 0.02014319971203804 -8.329931733896956e-05 5.508584308699938e-07 -8.327144314534962e-05 0.020678307861089706" pbc="T T T"
Li      -0.55180233       2.38477240       0.53198447       0.00062539      -0.00061388      -0.00654523
Li      -0.54994605       2.37634038       6.94748090      -0.00065551      -0.00097547      -0.01182108
Ga       1.65042154       1.10276145       5.67068035       0.00241049       0.00050985      -0.03524775
Ga       1.65434241       3.64633058       4.85788774      -0.00236090       0.00035027       0.00768043
Ga       1.65583357       3.63724461      11.68329240      -0.00059727       0.00048594       0.02742966
Ga       1.65455587       3.64264189       9.01260597      -0.00105264      -0.00069545       0.04928351
Ga       1.65030265       1.10102854       8.22019994       0.00039270       0.00121933       0.01537573
Ga       1.65195863       1.09603733      10.88370840       0.00041611      -0.00040199      -0.01662633
Ga       1.65018294       3.65266854       1.89189825      -0.00315377       0.00124044       0.00962892
Sn       1.64519851       1.10947491       2.89658339       0.00397540      -0.00111907      -0.03915788
12
Lattice="4.3851655788489925 0.0004689583924193048 -4.328428539499532e-05 -0.0005648323728214 4.361482398045829 -0.0012735735981219594 -0.0002970576567745799 0.002588521387568222 12.371993996894338" Properties=species:S:1:pos:R:3:forces:R:3 structure_index=18 total_energy=-36.10786056518555 stress="0.0010834309505298734 -0.00025607526185922325 -3.652021041489206e-05 -0.0002560727298259735 0.015830116346478462 1.768504262145143e-05 -3.6524073948385194e-05 1.760621671564877e-05 -0.018766149878501892" pbc="T T T"
Li       0.80033891       1.10538454       7.12994776       0.00108875       0.00173753       0.01059425
Li       0.80057574       3.28698650       9.28143356      -0.00003356       0.00108408       0.00926266
Li       2.99348929       3.28810463       2.78539762      -0.00052690      -0.00180013       0.04277726
Li       2.99312402       1.10669961       0.76022418       0.00055822      -0.00096368       0.02854737
Li       0.80067834       1.10565970       2.84340957       0.00097877       0.00127096      -0.02247493
Li       2.99283004       3.28899392      11.26969006       0.00035754       0.00009904      -0.01284060
Ga       0.80057430       1.10722733      11.25599031       0.00009324       0.00058786      -0.02944059
Ga       2.99329223       3.28755867       7.24582136      -0.00060464      -0.00016159      -0.04756452
Sn       0.80040801       3.28762845       5.01964035       0.00242667      -0.00313392      -0.03721785
Sn       0.80070093       3.28614414       0.78848798      -0.00053465       0.00061161       0.00148364
Sn       2.99419591       1.10647471       4.90890681      -0.00326308       0.00258038       0.01990413
Sn       2.99345144       1.10777010       9.26325881      -0.00054035      -0.00191213       0.03696919
8
Lattice="4.433170858048692 -0.007048880839668819 0.0005221162261968217 0.004314480205274846 4.46230882663754 0.0008837465877703733 -0.0006109731668666379 -0.0015367781983090403 8.613926561883249" Properties=species:S:1:pos:R:3:forces:R:3 structure_index=19 total_energy=-25.1754150390625 stress="0.00829723197966814 -0.014245457947254181 0.00025914725847542286 -0.014245431870222092 0.038683682680130005 -0.00017277829465456307 0.0002590492367744446 -0.00017241052410099655 -0.02683117613196373" pbc="T T T"
Li       0.98643111       1.50489082       6.03774058      -0.00008060       0.00013613       0.03735864
Li       0.98759464       1.50739449       1.89765606      -0.00065296      -0.00085388      -0.03613497
Ga       0.98874016       3.73706071       3.96852832      -0.00000943      -0.00058265       0.00012795