phonopy:
  version: "2.37.1"
  frequency_unit_conversion_factor: 15.633302
  symmetry_tolerance: 1.00000e-05

space_group:
  type: "Pm-3n"
  number: 223
  Hall_symbol: "-P 4n 2 3"

primitive_matrix:
- [  1.000000000000000,  0.000000000000000, -0.000000000000000 ]
- [  0.000000000000000,  1.000000000000000,  0.000000000000000 ]
- [  0.000000000000000,  0.000000000000000,  1.000000000000000 ]

supercell_matrix:
- [   1,   0,   0 ]
- [   0,   1,   0 ]
- [   0,   0,   1 ]

primitive_cell:
  lattice:
  - [    12.669766014517378,     0.000000000000000,     0.000000000000000 ] # a
  - [    -0.000001084261372,    12.669767928139569,     0.000000000000000 ] # b
  - [     0.000004094378991,    -0.000002188193858,    12.669767236471579 ] # c
  points:
  - symbol: Sn # 1
    coordinates: [  0.500000000482732,  0.382247654234886,  0.192647693529669 ]
    mass: 118.710000
  - symbol: Sn # 2
    coordinates: [  0.499999998704970,  0.617752339569497,  0.807352319660860 ]
    mass: 118.710000
  - symbol: Sn # 3
    coordinates: [  0.382247655345864,  0.192647694591108,  0.500000006961788 ]
    mass: 118.710000
  - symbol: Sn # 4
    coordinates: [  0.617752340380709,  0.192647698241157,  0.500000005934906 ]
    mass: 118.710000
  - symbol: Sn # 5
    coordinates: [  0.192647703184716,  0.499999998701875,  0.382247655893899 ]
    mass: 118.710000
  - symbol: Sn # 6
    coordinates: [  0.807352306573692,  0.500000000952049,  0.382247654002463 ]
    mass: 118.710000
  - symbol: Sn # 7
    coordinates: [  0.999999998330636,  0.692647702696534,  0.117752343313448 ]
    mass: 118.710000
  - symbol: Sn # 8
    coordinates: [  0.999999992746460,  0.307352309243249,  0.882247658519217 ]
    mass: 118.710000
  - symbol: Sn # 9
    coordinates: [  0.249999997689415,  0.000000002334907,  0.500000000569524 ]
    mass: 118.710000
  - symbol: Sn # 10
    coordinates: [  0.749999997362093,  0.999999993925569,  0.500000003078337 ]
    mass: 118.710000
  - symbol: Sn # 11
    coordinates: [  0.999999997544098,  0.500000006276234,  0.250000008068696 ]
    mass: 118.710000
  - symbol: Sn # 12
    coordinates: [  0.999999999062878,  0.500000002527951,  0.750000005240949 ]
    mass: 118.710000
  - symbol: Sn # 13
    coordinates: [  0.499999999156939,  0.749999993478700,  0.999999991190752 ]
    mass: 118.710000
  - symbol: Sn # 14
    coordinates: [  0.500000002409482,  0.249999997144909,  0.999999998300234 ]
    mass: 118.710000
  - symbol: Sn # 15
    coordinates: [  0.183595856935081,  0.183595864698437,  0.183595852428513 ]
    mass: 118.710000
  - symbol: Sn # 16
    coordinates: [  0.683595856330416,  0.316404148234325,  0.683595849712733 ]
    mass: 118.710000
  - symbol: Sn # 17
    coordinates: [  0.683595863334450,  0.683595857746712,  0.316404136286469 ]
    mass: 118.710000
  - symbol: Sn # 18
    coordinates: [  0.316404137916827,  0.683595856036752,  0.683595855794347 ]
    mass: 118.710000
  - symbol: Sn # 19
    coordinates: [  0.816404147416962,  0.816404130154310,  0.183595864164269 ]
    mass: 118.710000
  - symbol: Sn # 20
    coordinates: [  0.183595848759773,  0.816404146441830,  0.816404135868227 ]
    mass: 118.710000
  - symbol: Sn # 21
    coordinates: [  0.816404144359009,  0.183595856167698,  0.816404155097562 ]
    mass: 118.710000
  - symbol: Sn # 22
    coordinates: [  0.316404133377507,  0.316404149704125,  0.316404141814433 ]
    mass: 118.710000
  - symbol: Sn # 23
    coordinates: [  0.816404146478309,  0.816404149562274,  0.816404147023305 ]
    mass: 118.710000
  - symbol: Sn # 24
    coordinates: [  0.316404141400736,  0.683595847679883,  0.316404143821660 ]
    mass: 118.710000
  - symbol: Sn # 25
    coordinates: [  0.316404143051718,  0.316404146606069,  0.683595849733180 ]
    mass: 118.710000
  - symbol: Sn # 26
    coordinates: [  0.683595859309460,  0.316404144870935,  0.316404140023710 ]
    mass: 118.710000
  - symbol: Sn # 27
    coordinates: [  0.183595862821317,  0.183595856377220,  0.816404148460866 ]
    mass: 118.710000
  - symbol: Sn # 28
    coordinates: [  0.816404143349543,  0.183595847669776,  0.183595864335610 ]
    mass: 118.710000
  - symbol: Sn # 29
    coordinates: [  0.183595849585934,  0.816404138680797,  0.183595856372488 ]
    mass: 118.710000
  - symbol: Sn # 30
    coordinates: [  0.683595861928713,  0.683595851456520,  0.683595849924335 ]
    mass: 118.710000
  - symbol: Sn # 31
    coordinates: [  0.000000008399485,  0.307352297071849,  0.117752336202185 ]
    mass: 118.710000
  - symbol: Sn # 32
    coordinates: [  0.499999998882554,  0.382247660371642,  0.807352306266980 ]
    mass: 118.710000
  - symbol: Sn # 33
    coordinates: [  0.499999999192287,  0.617752346341458,  0.192647696240198 ]
    mass: 118.710000
  - symbol: Sn # 34
    coordinates: [  0.617752340012155,  0.807352311195640,  0.500000001693787 ]
    mass: 118.710000
  - symbol: Sn # 35
    coordinates: [  0.382247661073456,  0.807352306554237,  0.499999999743039 ]
    mass: 118.710000
  - symbol: Sn # 36
    coordinates: [  0.192647701242702,  0.499999996415609,  0.617752339358586 ]
    mass: 118.710000
  - symbol: Sn # 37
    coordinates: [  0.807352298824563,  0.499999999604869,  0.617752344979337 ]
    mass: 118.710000
  - symbol: Sn # 38
    coordinates: [  0.117752341040326,  0.999999997670609,  0.307352311712083 ]
    mass: 118.710000
  - symbol: Sn # 39
    coordinates: [  0.307352303561361,  0.117752350188426,  0.000000001355680 ]
    mass: 118.710000
  - symbol: Sn # 40
    coordinates: [  0.692647692785742,  0.882247664344791,  0.999999991780673 ]
    mass: 118.710000
  - symbol: Sn # 41
    coordinates: [  0.117752346438613,  0.999999989025145,  0.692647691586387 ]
    mass: 118.710000
  - symbol: Sn # 42
    coordinates: [  0.692647693119226,  0.117752343778477,  0.999999994507514 ]
    mass: 118.710000
  - symbol: Sn # 43
    coordinates: [  0.882247659157596,  0.000000008737067,  0.307352297282384 ]
    mass: 118.710000
  - symbol: Sn # 44
    coordinates: [  0.882247657455808,  0.999999995990358,  0.692647694746502 ]
    mass: 118.710000
  - symbol: Sn # 45
    coordinates: [  0.307352311207256,  0.882247655709264,  0.000000001025252 ]
    mass: 118.710000
  - symbol: Sn # 46
    coordinates: [  0.000000002455296,  0.692647690890503,  0.882247656375516 ]
    mass: 118.710000
  reciprocal_lattice: # without 2pi
  - [     0.078928055881551,     0.000000006754555,    -0.000000025506495 ] # a*
  - [     0.000000000000000,     0.078928043960379,     0.000000013631652 ] # b*
  - [     0.000000000000000,     0.000000000000000,     0.078928048269219 ] # c*

unit_cell:
  lattice:
  - [    12.669766014517378,     0.000000000000000,     0.000000000000000 ] # a
  - [    -0.000001084261372,    12.669767928139569,     0.000000000000000 ] # b
  - [     0.000004094378991,    -0.000002188193858,    12.669767236471579 ] # c
  points:
  - symbol: Sn # 1
    coordinates: [  0.500000000482732,  0.382247654234886,  0.192647693529669 ]
    mass: 118.710000
    reduced_to: 1
  - symbol: Sn # 2
    coordinates: [  0.499999998704970,  0.617752339569497,  0.807352319660860 ]
    mass: 118.710000
    reduced_to: 2
  - symbol: Sn # 3
    coordinates: [  0.382247655345864,  0.192647694591108,  0.500000006961788 ]
    mass: 118.710000
    reduced_to: 3
  - symbol: Sn # 4
    coordinates: [  0.617752340380709,  0.192647698241157,  0.500000005934906 ]
    mass: 118.710000
    reduced_to: 4
  - symbol: Sn # 5
    coordinates: [  0.192647703184716,  0.499999998701875,  0.382247655893899 ]
    mass: 118.710000
    reduced_to: 5
  - symbol: Sn # 6
    coordinates: [  0.807352306573692,  0.500000000952049,  0.382247654002463 ]
    mass: 118.710000
    reduced_to: 6
  - symbol: Sn # 7
    coordinates: [  0.999999998330636,  0.692647702696534,  0.117752343313448 ]
    mass: 118.710000
    reduced_to: 7
  - symbol: Sn # 8
    coordinates: [  0.999999992746460,  0.307352309243249,  0.882247658519217 ]
    mass: 118.710000
    reduced_to: 8
  - symbol: Sn # 9
    coordinates: [  0.249999997689415,  0.000000002334907,  0.500000000569524 ]
    mass: 118.710000
    reduced_to: 9
  - symbol: Sn # 10
    coordinates: [  0.749999997362093,  0.999999993925569,  0.500000003078337 ]
    mass: 118.710000
    reduced_to: 10
  - symbol: Sn # 11
    coordinates: [  0.999999997544098,  0.500000006276234,  0.250000008068696 ]
    mass: 118.710000
    reduced_to: 11
  - symbol: Sn # 12
    coordinates: [  0.999999999062878,  0.500000002527951,  0.750000005240949 ]
    mass: 118.710000
    reduced_to: 12
  - symbol: Sn # 13
    coordinates: [  0.499999999156939,  0.749999993478700,  0.999999991190752 ]
    mass: 118.710000
    reduced_to: 13
  - symbol: Sn # 14
    coordinates: [  0.500000002409482,  0.249999997144909,  0.999999998300234 ]
    mass: 118.710000
    reduced_to: 14
  - symbol: Sn # 15
    coordinates: [  0.183595856935081,  0.183595864698437,  0.183595852428513 ]
    mass: 118.710000
    reduced_to: 15
  - symbol: Sn # 16
    coordinates: [  0.683595856330416,  0.316404148234325,  0.683595849712733 ]
    mass: 118.710000
    reduced_to: 16
  - symbol: Sn # 17
    coordinates: [  0.683595863334450,  0.683595857746712,  0.316404136286469 ]
    mass: 118.710000
    reduced_to: 17
  - symbol: Sn # 18
    coordinates: [  0.316404137916827,  0.683595856036752,  0.683595855794347 ]
    mass: 118.710000
    reduced_to: 18
  - symbol: Sn # 19
    coordinates: [  0.816404147416962,  0.816404130154310,  0.183595864164269 ]
    mass: 118.710000
    reduced_to: 19
  - symbol: Sn # 20
    coordinates: [  0.183595848759773,  0.816404146441830,  0.816404135868227 ]
    mass: 118.710000
    reduced_to: 20
  - symbol: Sn # 21
    coordinates: [  0.816404144359009,  0.183595856167698,  0.816404155097562 ]
    mass: 118.710000
    reduced_to: 21
  - symbol: Sn # 22
    coordinates: [  0.316404133377507,  0.316404149704125,  0.316404141814433 ]
    mass: 118.710000
    reduced_to: 22
  - symbol: Sn # 23
    coordinates: [  0.816404146478309,  0.816404149562274,  0.816404147023305 ]
    mass: 118.710000
    reduced_to: 23
  - symbol: Sn # 24
    coordinates: [  0.316404141400736,  0.683595847679883,  0.316404143821660 ]
    mass: 118.710000
    reduced_to: 24
  - symbol: Sn # 25
    coordinates: [  0.316404143051718,  0.316404146606069,  0.683595849733180 ]
    mass: 118.710000
    reduced_to: 25
  - symbol: Sn # 26
    coordinates: [  0.683595859309460,  0.316404144870935,  0.316404140023710 ]
    mass: 118.710000
    reduced_to: 26
  - symbol: Sn # 27
    coordinates: [  0.183595862821317,  0.183595856377220,  0.816404148460866 ]
    mass: 118.710000
    reduced_to: 27
  - symbol: Sn # 28
    coordinates: [  0.816404143349543,  0.183595847669776,  0.183595864335610 ]
    mass: 118.710000
    reduced_to: 28
  - symbol: Sn # 29
    coordinates: [  0.183595849585934,  0.816404138680797,  0.183595856372488 ]
    mass: 118.710000
    reduced_to: 29
  - symbol: Sn # 30
    coordinates: [  0.683595861928713,  0.683595851456520,  0.683595849924335 ]
    mass: 118.710000
    reduced_to: 30
  - symbol: Sn # 31
    coordinates: [  0.000000008399485,  0.307352297071849,  0.117752336202185 ]
    mass: 118.710000
    reduced_to: 31
  - symbol: Sn # 32
    coordinates: [  0.499999998882554,  0.382247660371642,  0.807352306266980 ]
    mass: 118.710000
    reduced_to: 32
  - symbol: Sn # 33
    coordinates: [  0.499999999192287,  0.617752346341458,  0.192647696240198 ]
    mass: 118.710000
    reduced_to: 33
  - symbol: Sn # 34
    coordinates: [  0.617752340012155,  0.807352311195640,  0.500000001693787 ]
    mass: 118.710000
    reduced_to: 34
  - symbol: Sn # 35
    coordinates: [  0.382247661073456,  0.807352306554237,  0.499999999743039 ]
    mass: 118.710000
    reduced_to: 35
  - symbol: Sn # 36
    coordinates: [  0.192647701242702,  0.499999996415609,  0.617752339358586 ]
    mass: 118.710000
    reduced_to: 36
  - symbol: Sn # 37
    coordinates: [  0.807352298824563,  0.499999999604869,  0.617752344979337 ]
    mass: 118.710000
    reduced_to: 37
  - symbol: Sn # 38
    coordinates: [  0.117752341040326,  0.999999997670609,  0.307352311712083 ]
    mass: 118.710000
    reduced_to: 38
  - symbol: Sn # 39
    coordinates: [  0.307352303561361,  0.117752350188426,  0.000000001355680 ]
    mass: 118.710000
    reduced_to: 39
  - symbol: Sn # 40
    coordinates: [  0.692647692785742,  0.882247664344791,  0.999999991780673 ]
    mass: 118.710000
    reduced_to: 40
  - symbol: Sn # 41
    coordinates: [  0.117752346438613,  0.999999989025145,  0.692647691586387 ]
    mass: 118.710000
    reduced_to: 41
  - symbol: Sn # 42
    coordinates: [  0.692647693119226,  0.117752343778477,  0.999999994507514 ]
    mass: 118.710000
    reduced_to: 42
  - symbol: Sn # 43
    coordinates: [  0.882247659157596,  0.000000008737067,  0.307352297282384 ]
    mass: 118.710000
    reduced_to: 43
  - symbol: Sn # 44
    coordinates: [  0.882247657455808,  0.999999995990358,  0.692647694746502 ]
    mass: 118.710000
    reduced_to: 44
  - symbol: Sn # 45
    coordinates: [  0.307352311207256,  0.882247655709264,  0.000000001025252 ]
    mass: 118.710000
    reduced_to: 45
  - symbol: Sn # 46
    coordinates: [  0.000000002455296,  0.692647690890503,  0.882247656375516 ]
    mass: 118.710000
    reduced_to: 46

supercell:
  lattice:
  - [    12.669766014517378,     0.000000000000000,     0.000000000000000 ] # a
  - [    -0.000001084261372,    12.669767928139569,     0.000000000000000 ] # b
  - [     0.000004094378991,    -0.000002188193858,    12.669767236471579 ] # c
  points:
  - symbol: Sn # 1
    coordinates: [  0.500000000482732,  0.382247654234886,  0.192647693529669 ]
    mass: 118.710000
    reduced_to: 1
  - symbol: Sn # 2
    coordinates: [  0.499999998704970,  0.617752339569497,  0.807352319660860 ]
    mass: 118.710000
    reduced_to: 2
  - symbol: Sn # 3
    coordinates: [  0.382247655345864,  0.192647694591108,  0.500000006961788 ]
    mass: 118.710000
    reduced_to: 3
  - symbol: Sn # 4
    coordinates: [  0.617752340380709,  0.192647698241157,  0.500000005934906 ]
    mass: 118.710000
    reduced_to: 4
  - symbol: Sn # 5
    coordinates: [  0.192647703184716,  0.499999998701875,  0.382247655893899 ]
    mass: 118.710000
    reduced_to: 5
  - symbol: Sn # 6
    coordinates: [  0.807352306573692,  0.500000000952049,  0.382247654002463 ]
    mass: 118.710000
    reduced_to: 6
  - symbol: Sn # 7
    coordinates: [  0.999999998330636,  0.692647702696534,  0.117752343313448 ]
    mass: 118.710000
    reduced_to: 7
  - symbol: Sn # 8
    coordinates: [  0.999999992746460,  0.307352309243249,  0.882247658519217 ]
    mass: 118.710000
    reduced_to: 8
  - symbol: Sn # 9
    coordinates: [  0.249999997689415,  0.000000002334907,  0.500000000569524 ]
    mass: 118.710000
    reduced_to: 9
  - symbol: Sn # 10
    coordinates: [  0.749999997362093,  0.999999993925569,  0.500000003078337 ]
    mass: 118.710000
    reduced_to: 10
  - symbol: Sn # 11
    coordinates: [  0.999999997544098,  0.500000006276234,  0.250000008068696 ]
    mass: 118.710000
    reduced_to: 11
  - symbol: Sn # 12
    coordinates: [  0.999999999062878,  0.500000002527951,  0.750000005240949 ]
    mass: 118.710000
    reduced_to: 12
  - symbol: Sn # 13
    coordinates: [  0.499999999156939,  0.749999993478700,  0.999999991190752 ]
    mass: 118.710000
    reduced_to: 13
  - symbol: Sn # 14
    coordinates: [  0.500000002409482,  0.249999997144909,  0.999999998300234 ]
    mass: 118.710000
    reduced_to: 14
  - symbol: Sn # 15
    coordinates: [  0.183595856935081,  0.183595864698437,  0.183595852428513 ]
    mass: 118.710000
    reduced_to: 15
  - symbol: Sn # 16
    coordinates: [  0.683595856330416,  0.316404148234325,  0.683595849712733 ]
    mass: 118.710000
    reduced_to: 16
  - symbol: Sn # 17
    coordinates: [  0.683595863334450,  0.683595857746712,  0.316404136286469 ]
    mass: 118.710000
    reduced_to: 17
  - symbol: Sn # 18
    coordinates: [  0.316404137916827,  0.683595856036752,  0.683595855794347 ]
    mass: 118.710000
    reduced_to: 18
  - symbol: Sn # 19
    coordinates: [  0.816404147416962,  0.816404130154310,  0.183595864164269 ]
    mass: 118.710000
    reduced_to: 19
  - symbol: Sn # 20
    coordinates: [  0.183595848759773,  0.816404146441830,  0.816404135868227 ]
    mass: 118.710000
    reduced_to: 20
  - symbol: Sn # 21
    coordinates: [  0.816404144359009,  0.183595856167698,  0.816404155097562 ]
    mass: 118.710000
    reduced_to: 21
  - symbol: Sn # 22
    coordinates: [  0.316404133377507,  0.316404149704125,  0.316404141814433 ]
    mass: 118.710000
    reduced_to: 22
  - symbol: Sn # 23
    coordinates: [  0.816404146478309,  0.816404149562274,  0.816404147023305 ]
    mass: 118.710000
    reduced_to: 23
  - symbol: Sn # 24
    coordinates: [  0.316404141400736,  0.683595847679883,  0.316404143821660 ]
    mass: 118.710000
    reduced_to: 24
  - symbol: Sn # 25
    coordinates: [  0.316404143051718,  0.316404146606069,  0.683595849733180 ]
    mass: 118.710000
    reduced_to: 25
  - symbol: Sn # 26
    coordinates: [  0.683595859309460,  0.316404144870935,  0.316404140023710 ]
    mass: 118.710000
    reduced_to: 26
  - symbol: Sn # 27
    coordinates: [  0.183595862821317,  0.183595856377220,  0.816404148460866 ]
    mass: 118.710000
    reduced_to: 27
  - symbol: Sn # 28
    coordinates: [  0.816404143349543,  0.183595847669776,  0.183595864335610 ]
    mass: 118.710000
    reduced_to: 28
  - symbol: Sn # 29
    coordinates: [  0.183595849585934,  0.816404138680797,  0.183595856372488 ]
    mass: 118.710000
    reduced_to: 29
  - symbol: Sn # 30
    coordinates: [  0.683595861928713,  0.683595851456520,  0.683595849924335 ]
    mass: 118.710000
    reduced_to: 30
  - symbol: Sn # 31
    coordinates: [  0.000000008399485,  0.307352297071849,  0.117752336202185 ]
    mass: 118.710000
    reduced_to: 31
  - symbol: Sn # 32
    coordinates: [  0.499999998882554,  0.382247660371642,  0.807352306266980 ]
    mass: 118.710000
    reduced_to: 32
  - symbol: Sn # 33
    coordinates: [  0.499999999192287,  0.617752346341458,  0.192647696240198 ]
    mass: 118.710000
    reduced_to: 33
  - symbol: Sn # 34
    coordinates: [  0.617752340012155,  0.807352311195640,  0.500000001693787 ]
    mass: 118.710000
    reduced_to: 34
  - symbol: Sn # 35
    coordinates: [  0.382247661073456,  0.807352306554237,  0.499999999743039 ]
    mass: 118.710000
    reduced_to: 35
  - symbol: Sn # 36
    coordinates: [  0.192647701242702,  0.499999996415609,  0.617752339358586 ]
    mass: 118.710000
    reduced_to: 36
  - symbol: Sn # 37
    coordinates: [  0.807352298824563,  0.499999999604869,  0.617752344979337 ]
    mass: 118.710000
    reduced_to: 37
  - symbol: Sn # 38
    coordinates: [  0.117752341040326,  0.999999997670609,  0.307352311712083 ]
    mass: 118.710000
    reduced_to: 38
  - symbol: Sn # 39
    coordinates: [  0.307352303561361,  0.117752350188426,  0.000000001355680 ]
    mass: 118.710000
    reduced_to: 39
  - symbol: Sn # 40
    coordinates: [  0.692647692785742,  0.882247664344791,  0.999999991780673 ]
    mass: 118.710000
    reduced_to: 40
  - symbol: Sn # 41
    coordinates: [  0.117752346438613,  0.999999989025145,  0.692647691586387 ]
    mass: 118.710000
    reduced_to: 41
  - symbol: Sn # 42
    coordinates: [  0.692647693119226,  0.117752343778477,  0.999999994507514 ]
    mass: 118.710000
    reduced_to: 42
  - symbol: Sn # 43
    coordinates: [  0.882247659157596,  0.000000008737067,  0.307352297282384 ]
    mass: 118.710000
    reduced_to: 43
  - symbol: Sn # 44
    coordinates: [  0.882247657455808,  0.999999995990358,  0.692647694746502 ]
    mass: 118.710000
    reduced_to: 44
  - symbol: Sn # 45
    coordinates: [  0.307352311207256,  0.882247655709264,  0.000000001025252 ]
    mass: 118.710000
    reduced_to: 45
  - symbol: Sn # 46
    coordinates: [  0.000000002455296,  0.692647690890503,  0.882247656375516 ]
    mass: 118.710000
    reduced_to: 46

displacements:
- atom:    1
  displacement:
    [   0.0070710669752976,  0.0070710686484333,  0.0000000000000000 ]
  forces:
  - [  -0.0415422171354294, -0.0621846839785576,  0.0152668729424477 ]
  - [  -0.0000158499460667,  0.0180666837841272, -0.0190792009234428 ]
  - [  -0.0191806722432375,  0.0185340493917465,  0.0004664855077863 ]
  - [   0.0175146982073784,  0.0187454670667648, -0.0004401082405820 ]
  - [   0.0178751796483994, -0.0003716010833159, -0.0183341260999441 ]
  - [  -0.0180533081293106, -0.0012440546415746, -0.0183003954589367 ]
  - [   0.0000126444374473,  0.0186205431818962,  0.0187346078455448 ]
  - [   0.0000035459706851, -0.0185785517096519, -0.0187388826161623 ]
  - [   0.0003322266275063,  0.0003505507775117,  0.0001062173396349 ]
  - [   0.0002196982386522, -0.0002088840119541, -0.0000441577285528 ]
  - [   0.0004865585360676,  0.0000319705177390,  0.0002113822847605 ]
  - [  -0.0000291649048449, -0.0000092077534646,  0.0000017615966499 ]
  - [   0.0001463359221816, -0.0010846129152924,  0.0001442601642339 ]
  - [   0.0033574788831174,  0.0102606043219566,  0.0090989088639617 ]
  - [   0.0083866361528635,  0.0078750401735306,  0.0072003165259957 ]
  - [   0.0081266378983855, -0.0078339632600546,  0.0084673818200827 ]
  - [   0.0070684324018657,  0.0084903463721275, -0.0090680364519358 ]
  - [  -0.0081764431670308,  0.0082702422514558,  0.0082402117550373 ]
  - [  -0.0081929052248597, -0.0080986460670829,  0.0080015063285828 ]
  - [   0.0082201194018126, -0.0082007274031639, -0.0082249995321035 ]
  - [  -0.0082893138751388,  0.0080836396664381, -0.0079996474087238 ]
  - [   0.0160226896405220,  0.0031338017433882, -0.0223187673836946 ]
  - [  -0.0082135498523712, -0.0082233147695661, -0.0082176104187965 ]
  - [  -0.0080405008047819,  0.0069384574890137, -0.0085009029135108 ]
  - [  -0.0077386456541717, -0.0084742382168770,  0.0080601181834936 ]
  - [   0.0217386521399021, -0.0081993080675602, -0.0011164657771587 ]
  - [   0.0082240421324968,  0.0080707855522633, -0.0079806940630078 ]
  - [  -0.0086331078782678,  0.0083355987444520,  0.0080784801393747 ]
  - [   0.0080782603472471, -0.0079757831990719,  0.0078608263283968 ]
  - [   0.0082290209829807,  0.0082047097384930,  0.0082334801554680 ]
  - [   0.0002636087010615, -0.0186542719602585,  0.0187018513679504 ]
  - [   0.0000855477992445, -0.0194342900067568, -0.0190237015485764 ]
  - [   0.0029062097892165,  0.0439013615250587,  0.0210396796464920 ]
  - [   0.0186127647757530, -0.0184464007616043,  0.0002117572585121 ]
  - [  -0.0185386650264263, -0.0183903053402901,  0.0004008273244835 ]
  - [   0.0184565335512161,  0.0001279392745346,  0.0182709358632565 ]
  - [  -0.0186407715082169, -0.0000593674485572,  0.0188809782266617 ]
  - [   0.0187105014920235,  0.0001103563117795, -0.0188272148370743 ]
  - [  -0.0196340382099152,  0.0189500022679567,  0.0009359915275127 ]
  - [   0.0190757438540459, -0.0181488059461117,  0.0000583215733059 ]
  - [   0.0187014881521463, -0.0000298093073070,  0.0186389163136482 ]
  - [   0.0186123698949814,  0.0185398906469345, -0.0005278866156004 ]
  - [  -0.0187294334173203, -0.0001219918194693, -0.0184589102864265 ]
  - [  -0.0187361203134060, -0.0000012387754396,  0.0185747370123863 ]
  - [  -0.0190832987427711, -0.0182666257023811,  0.0000690842789481 ]
  - [   0.0000003884779289,  0.0185986682772636, -0.0187541842460632 ]
- atom:    1
  displacement:
    [  -0.0070710669752976, -0.0070710686484333,  0.0000000000000000 ]
  forces:
  - [   0.0418275594711304,  0.0248245615512133,  0.0216268897056580 ]
  - [   0.0000008026254363,  0.0194284878671169, -0.0181367918848991 ]
  - [  -0.0183368548750877,  0.0186289772391319, -0.0004095855983905 ]
  - [   0.0199781116098166,  0.0184438303112984,  0.0004560244269669 ]
  - [   0.0193014815449715,  0.0003968661185354, -0.0191321149468422 ]
  - [  -0.0190789401531219,  0.0012978164013475, -0.0191164910793304 ]
  - [   0.0000034257407151,  0.0185874179005623,  0.0187545344233513 ]
  - [  -0.0000071664508141, -0.0186264514923096, -0.0187579020857811 ]
  - [  -0.0003317928058095, -0.0003440950240474, -0.0001028967089951 ]
  - [  -0.0002191762323491,  0.0002180009469157,  0.0000362871214747 ]
  - [  -0.0004829883109778, -0.0000318217753374, -0.0002265237271786 ]
  - [   0.0000312620977638,  0.0000107756350189, -0.0000015347613953 ]
  - [  -0.0001400555483997,  0.0010715647367761, -0.0001254522503586 ]
  - [  -0.0033789724111557, -0.0102886874228716, -0.0091129168868065 ]
  - [   0.0081249531358480,  0.0086108893156052,  0.0092313727363944 ]
  - [   0.0083051938563585, -0.0085858833044767,  0.0079521127045155 ]
  - [   0.0092992372810841,  0.0078399591147900, -0.0073822825215757 ]
  - [  -0.0082413926720619,  0.0081386733800173,  0.0081889219582081 ]
  - [  -0.0082425419241190, -0.0083192549645901,  0.0084226271137595 ]
  - [   0.0082033146172762, -0.0082168914377689, -0.0082008149474859 ]
  - [  -0.0081193428486586,  0.0083353770896792, -0.0084355603903532 ]
  - [  -0.0327694490551949, -0.0196779631078243,  0.0061163948848844 ]
  - [  -0.0082036927342415, -0.0082047842442989, -0.0082177296280861 ]
  - [  -0.0084195435047150,  0.0094950553029776, -0.0078945131972432 ]
  - [  -0.0086898719891906, -0.0079351663589478,  0.0083726095035672 ]
  - [  -0.0052887401543558, -0.0082083260640502, -0.0152510050684214 ]
  - [   0.0082110883668065,  0.0083437599241734, -0.0084365783259273 ]
  - [  -0.0077612372115254,  0.0080712987110019,  0.0083312075585127 ]
  - [   0.0083317579701543, -0.0084527097642422,  0.0085646314546466 ]
  - [   0.0082032000645995,  0.0082282656803727,  0.0081838201731443 ]
  - [  -0.0002532405196689, -0.0185666009783745,  0.0188007578253746 ]
  - [  -0.0001018947805278, -0.0180487167090178, -0.0182031393051147 ]
  - [  -0.0028778361156583, -0.0062977075576782,  0.0161660760641098 ]
  - [   0.0188851729035378, -0.0187803506851196, -0.0002195718116127 ]
  - [  -0.0189519580453634, -0.0188203305006027, -0.0004078099736944 ]
  - [   0.0187548175454140, -0.0001308060018346,  0.0192333720624447 ]
  - [  -0.0185630694031715,  0.0000594651210122,  0.0186053365468979 ]
  - [   0.0187891889363527, -0.0000964271603152, -0.0183952972292900 ]
  - [  -0.0176544263958931,  0.0184303373098373, -0.0010198364034295 ]
  - [   0.0181396380066872, -0.0193191934376955, -0.0000466222991236 ]
  - [   0.0187865123152733,  0.0000312395859510,  0.0185726583003998 ]
  - [   0.0186007916927338,  0.0189163461327553,  0.0005301136989146 ]
  - [  -0.0187681633979082,  0.0001218864636030, -0.0187494978308678 ]
  - [  -0.0187533311545849,  0.0000045852502808,  0.0186451524496078 ]
  - [  -0.0181341394782066, -0.0191889069974422, -0.0000719329764252 ]
  - [  -0.0000076666474342,  0.0186056271195412, -0.0187365375459194 ]
- atom:    1
  displacement:
    [   0.0000000032316134, -0.0000000017270987,  0.0099999999999993 ]
  forces:
  - [   0.0000082005281001, -0.0229323580861092, -0.0378415361046791 ]
  - [  -0.0000074465642683,  0.0180825516581535, -0.0183898881077766 ]
  - [  -0.0196349974721670,  0.0185668766498566, -0.0000982688507065 ]
  - [   0.0196352545171976,  0.0185683444142342, -0.0000988907995634 ]
  - [   0.0185821354389191, -0.0001282855228055, -0.0186604838818312 ]
  - [  -0.0185976624488831, -0.0001307149359491, -0.0186605416238308 ]
  - [   0.0000074038848652,  0.0185417532920837,  0.0187787804752588 ]
  - [  -0.0000011766496755, -0.0185400992631912, -0.0187241584062576 ]
  - [  -0.0001605898723938, -0.0001213114883285, -0.0000617424957454 ]
  - [   0.0001608695602044, -0.0001227769680554, -0.0000665225088596 ]
  - [   0.0000098221935332, -0.0001585584977875, -0.0004265271127224 ]
  - [   0.0000009410277926, -0.0000032095704228, -0.0000332561321557 ]
  - [   0.0000038133002818,  0.0004777219728567, -0.0011833690805361 ]
  - [   0.0000014859251678,  0.0168145969510078,  0.0279485993087292 ]
  - [   0.0090713277459145,  0.0080883633345366,  0.0070593627169728 ]
  - [   0.0077517796307802, -0.0076415166258812,  0.0084993652999401 ]
  - [   0.0081989737227559,  0.0091637503355742, -0.0081970356404781 ]
  - [  -0.0083223208785057,  0.0082072447985411,  0.0081747164949775 ]
  - [  -0.0082549909129739, -0.0083118071779609,  0.0083913374692202 ]
  - [   0.0081679578870535, -0.0082477573305368, -0.0082887578755617 ]
  - [  -0.0084013305604458,  0.0078887827694416, -0.0076351957395673 ]
  - [  -0.0227772146463394, -0.0133796148002148,  0.0066618034616113 ]
  - [  -0.0081641115248203, -0.0082541573792696, -0.0082948813214898 ]
  - [  -0.0082057379186153,  0.0091693270951509, -0.0081948842853308 ]
  - [  -0.0077495565637946, -0.0076378057710826,  0.0085059395059943 ]
  - [   0.0227703060954809, -0.0133707486093044,  0.0066621275618672 ]
  - [   0.0084107778966427,  0.0078873317688704, -0.0076302886009216 ]
  - [  -0.0090710949152708,  0.0080884573981166,  0.0070556551218033 ]
  - [   0.0082463463768363, -0.0083174463361502,  0.0083947991952300 ]
  - [   0.0083297491073608,  0.0082184961065650,  0.0081670098006725 ]
  - [   0.0000008640932947, -0.0180566459894180,  0.0186866708099842 ]
  - [  -0.0000071065151133, -0.0181781388819218, -0.0213069245219231 ]
  - [   0.0000059684389271,  0.0152661055326462,  0.0228035151958466 ]
  - [   0.0188263170421124, -0.0186651274561882, -0.0001331302919425 ]
  - [  -0.0188234653323889, -0.0186615139245987, -0.0001389745739289 ]
  - [   0.0186590552330017, -0.0000362092978321,  0.0190168619155884 ]
  - [  -0.0186561867594719, -0.0000343209248967,  0.0190186612308025 ]
  - [   0.0186985582113266, -0.0002551857323851, -0.0183280259370804 ]
  - [  -0.0193794518709183,  0.0180152244865894, -0.0007154690683819 ]
  - [   0.0184166729450226, -0.0180688127875328,  0.0000015559489839 ]
  - [   0.0187451560050249, -0.0000469400547445,  0.0185326710343361 ]
  - [   0.0193727761507034,  0.0180106516927481, -0.0007078701164573 ]
  - [  -0.0186979435384274, -0.0002573419187684, -0.0183230340480804 ]
  - [  -0.0187455732375383, -0.0000463140895590,  0.0185356810688972 ]