# Thermal properties / unit cell (natom)

unit:
  temperature:   K
  free_energy:   kJ/mol
  entropy:       J/K/mol
  heat_capacity: J/K/mol

natom: 46   
cutoff_frequency: 0.00000
num_modes: 70656
num_integrated_modes: 70655

zero_point_energy:      86.4325830

thermal_properties:
- temperature:         0.0000000
  free_energy:        86.4325830
  entropy:             0.0000000
  heat_capacity:       0.0000000
  energy:             86.4325830

- temperature:        10.0000000
  free_energy:        86.3842976
  entropy:            18.4761340
  heat_capacity:      53.2841707
  energy:             86.5690589

- temperature:        20.0000000
  free_energy:        85.8173311
  entropy:           103.5634678
  heat_capacity:     211.3899441
  energy:             87.8886005

- temperature:        30.0000000
  free_energy:        84.2264494
  entropy:           216.4732935
  heat_capacity:     352.0514019
  energy:             90.7206482

- temperature:        40.0000000
  free_energy:        81.4682908
  entropy:           335.6314287
  heat_capacity:     480.9241266
  energy:             94.8935479

- temperature:        50.0000000
  free_energy:        77.5108578
  entropy:           455.7139864
  heat_capacity:     596.9910204
  energy:            100.2965571

- temperature:        60.0000000
  free_energy:        72.3617193
  entropy:           573.5188632
  heat_capacity:     695.0882805
  energy:            106.7728511

- temperature:        70.0000000
  free_energy:        66.0554585
  entropy:           686.8655492
  heat_capacity:     774.5983537
  energy:            114.1360470

- temperature:        80.0000000
  free_energy:        58.6432261
  entropy:           794.5918136
  heat_capacity:     837.8549095
  energy:            122.2105712

- temperature:        90.0000000
  free_energy:        50.1837839
  entropy:           896.2842846
  heat_capacity:     887.9680946
  energy:            130.8493695

- temperature:       100.0000000
  free_energy:        40.7375481
  entropy:           991.9820829
  heat_capacity:     927.8095742
  energy:            139.9357564

- temperature:       110.0000000
  free_energy:        30.3632083
  entropy:          1081.9634348
  heat_capacity:     959.7207409
  energy:            149.3791862

- temperature:       120.0000000
  free_energy:        19.1160493
  entropy:          1166.6148481
  heat_capacity:     985.5152715
  energy:            159.1098310

- temperature:       130.0000000
  free_energy:         7.0472737
  entropy:          1246.3573409
  heat_capacity:    1006.5695343
  energy:            169.0737280

- temperature:       140.0000000
  free_energy:        -5.7961256
  entropy:          1321.6074001
  heat_capacity:    1023.9220488
  energy:            179.2289105

- temperature:       150.0000000
  free_energy:       -19.3712126
  entropy:          1392.7578657
  heat_capacity:    1038.3578401
  energy:            189.5424673

- temperature:       160.0000000
  free_energy:       -33.6388250
  entropy:          1460.1698417
  heat_capacity:    1050.4737426
  energy:            199.9883496

- temperature:       170.0000000
  free_energy:       -48.5632421
  entropy:          1524.1705118
  heat_capacity:    1060.7270547
  energy:            210.5457449

- temperature:       180.0000000
  free_energy:       -64.1118480
  entropy:          1585.0539825
  heat_capacity:    1069.4712260
  energy:            221.1978688

- temperature:       190.0000000
  free_energy:       -80.2548119
  entropy:          1643.0835588
  heat_capacity:    1076.9819211
  energy:            231.9310643

- temperature:       200.0000000
  free_energy:       -96.9647935
  entropy:          1698.4945860
  heat_capacity:    1083.4760838
  energy:            242.7341237

- temperature:       210.0000000
  free_energy:      -114.2166787
  entropy:          1751.4974006
  heat_capacity:    1089.1259540
  energy:            253.5977754

- temperature:       220.0000000
  free_energy:      -131.9873435
  entropy:          1802.2801572
  heat_capacity:    1094.0694412
  energy:            264.5142911

- temperature:       230.0000000
  free_energy:      -150.2554455
  entropy:          1851.0114281
  heat_capacity:    1098.4178630
  energy:            275.4771830

- temperature:       240.0000000
  free_energy:      -169.0012399
  entropy:          1897.8425345
  heat_capacity:    1102.2617644
  energy:            286.4809684

- temperature:       250.0000000
  free_energy:      -188.2064175
  entropy:          1942.9096112
  heat_capacity:    1105.6753311
  energy:            297.5209853

- temperature:       260.0000000
  free_energy:      -207.8539625
  entropy:          1986.3354163
  heat_capacity:    1108.7197636
  energy:            308.5932458

- temperature:       270.0000000
  free_energy:      -227.9280260
  entropy:          2028.2309125
  heat_capacity:    1111.4458787
  energy:            319.6943204

- temperature:       280.0000000
  free_energy:      -248.4138159
  entropy:          2068.6966443
  heat_capacity:    1113.8961299
  energy:            330.8212445

- temperature:       290.0000000
  free_energy:      -269.2974983
  entropy:          2107.8239355
  heat_capacity:    1116.1061894
  energy:            341.9714430

- temperature:       300.0000000
  free_energy:      -290.5661111
  entropy:          2145.6959324
  heat_capacity:    1118.1061950
  energy:            353.1426686

- temperature:       310.0000000
  free_energy:      -312.2074863
  entropy:          2182.3885120
  heat_capacity:    1119.9217406
  energy:            364.3329524

- temperature:       320.0000000
  free_energy:      -334.2101819
  entropy:          2217.9710738
  heat_capacity:    1121.5746670
  energy:            375.5405617

- temperature:       330.0000000
  free_energy:      -356.5634203
  entropy:          2252.5072325
  heat_capacity:    1123.0836988
  energy:            386.7639664

- temperature:       340.0000000
  free_energy:      -379.2570338
  entropy:          2286.0554232
  heat_capacity:    1124.4649592
  energy:            398.0018100

- temperature:       350.0000000
  free_energy:      -402.2814153
  entropy:          2318.6694333
  heat_capacity:    1125.7323891
  energy:            409.2528863

- temperature:       360.0000000
  free_energy:      -425.6274743
  entropy:          2350.3988701
  heat_capacity:    1126.8980899
  energy:            420.5161189

- temperature:       370.0000000
  free_energy:      -449.2865973
  entropy:          2381.2895721
  heat_capacity:    1127.9726055
  energy:            431.7905443

- temperature:       380.0000000
  free_energy:      -473.2506118
  entropy:          2411.3839729
  heat_capacity:    1128.9651556
  energy:            443.0752979

- temperature:       390.0000000
  free_energy:      -497.5117539
  entropy:          2440.7214237
  heat_capacity:    1129.8838293
  energy:            454.3696013

- temperature:       400.0000000
  free_energy:      -522.0626392
  entropy:          2469.3384782
  heat_capacity:    1130.7357466
  energy:            465.6727521

- temperature:       410.0000000
  free_energy:      -546.8962358
  entropy:          2497.2691477
  heat_capacity:    1131.5271938
  energy:            476.9841147

- temperature:       420.0000000
  free_energy:      -572.0058401
  entropy:          2524.5451265
  heat_capacity:    1132.2637375
  energy:            488.3031130

- temperature:       430.0000000
  free_energy:      -597.3850548
  entropy:          2551.1959950
  heat_capacity:    1132.9503208
  energy:            499.6292230

- temperature:       440.0000000
  free_energy:      -623.0277687
  entropy:          2577.2494006
  heat_capacity:    1133.5913449
  energy:            510.9619676

- temperature:       450.0000000
  free_energy:      -648.9281377
  entropy:          2602.7312199
  heat_capacity:    1134.1907388
  energy:            522.3009112

- temperature:       460.0000000
  free_energy:      -675.0805688
  entropy:          2627.6657047
  heat_capacity:    1134.7520181
  energy:            533.6456554

- temperature:       470.0000000
  free_energy:      -701.4797034
  entropy:          2652.0756137
  heat_capacity:    1135.2783364
  energy:            544.9958351

- temperature:       480.0000000
  free_energy:      -728.1204039
  entropy:          2675.9823311
  heat_capacity:    1135.7725289
  energy:            556.3511151

- temperature:       490.0000000
  free_energy:      -754.9977399
  entropy:          2699.4059735
  heat_capacity:    1136.2371500
  energy:            567.7111871

- temperature:       500.0000000
  free_energy:      -782.1069764
  entropy:          2722.3654871
  heat_capacity:    1136.6745057
  energy:            579.0757672

- temperature:       510.0000000
  free_energy:      -809.4435622
  entropy:          2744.8787363
  heat_capacity:    1137.0866825
  energy:            590.4445933

- temperature:       520.0000000
  free_energy:      -837.0031199
  entropy:          2766.9625829
  heat_capacity:    1137.4755714
  energy:            601.8174232

- temperature:       530.0000000
  free_energy:      -864.7814357
  entropy:          2788.6329596
  heat_capacity:    1137.8428896
  energy:            613.1940328

- temperature:       540.0000000
  free_energy:      -892.7744511
  entropy:          2809.9049361
  heat_capacity:    1138.1901995
  energy:            624.5742143

- temperature:       550.0000000
  free_energy:      -920.9782541
  entropy:          2830.7927800
  heat_capacity:    1138.5189248
  energy:            635.9577749

- temperature:       560.0000000
  free_energy:      -949.3890714
  entropy:          2851.3100119
  heat_capacity:    1138.8303649
  energy:            647.3445352

- temperature:       570.0000000
  free_energy:      -978.0032618
  entropy:          2871.4694567
  heat_capacity:    1139.1257083
  energy:            658.7343286

- temperature:       580.0000000
  free_energy:     -1006.8173086
  entropy:          2891.2832896
  heat_capacity:    1139.4060428
  energy:            670.1269994

- temperature:       590.0000000
  free_energy:     -1035.8278142
  entropy:          2910.7630794
  heat_capacity:    1139.6723663
  energy:            681.5224027

- temperature:       600.0000000
  free_energy:     -1065.0314935
  entropy:          2929.9198275
  heat_capacity:    1139.9255954
  energy:            692.9204031

- temperature:       610.0000000
  free_energy:     -1094.4251689
  entropy:          2948.7640043
  heat_capacity:    1140.1665728
  energy:            704.3208738

- temperature:       620.0000000
  free_energy:     -1124.0057649
  entropy:          2967.3055826
  heat_capacity:    1140.3960749
  energy:            715.7236963

- temperature:       630.0000000
  free_energy:     -1153.7703036
  entropy:          2985.5540683
  heat_capacity:    1140.6148174
  energy:            727.1287594

- temperature:       640.0000000
  free_energy:     -1183.7158996
  entropy:          3003.5185290
  heat_capacity:    1140.8234615
  energy:            738.5359590

- temperature:       650.0000000
  free_energy:     -1213.8397563
  entropy:          3021.2076205
  heat_capacity:    1141.0226182
  energy:            749.9451970

- temperature:       660.0000000
  free_energy:     -1244.1391617
  entropy:          3038.6296111
  heat_capacity:    1141.2128531
  energy:            761.3563816

- temperature:       670.0000000
  free_energy:     -1274.6114846
  entropy:          3055.7924040
  heat_capacity:    1141.3946905
  energy:            772.7694261

- temperature:       680.0000000
  free_energy:     -1305.2541710
  entropy:          3072.7035589
  heat_capacity:    1141.5686165
  energy:            784.1842490

- temperature:       690.0000000
  free_energy:     -1336.0647411
  entropy:          3089.3703112
  heat_capacity:    1141.7350830
  energy:            795.6007736

- temperature:       700.0000000
  free_energy:     -1367.0407857
  entropy:          3105.7995899
  heat_capacity:    1141.8945097
  energy:            807.0189272

- temperature:       710.0000000
  free_energy:     -1398.1799635
  entropy:          3121.9980354
  heat_capacity:    1142.0472876
  energy:            818.4386416

- temperature:       720.0000000
  free_energy:     -1429.4799982
  entropy:          3137.9720143
  heat_capacity:    1142.1937807
  energy:            829.8598520

- temperature:       730.0000000
  free_energy:     -1460.9386760
  entropy:          3153.7276347
  heat_capacity:    1142.3343287
  energy:            841.2824974

- temperature:       740.0000000
  free_energy:     -1492.5538426
  entropy:          3169.2707601
  heat_capacity:    1142.4692485
  energy:            852.7065199

- temperature:       750.0000000
  free_energy:     -1524.3234016
  entropy:          3184.6070217
  heat_capacity:    1142.5988361
  energy:            864.1318646

- temperature:       760.0000000
  free_energy:     -1556.2453116
  entropy:          3199.7418307
  heat_capacity:    1142.7233687
  energy:            875.5584797

- temperature:       770.0000000
  free_energy:     -1588.3175841
  entropy:          3214.6803897
  heat_capacity:    1142.8431054
  energy:            886.9863160

- temperature:       780.0000000
  free_energy:     -1620.5382819
  entropy:          3229.4277033
  heat_capacity:    1142.9582891
  energy:            898.4153267

- temperature:       790.0000000
  free_energy:     -1652.9055168
  entropy:          3243.9885875
  heat_capacity:    1143.0691474
  energy:            909.8454674

- temperature:       800.0000000
  free_energy:     -1685.4174477
  entropy:          3258.3676795
  heat_capacity:    1143.1758939
  energy:            921.2766959

- temperature:       810.0000000
  free_energy:     -1718.0722793
  entropy:          3272.5694463
  heat_capacity:    1143.2787294
  energy:            932.7089722

- temperature:       820.0000000
  free_energy:     -1750.8682599
  entropy:          3286.5981927
  heat_capacity:    1143.3778423
  energy:            944.1422581

- temperature:       830.0000000
  free_energy:     -1783.8036803
  entropy:          3300.4580693
  heat_capacity:    1143.4734100
  energy:            955.5765172

- temperature:       840.0000000
  free_energy:     -1816.8768718
  entropy:          3314.1530795
  heat_capacity:    1143.5655993
  energy:            967.0117150

- temperature:       850.0000000
  free_energy:     -1850.0862052
  entropy:          3327.6870867
  heat_capacity:    1143.6545676
  energy:            978.4478185

- temperature:       860.0000000
  free_energy:     -1883.4300893
  entropy:          3341.0638202
  heat_capacity:    1143.7404630
  energy:            989.8847961

- temperature:       870.0000000
  free_energy:     -1916.9069694
  entropy:          3354.2868820
  heat_capacity:    1143.8234252
  energy:           1001.3226180

- temperature:       880.0000000
  free_energy:     -1950.5153263
  entropy:          3367.3597518
  heat_capacity:    1143.9035861
  energy:           1012.7612553

- temperature:       890.0000000
  free_energy:     -1984.2536750
  entropy:          3380.2857930
  heat_capacity:    1143.9810704
  energy:           1024.2006808

- temperature:       900.0000000
  free_energy:     -2018.1205635
  entropy:          3393.0682575
  heat_capacity:    1144.0559959
  energy:           1035.6408682

- temperature:       910.0000000
  free_energy:     -2052.1145720
  entropy:          3405.7102907
  heat_capacity:    1144.1284737
  energy:           1047.0817925

- temperature:       920.0000000
  free_energy:     -2086.2343114
  entropy:          3418.2149362
  heat_capacity:    1144.1986094
  energy:           1058.5234299

- temperature:       930.0000000
  free_energy:     -2120.4784226
  entropy:          3430.5851397
  heat_capacity:    1144.2665027
  energy:           1069.9657573

- temperature:       940.0000000
  free_energy:     -2154.8455756
  entropy:          3442.8237536
  heat_capacity:    1144.3322480
  energy:           1081.4087528

- temperature:       950.0000000
  free_energy:     -2189.3344683
  entropy:          3454.9335407
  heat_capacity:    1144.3959350
  energy:           1092.8523953

- temperature:       960.0000000
  free_energy:     -2223.9438259
  entropy:          3466.9171779
  heat_capacity:    1144.4576486
  energy:           1104.2966649

- temperature:       970.0000000
  free_energy:     -2258.6724000
  entropy:          3478.7772598
  heat_capacity:    1144.5174695
  energy:           1115.7415420

- temperature:       980.0000000
  free_energy:     -2293.5189676
  entropy:          3490.5163019
  heat_capacity:    1144.5754741
  energy:           1127.1870082

- temperature:       990.0000000
  free_energy:     -2328.4823307
  entropy:          3502.1367438
  heat_capacity:    1144.6317354
  energy:           1138.6330457

- temperature:      1000.0000000
  free_energy:     -2363.5613151
  entropy:          3513.6409524
  heat_capacity:    1144.6863223
  energy:           1150.0796373
