# Thermal properties / unit cell (natom)

unit:
  temperature:   K
  free_energy:   kJ/mol
  entropy:       J/K/mol
  heat_capacity: J/K/mol

natom: 18   
cutoff_frequency: 0.00000
num_modes: 202500
num_integrated_modes: 199251

zero_point_energy:      66.0640800

thermal_properties:
- temperature:         0.0000000
  free_energy:        66.0640800
  entropy:             0.0000000
  heat_capacity:       0.0000000
  energy:             66.0640800

- temperature:        10.0000000
  free_energy:        66.0399846
  entropy:             7.8501207
  heat_capacity:      17.7260953
  energy:             66.1184858

- temperature:        20.0000000
  free_energy:        65.8494556
  entropy:            31.7258496
  heat_capacity:      53.6676922
  energy:             66.4839726

- temperature:        30.0000000
  free_energy:        65.3986151
  entropy:            58.2251456
  heat_capacity:      77.0242728
  energy:             67.1453695

- temperature:        40.0000000
  free_energy:        64.6911804
  entropy:            82.9724251
  heat_capacity:      95.8048580
  energy:             68.0100774

- temperature:        50.0000000
  free_energy:        63.7434683
  entropy:           106.4280715
  heat_capacity:     115.4680979
  energy:             69.0648719

- temperature:        60.0000000
  free_energy:        62.5643131
  entropy:           129.3625395
  heat_capacity:     137.0708568
  energy:             70.3260655

- temperature:        70.0000000
  free_energy:        61.1564911
  entropy:           152.2052728
  heat_capacity:     160.0328942
  energy:             71.8108602

- temperature:        80.0000000
  free_energy:        59.5200225
  entropy:           175.0980872
  heat_capacity:     183.3428587
  energy:             73.5278695

- temperature:        90.0000000
  free_energy:        57.6544423
  entropy:           198.0146111
  heat_capacity:     206.0744019
  energy:             75.4757573

- temperature:       100.0000000
  free_energy:        55.5599918
  entropy:           220.8521158
  heat_capacity:     227.5692306
  energy:             77.6452034

- temperature:       110.0000000
  free_energy:        53.2380740
  entropy:           243.4877723
  heat_capacity:     247.4475455
  energy:             80.0217290

- temperature:       120.0000000
  free_energy:        50.6912912
  entropy:           265.8077169
  heat_capacity:     265.5496730
  energy:             82.5882172

- temperature:       130.0000000
  free_energy:        47.9232844
  entropy:           287.7190350
  heat_capacity:     281.8657227
  energy:             85.3267590

- temperature:       140.0000000
  free_energy:        44.9385061
  entropy:           309.1523999
  heat_capacity:     296.4764388
  energy:             88.2198421

- temperature:       150.0000000
  free_energy:        41.7419901
  entropy:           330.0602686
  heat_capacity:     309.5105768
  energy:             91.2510304

- temperature:       160.0000000
  free_energy:        38.3391515
  entropy:           350.4133917
  heat_capacity:     321.1169482
  energy:             94.4052941

- temperature:       170.0000000
  free_energy:        34.7356218
  entropy:           370.1970312
  heat_capacity:     331.4473949
  energy:             97.6691171

- temperature:       180.0000000
  free_energy:        30.9371223
  entropy:           389.4075125
  heat_capacity:     340.6471948
  energy:            101.0304745

- temperature:       190.0000000
  free_energy:        26.9493678
  entropy:           408.0493272
  heat_capacity:     348.8502210
  energy:            104.4787399

- temperature:       200.0000000
  free_energy:        22.7779973
  entropy:           426.1328118
  heat_capacity:     356.1769978
  energy:            108.0045596

- temperature:       210.0000000
  free_energy:        18.4285250
  entropy:           443.6723422
  heat_capacity:     362.7344332
  energy:            111.5997169

- temperature:       220.0000000
  free_energy:        13.9063070
  entropy:           460.6849604
  heat_capacity:     368.6164625
  energy:            115.2569983

- temperature:       230.0000000
  free_energy:         9.2165200
  entropy:           477.1893454
  heat_capacity:     373.9051341
  energy:            118.9700694

- temperature:       240.0000000
  free_energy:         4.3641490
  entropy:           493.2050548
  heat_capacity:     378.6718639
  energy:            122.7333622

- temperature:       250.0000000
  free_energy:        -0.6460185
  entropy:           508.7519725
  heat_capacity:     382.9787010
  energy:            126.5419746

- temperature:       260.0000000
  free_energy:        -5.8093939
  entropy:           523.8499134
  heat_capacity:     386.8795248
  energy:            130.3915836

- temperature:       270.0000000
  free_energy:       -11.1215851
  entropy:           538.5183465
  heat_capacity:     390.4211339
  energy:            134.2783684

- temperature:       280.0000000
  free_energy:       -16.5783923
  entropy:           552.7762050
  heat_capacity:     393.6442131
  energy:            138.1989451

- temperature:       290.0000000
  free_energy:       -22.1758016
  entropy:           566.6417625
  heat_capacity:     396.5841806
  energy:            142.1503095

- temperature:       300.0000000
  free_energy:       -27.9099784
  entropy:           580.1325560
  heat_capacity:     399.2719212
  energy:            146.1297884

- temperature:       310.0000000
  free_energy:       -33.7772595
  entropy:           593.2653450
  heat_capacity:     401.7344179
  energy:            150.1349975

- temperature:       320.0000000
  free_energy:       -39.7741453
  entropy:           606.0560946
  heat_capacity:     403.9952938
  energy:            154.1638050

- temperature:       330.0000000
  free_energy:       -45.8972919
  entropy:           618.5199774
  heat_capacity:     406.0752751
  energy:            158.2143006

- temperature:       340.0000000
  free_energy:       -52.1435033
  entropy:           630.6713878
  heat_capacity:     407.9925868
  energy:            162.2847685

- temperature:       350.0000000
  free_energy:       -58.5097236
  entropy:           642.5239644
  heat_capacity:     409.7632912
  energy:            166.3736639

- temperature:       360.0000000
  free_energy:       -64.9930296
  entropy:           654.0906187
  heat_capacity:     411.4015764
  energy:            170.4795931

- temperature:       370.0000000
  free_energy:       -71.5906237
  entropy:           665.3835670
  heat_capacity:     412.9200036
  energy:            174.6012961

- temperature:       380.0000000
  free_energy:       -78.2998272
  entropy:           676.4143635
  heat_capacity:     414.3297184
  energy:            178.7376310

- temperature:       390.0000000
  free_energy:       -85.1180736
  entropy:           687.1939355
  heat_capacity:     415.6406326
  energy:            182.8875612

- temperature:       400.0000000
  free_energy:       -92.0429030
  entropy:           697.7326170
  heat_capacity:     416.8615796
  energy:            187.0501438

- temperature:       410.0000000
  free_energy:       -99.0719557
  entropy:           708.0401828
  heat_capacity:     418.0004489
  energy:            191.2245193

- temperature:       420.0000000
  free_energy:      -106.2029671
  entropy:           718.1258809
  heat_capacity:     419.0643013
  energy:            195.4099028

- temperature:       430.0000000
  free_energy:      -113.4337629
  entropy:           727.9984637
  heat_capacity:     420.0594693
  energy:            199.6055764

- temperature:       440.0000000
  free_energy:      -120.7622537
  entropy:           737.6662182
  heat_capacity:     420.9916430
  energy:            203.8108823

- temperature:       450.0000000
  free_energy:      -128.1864308
  entropy:           747.1369938
  heat_capacity:     421.8659457
  energy:            208.0252165

- temperature:       460.0000000
  free_energy:      -135.7043618
  entropy:           756.4182295
  heat_capacity:     422.6869987
  energy:            212.2480238

- temperature:       470.0000000
  free_energy:      -143.3141871
  entropy:           765.5169787
  heat_capacity:     423.4589782
  energy:            216.4787929

- temperature:       480.0000000
  free_energy:      -151.0141155
  entropy:           774.4399330
  heat_capacity:     424.1856650
  energy:            220.7170524

- temperature:       490.0000000
  free_energy:      -158.8024210
  entropy:           783.1934442
  heat_capacity:     424.8704880
  energy:            224.9623667

- temperature:       500.0000000
  free_energy:      -166.6774397
  entropy:           791.7835454
  heat_capacity:     425.5165618
  energy:            229.2143330

- temperature:       510.0000000
  free_energy:      -174.6375663
  entropy:           800.2159698
  heat_capacity:     426.1267207
  energy:            233.4725782

- temperature:       520.0000000
  free_energy:      -182.6812517
  entropy:           808.4961693
  heat_capacity:     426.7035473
  energy:            237.7367563

- temperature:       530.0000000
  free_energy:      -190.8069996
  entropy:           816.6293313
  heat_capacity:     427.2493993
  energy:            242.0065460

- temperature:       540.0000000
  free_energy:      -199.0133647
  entropy:           824.6203944
  heat_capacity:     427.7664317
  energy:            246.2816483

- temperature:       550.0000000
  free_energy:      -207.2989496
  entropy:           832.4740630
  heat_capacity:     428.2566175
  energy:            250.5617851

- temperature:       560.0000000
  free_energy:      -215.6624029
  entropy:           840.1948216
  heat_capacity:     428.7217654
  energy:            254.8466972

- temperature:       570.0000000
  free_energy:      -224.1024172
  entropy:           847.7869469
  heat_capacity:     429.1635357
  energy:            259.1361425

- temperature:       580.0000000
  free_energy:      -232.6177267
  entropy:           855.2545203
  heat_capacity:     429.5834549
  energy:            263.4298951

- temperature:       590.0000000
  free_energy:      -241.2071055
  entropy:           862.6014389
  heat_capacity:     429.9829279
  energy:            267.7277435

- temperature:       600.0000000
  free_energy:      -249.8693657
  entropy:           869.8314259
  heat_capacity:     430.3632496
  energy:            272.0294898

- temperature:       610.0000000
  free_energy:      -258.6033561
  entropy:           876.9480405
  heat_capacity:     430.7256148
  energy:            276.3349486

- temperature:       620.0000000
  free_energy:      -267.4079600
  entropy:           883.9546870
  heat_capacity:     431.0711273
  energy:            280.6439459

- temperature:       630.0000000
  free_energy:      -276.2820942
  entropy:           890.8546231
  heat_capacity:     431.4008083
  energy:            284.9563184

- temperature:       640.0000000
  free_energy:      -285.2247072
  entropy:           897.6509682
  heat_capacity:     431.7156030
  energy:            289.2719125

- temperature:       650.0000000
  free_energy:      -294.2347782
  entropy:           904.3467107
  heat_capacity:     432.0163880
  energy:            293.5905838

- temperature:       660.0000000
  free_energy:      -303.3113156
  entropy:           910.9447150
  heat_capacity:     432.3039766
  energy:            297.9121963

- temperature:       670.0000000
  free_energy:      -312.4533559
  entropy:           917.4477279
  heat_capacity:     432.5791243
  energy:            302.2366218

- temperature:       680.0000000
  free_energy:      -321.6599623
  entropy:           923.8583852
  heat_capacity:     432.8425339
  energy:            306.5637396

- temperature:       690.0000000
  free_energy:      -330.9302242
  entropy:           930.1792170
  heat_capacity:     433.0948594
  energy:            310.8934356

- temperature:       700.0000000
  free_energy:      -340.2632554
  entropy:           936.4126532
  heat_capacity:     433.3367102
  energy:            315.2256019

- temperature:       710.0000000
  free_energy:      -349.6581937
  entropy:           942.5610288
  heat_capacity:     433.5686546
  energy:            319.5601368

- temperature:       720.0000000
  free_energy:      -359.1141999
  entropy:           948.6265884
  heat_capacity:     433.7912233
  energy:            323.8969438

- temperature:       730.0000000
  free_energy:      -368.6304566
  entropy:           954.6114908
  heat_capacity:     434.0049119
  energy:            328.2359316

- temperature:       740.0000000
  free_energy:      -378.2061678
  entropy:           960.5178131
  heat_capacity:     434.2101840
  energy:            332.5770139

- temperature:       750.0000000
  free_energy:      -387.8405576
  entropy:           966.3475551
  heat_capacity:     434.4074736
  energy:            336.9201087

- temperature:       760.0000000
  free_energy:      -397.5328700
  entropy:           972.1026424
  heat_capacity:     434.5971870
  energy:            341.2651382

- temperature:       770.0000000
  free_energy:      -407.2823678
  entropy:           977.7849302
  heat_capacity:     434.7797053
  energy:            345.6120285

- temperature:       780.0000000
  free_energy:      -417.0883319
  entropy:           983.3962070
  heat_capacity:     434.9553859
  energy:            349.9607095

- temperature:       790.0000000
  free_energy:      -426.9500610
  entropy:           988.9381969
  heat_capacity:     435.1245646
  energy:            354.3111145

- temperature:       800.0000000
  free_energy:      -436.8668705
  entropy:           994.4125633
  heat_capacity:     435.2875567
  energy:            358.6631801

- temperature:       810.0000000
  free_energy:      -446.8380922
  entropy:           999.8209114
  heat_capacity:     435.4446589
  energy:            363.0168460

- temperature:       820.0000000
  free_energy:      -456.8630738
  entropy:          1005.1647908
  heat_capacity:     435.5961504
  energy:            367.3720546

- temperature:       830.0000000
  free_energy:      -466.9411781
  entropy:          1010.4456980
  heat_capacity:     435.7422939
  energy:            371.7287512

- temperature:       840.0000000
  free_energy:      -477.0717827
  entropy:          1015.6650788
  heat_capacity:     435.8833372
  energy:            376.0868835

- temperature:       850.0000000
  free_energy:      -487.2542793
  entropy:          1020.8243306
  heat_capacity:     436.0195139
  energy:            380.4464017

- temperature:       860.0000000
  free_energy:      -497.4880734
  entropy:          1025.9248043
  heat_capacity:     436.1510444
  energy:            384.8072583

- temperature:       870.0000000
  free_energy:      -507.7725838
  entropy:          1030.9678065
  heat_capacity:     436.2781369
  energy:            389.1694078

- temperature:       880.0000000
  free_energy:      -518.1072422
  entropy:          1035.9546012
  heat_capacity:     436.4009881
  energy:            393.5328069

- temperature:       890.0000000
  free_energy:      -528.4914925
  entropy:          1040.8864119
  heat_capacity:     436.5197838
  energy:            397.8974141

- temperature:       900.0000000
  free_energy:      -538.9247911
  entropy:          1045.7644230
  heat_capacity:     436.6346999
  energy:            402.2631896

- temperature:       910.0000000
  free_energy:      -549.4066055
  entropy:          1050.5897815
  heat_capacity:     436.7459030
  energy:            406.6300957

- temperature:       920.0000000
  free_energy:      -559.9364149
  entropy:          1055.3635986
  heat_capacity:     436.8535508
  energy:            410.9980959

- temperature:       930.0000000
  free_energy:      -570.5137093
  entropy:          1060.0869512
  heat_capacity:     436.9577926
  energy:            415.3671554

- temperature:       940.0000000
  free_energy:      -581.1379892
  entropy:          1064.7608830
  heat_capacity:     437.0587701
  energy:            419.7372408

- temperature:       950.0000000
  free_energy:      -591.8087656
  entropy:          1069.3864062
  heat_capacity:     437.1566179
  energy:            424.1083203

- temperature:       960.0000000
  free_energy:      -602.5255592
  entropy:          1073.9645025
  heat_capacity:     437.2514635
  energy:            428.4803632

- temperature:       970.0000000
  free_energy:      -613.2879007
  entropy:          1078.4961244
  heat_capacity:     437.3434280
  energy:            432.8533400

- temperature:       980.0000000
  free_energy:      -624.0953299
  entropy:          1082.9821963
  heat_capacity:     437.4326267
  energy:            437.2272225

- temperature:       990.0000000
  free_energy:      -634.9473958
  entropy:          1087.4236156
  heat_capacity:     437.5191689
  energy:            441.6019837

- temperature:      1000.0000000
  free_energy:      -645.8436563
  entropy:          1091.8212537
  heat_capacity:     437.6031589
  energy:            445.9775974
