# Thermal properties / unit cell (natom)

unit:
  temperature:   K
  free_energy:   kJ/mol
  entropy:       J/K/mol
  heat_capacity: J/K/mol

natom: 7    
cutoff_frequency: 0.00000
num_modes: 117936
num_integrated_modes: 107974

zero_point_energy:       6.3080643

thermal_properties:
- temperature:         0.0000000
  free_energy:         6.3080643
  entropy:             0.0000000
  heat_capacity:       0.0000000
  energy:              6.3080643

- temperature:        10.0000000
  free_energy:         6.2725464
  entropy:             9.6294671
  heat_capacity:      16.2142645
  energy:              6.3688411

- temperature:        20.0000000
  free_energy:         6.0744307
  entropy:            31.9643854
  heat_capacity:      55.3391342
  energy:              6.7137184

- temperature:        30.0000000
  free_energy:         5.6079527
  entropy:            61.8114712
  heat_capacity:      92.0162180
  energy:              7.4622968

- temperature:        40.0000000
  free_energy:         4.8387026
  entropy:            91.7049805
  heat_capacity:     114.9262038
  energy:              8.5069018

- temperature:        50.0000000
  free_energy:         3.7829174
  entropy:           118.9480538
  heat_capacity:     128.6216028
  energy:              9.7303201

- temperature:        60.0000000
  free_energy:         2.4697424
  entropy:           143.2078914
  heat_capacity:     137.1201835
  energy:             11.0622159

- temperature:        70.0000000
  free_energy:         0.9276939
  entropy:           164.7895793
  heat_capacity:     142.6578988
  energy:             12.4629644

- temperature:        80.0000000
  free_energy:        -0.8184852
  entropy:           184.1004876
  heat_capacity:     146.4327073
  energy:             13.9095538

- temperature:        90.0000000
  free_energy:        -2.7479878
  entropy:           201.5107604
  heat_capacity:     149.1073104
  energy:             15.3879807

- temperature:       100.0000000
  free_energy:        -4.8433943
  entropy:           217.3272150
  heat_capacity:     151.0652436
  energy:             16.8893272

- temperature:       110.0000000
  free_energy:        -7.0900504
  entropy:           231.7975429
  heat_capacity:     152.5385703
  energy:             18.4076794

- temperature:       120.0000000
  free_energy:        -9.4755260
  entropy:           245.1208498
  heat_capacity:     153.6734769
  energy:             19.9389759

- temperature:       130.0000000
  free_energy:       -11.9891831
  entropy:           257.4578874
  heat_capacity:     154.5653867
  energy:             21.4803423

- temperature:       140.0000000
  free_energy:       -14.6218348
  entropy:           268.9394632
  heat_capacity:     155.2785598
  energy:             23.0296900

- temperature:       150.0000000
  free_energy:       -17.3654809
  entropy:           279.6729881
  heat_capacity:     155.8574703
  energy:             24.5854673

- temperature:       160.0000000
  free_energy:       -20.2130994
  entropy:           289.7474835
  heat_capacity:     156.3336479
  energy:             26.1464979

- temperature:       170.0000000
  free_energy:       -23.1584832
  entropy:           299.2373991
  heat_capacity:     156.7299265
  energy:             27.7118746

- temperature:       180.0000000
  free_energy:       -26.1961092
  entropy:           308.2055330
  heat_capacity:     157.0631581
  energy:             29.2808868

- temperature:       190.0000000
  free_energy:       -29.3210335
  entropy:           316.7052820
  heat_capacity:     157.3459919
  energy:             30.8529701

- temperature:       200.0000000
  free_energy:       -32.5288067
  entropy:           324.7823885
  heat_capacity:     157.5880677
  energy:             32.4276710

- temperature:       210.0000000
  free_energy:       -35.8154045
  entropy:           332.4763102
  heat_capacity:     157.7968332
  energy:             34.0046206

- temperature:       220.0000000
  free_energy:       -39.1771703
  entropy:           339.8213021
  heat_capacity:     157.9781140
  energy:             35.5835162

- temperature:       230.0000000
  free_energy:       -42.6107676
  entropy:           346.8472797
  heat_capacity:     158.1365193
  energy:             37.1641067

- temperature:       240.0000000
  free_energy:       -46.1131404
  entropy:           353.5805128
  heat_capacity:     158.2757332
  energy:             38.7461827

- temperature:       250.0000000
  free_energy:       -49.6814796
  entropy:           360.0441880
  heat_capacity:     158.3987285
  energy:             40.3295674

- temperature:       260.0000000
  free_energy:       -53.3131944
  entropy:           366.2588681
  heat_capacity:     158.5079251
  energy:             41.9141113

- temperature:       270.0000000
  free_energy:       -57.0058883
  entropy:           372.2428697
  heat_capacity:     158.6053088
  energy:             43.4996866

- temperature:       280.0000000
  free_energy:       -60.7573377
  entropy:           378.0125760
  heat_capacity:     158.6925210
  energy:             45.0861836

- temperature:       290.0000000
  free_energy:       -64.5654747
  entropy:           383.5826976
  heat_capacity:     158.7709282
  energy:             46.6735077

- temperature:       300.0000000
  free_energy:       -68.4283707
  entropy:           388.9664911
  heat_capacity:     158.8416752
  energy:             48.2615766

- temperature:       310.0000000
  free_energy:       -72.3442235
  entropy:           394.1759430
  heat_capacity:     158.9057270
  energy:             49.8503189

- temperature:       320.0000000
  free_energy:       -76.3113448
  entropy:           399.2219261
  heat_capacity:     158.9639014
  energy:             51.4396716

- temperature:       330.0000000
  free_energy:       -80.3281502
  entropy:           404.1143327
  heat_capacity:     159.0168951
  energy:             53.0295796

- temperature:       340.0000000
  free_energy:       -84.3931497
  entropy:           408.8621879
  heat_capacity:     159.0653049
  energy:             54.6199942

- temperature:       350.0000000
  free_energy:       -88.5049397
  entropy:           413.4737481
  heat_capacity:     159.1096439
  energy:             56.2108722

- temperature:       360.0000000
  free_energy:       -92.6621956
  entropy:           417.9565851
  heat_capacity:     159.1503556
  energy:             57.8021750

- temperature:       370.0000000
  free_energy:       -96.8636656
  entropy:           422.3176596
  heat_capacity:     159.1878248
  energy:             59.3938685

- temperature:       380.0000000
  free_energy:      -101.1081644
  entropy:           426.5633847
  heat_capacity:     159.2223866
  energy:             60.9859218

- temperature:       390.0000000
  free_energy:      -105.3945685
  entropy:           430.6996822
  heat_capacity:     159.2543339
  energy:             62.5783075

- temperature:       400.0000000
  free_energy:      -109.7218116
  entropy:           434.7320305
  heat_capacity:     159.2839237
  energy:             64.1710007

- temperature:       410.0000000
  free_energy:      -114.0888796
  entropy:           438.6655086
  heat_capacity:     159.3113821
  energy:             65.7639789

- temperature:       420.0000000
  free_energy:      -118.4948079
  entropy:           442.5048328
  heat_capacity:     159.3369090
  energy:             67.3572219

- temperature:       430.0000000
  free_energy:      -122.9386771
  entropy:           446.2543914
  heat_capacity:     159.3606811
  energy:             68.9507112

- temperature:       440.0000000
  free_energy:      -127.4196102
  entropy:           449.9182735
  heat_capacity:     159.3828556
  energy:             70.5444302

- temperature:       450.0000000
  free_energy:      -131.9367697
  entropy:           453.5002960
  heat_capacity:     159.4035724
  energy:             72.1383635

- temperature:       460.0000000
  free_energy:      -136.4893552
  entropy:           457.0040268
  heat_capacity:     159.4229565
  energy:             73.7324972

- temperature:       470.0000000
  free_energy:      -141.0766005
  entropy:           460.4328063
  heat_capacity:     159.4411197
  energy:             75.3268185

- temperature:       480.0000000
  free_energy:      -145.6977719
  entropy:           463.7897661
  heat_capacity:     159.4581623
  energy:             76.9213158

- temperature:       490.0000000
  free_energy:      -150.3521662
  entropy:           467.0778460
  heat_capacity:     159.4741746
  energy:             78.5159783

- temperature:       500.0000000
  free_energy:      -155.0391085
  entropy:           470.2998092
  heat_capacity:     159.4892380
  energy:             80.1107962

- temperature:       510.0000000
  free_energy:      -159.7579507
  entropy:           473.4582566
  heat_capacity:     159.5034260
  energy:             81.7057602

- temperature:       520.0000000
  free_energy:      -164.5080701
  entropy:           476.5556385
  heat_capacity:     159.5168050
  energy:             83.3008620

- temperature:       530.0000000
  free_energy:      -169.2888676
  entropy:           479.5942668
  heat_capacity:     159.5294354
  energy:             84.8960938

- temperature:       540.0000000
  free_energy:      -174.0997668
  entropy:           482.5763245
  heat_capacity:     159.5413720
  energy:             86.4914484

- temperature:       550.0000000
  free_energy:      -178.9402124
  entropy:           485.5038755
  heat_capacity:     159.5526647
  energy:             88.0869191

- temperature:       560.0000000
  free_energy:      -183.8096692
  entropy:           488.3788730
  heat_capacity:     159.5633589
  energy:             89.6824997

- temperature:       570.0000000
  free_energy:      -188.7076209
  entropy:           491.2031672
  heat_capacity:     159.5734962
  energy:             91.2781844

- temperature:       580.0000000
  free_energy:      -193.6335694
  entropy:           493.9785125
  heat_capacity:     159.5831145
  energy:             92.8739679

- temperature:       590.0000000
  free_energy:      -198.5870335
  entropy:           496.7065739
  heat_capacity:     159.5922488
  energy:             94.4698451

- temperature:       600.0000000
  free_energy:      -203.5675485
  entropy:           499.3889331
  heat_capacity:     159.6009308
  energy:             96.0658113

- temperature:       610.0000000
  free_energy:      -208.5746649
  entropy:           502.0270937
  heat_capacity:     159.6091900
  energy:             97.6618623

- temperature:       620.0000000
  free_energy:      -213.6079478
  entropy:           504.6224866
  heat_capacity:     159.6170534
  energy:             99.2579938

- temperature:       630.0000000
  free_energy:      -218.6669766
  entropy:           507.1764742
  heat_capacity:     159.6245459
  energy:            100.8542021

- temperature:       640.0000000
  free_energy:      -223.7513436
  entropy:           509.6903550
  heat_capacity:     159.6316904
  energy:            102.4504836

- temperature:       650.0000000
  free_energy:      -228.8606541
  entropy:           512.1653677
  heat_capacity:     159.6385082
  energy:            104.0468348

- temperature:       660.0000000
  free_energy:      -233.9945254
  entropy:           514.6026941
  heat_capacity:     159.6450187
  energy:            105.6432527

- temperature:       670.0000000
  free_energy:      -239.1525862
  entropy:           517.0034633
  heat_capacity:     159.6512404
  energy:            107.2397342

- temperature:       680.0000000
  free_energy:      -244.3344764
  entropy:           519.3687544
  heat_capacity:     159.6571899
  energy:            108.8362766

- temperature:       690.0000000
  free_energy:      -249.5398465
  entropy:           521.6995995
  heat_capacity:     159.6628829
  energy:            110.4328772

- temperature:       700.0000000
  free_energy:      -254.7683569
  entropy:           523.9969862
  heat_capacity:     159.6683339
  energy:            112.0295335

- temperature:       710.0000000
  free_energy:      -260.0196778
  entropy:           526.2618604
  heat_capacity:     159.6735565
  energy:            113.6262431

- temperature:       720.0000000
  free_energy:      -265.2934887
  entropy:           528.4951286
  heat_capacity:     159.6785633
  energy:            115.2230039

- temperature:       730.0000000
  free_energy:      -270.5894779
  entropy:           530.6976597
  heat_capacity:     159.6833659
  energy:            116.8198137

- temperature:       740.0000000
  free_energy:      -275.9073422
  entropy:           532.8702876
  heat_capacity:     159.6879754
  energy:            118.4166706

- temperature:       750.0000000
  free_energy:      -281.2467867
  entropy:           535.0138123
  heat_capacity:     159.6924018
  energy:            120.0135726

- temperature:       760.0000000
  free_energy:      -286.6075240
  entropy:           537.1290027
  heat_capacity:     159.6966549
  energy:            121.6105180

- temperature:       770.0000000
  free_energy:      -291.9892747
  entropy:           539.2165972
  heat_capacity:     159.7007435
  energy:            123.2075051

- temperature:       780.0000000
  free_energy:      -297.3917664
  entropy:           541.2773061
  heat_capacity:     159.7046760
  energy:            124.8045324

- temperature:       790.0000000
  free_energy:      -302.8147335
  entropy:           543.3118123
  heat_capacity:     159.7084603
  energy:            126.4015982

- temperature:       800.0000000
  free_energy:      -308.2579175
  entropy:           545.3207732
  heat_capacity:     159.7121037
  energy:            127.9987011

- temperature:       810.0000000
  free_energy:      -313.7210659
  entropy:           547.3048219
  heat_capacity:     159.7156130
  energy:            129.5958398

- temperature:       820.0000000
  free_energy:      -319.2039329
  entropy:           549.2645681
  heat_capacity:     159.7189949
  energy:            131.1930129

- temperature:       830.0000000
  free_energy:      -324.7062783
  entropy:           551.2005995
  heat_capacity:     159.7222554
  energy:            132.7902193

- temperature:       840.0000000
  free_energy:      -330.2278677
  entropy:           553.1134826
  heat_capacity:     159.7254002
  energy:            134.3874577

- temperature:       850.0000000
  free_energy:      -335.7684726
  entropy:           555.0037641
  heat_capacity:     159.7284348
  energy:            135.9847269

- temperature:       860.0000000
  free_energy:      -341.3278694
  entropy:           556.8719714
  heat_capacity:     159.7313642
  energy:            137.5820260

- temperature:       870.0000000
  free_energy:      -346.9058401
  entropy:           558.7186138
  heat_capacity:     159.7341932
  energy:            139.1793539

- temperature:       880.0000000
  free_energy:      -352.5021715
  entropy:           560.5441830
  heat_capacity:     159.7369264
  energy:            140.7767095

- temperature:       890.0000000
  free_energy:      -358.1166551
  entropy:           562.3491542
  heat_capacity:     159.7395681
  energy:            142.3740921

- temperature:       900.0000000
  free_energy:      -363.7490874
  entropy:           564.1339867
  heat_capacity:     159.7421223
  energy:            143.9715006

- temperature:       910.0000000
  free_energy:      -369.3992692
  entropy:           565.8991247
  heat_capacity:     159.7445928
  energy:            145.5689343

- temperature:       920.0000000
  free_energy:      -375.0670057
  entropy:           567.6449977
  heat_capacity:     159.7469832
  energy:            147.1663922

- temperature:       930.0000000
  free_energy:      -380.7521063
  entropy:           569.3720215
  heat_capacity:     159.7492970
  energy:            148.7638737

- temperature:       940.0000000
  free_energy:      -386.4543846
  entropy:           571.0805985
  heat_capacity:     159.7515374
  energy:            150.3613779

- temperature:       950.0000000
  free_energy:      -392.1736581
  entropy:           572.7711182
  heat_capacity:     159.7537074
  energy:            151.9589042

- temperature:       960.0000000
  free_energy:      -397.9097481
  entropy:           574.4439582
  heat_capacity:     159.7558100
  energy:            153.5564518

- temperature:       970.0000000
  free_energy:      -403.6624796
  entropy:           576.0994843
  heat_capacity:     159.7578480
  energy:            155.1540202

- temperature:       980.0000000
  free_energy:      -409.4316812
  entropy:           577.7380508
  heat_capacity:     159.7598239
  energy:            156.7516086

- temperature:       990.0000000
  free_energy:      -415.2171852
  entropy:           579.3600017
  heat_capacity:     159.7617403
  energy:            158.3492165

- temperature:      1000.0000000
  free_energy:      -421.0188270
  entropy:           580.9656702
  heat_capacity:     159.7635996
  energy:            159.9468432
