phonopy:
  version: "2.37.1"
  frequency_unit_conversion_factor: 15.633302
  symmetry_tolerance: 1.00000e-05

space_group:
  type: "P1"
  number: 1
  Hall_symbol: "P 1"

primitive_matrix:
- [ -1.000000000000000, -1.000000000000000, -0.000000000000000 ]
- [  0.000000000000000, -1.000000000000000, -0.000000000000000 ]
- [  0.000000000000000,  0.000000000000000,  1.000000000000000 ]

supercell_matrix:
- [   2,   0,   0 ]
- [   0,   2,   0 ]
- [   0,   0,   1 ]

primitive_cell:
  lattice:
  - [    -5.954432419603516,     0.000000000000000,     0.000000000000000 ] # a
  - [    -2.859470535265459,    -5.244562662146726,     0.000000000000000 ] # b
  - [    -0.110195128607496,    -0.886006913752690,    10.097604612621849 ] # c
  points:
  - symbol: Li # 1
    coordinates: [  0.043516067261194,  0.317557516273646,  0.182071826664071 ]
    mass: 6.940000
  - symbol: Li # 2
    coordinates: [  0.230208102924332,  0.957353812489106,  0.931611076863801 ]
    mass: 6.940000
  - symbol: Li # 3
    coordinates: [  0.543708717330417,  0.317629098474205,  0.182059655202458 ]
    mass: 6.940000
  - symbol: Li # 4
    coordinates: [  0.043399542812460,  0.317971551885968,  0.682252487093289 ]
    mass: 6.940000
  - symbol: Li # 5
    coordinates: [  0.543366016823391,  0.817994582178472,  0.682275642041218 ]
    mass: 6.940000
  - symbol: Li # 6
    coordinates: [  0.856630915546779,  0.678836407228939,  0.433106614980234 ]
    mass: 6.940000
  - symbol: Li # 7
    coordinates: [  0.725470914257226,  0.964174453416953,  0.927342116191200 ]
    mass: 6.940000
  - symbol: Li # 8
    coordinates: [  0.361684491966183,  0.671884479232399,  0.437203333502529 ]
    mass: 6.940000
  - symbol: Li # 9
    coordinates: [  0.043863886723371,  0.817171779913677,  0.182475583737600 ]
    mass: 6.940000
  - symbol: Li # 10
    coordinates: [  0.227597082661666,  0.466632891534703,  0.917707541019625 ]
    mass: 6.940000
  - symbol: Li # 11
    coordinates: [  0.859338315341521,  0.169424522544188,  0.446631887172387 ]
    mass: 6.940000
  - symbol: Sn # 12
    coordinates: [  0.043421032063627,  0.818014757355250,  0.682235697869198 ]
    mass: 118.710000
  - symbol: Sn # 13
    coordinates: [  0.348627952119727,  0.177203146863435,  0.418507517714161 ]
    mass: 118.710000
  - symbol: Sn # 14
    coordinates: [  0.543358774254358,  0.317960620417453,  0.682166693994746 ]
    mass: 118.710000
  - symbol: Sn # 15
    coordinates: [  0.543636326066025,  0.817744570247065,  0.182282407113537 ]
    mass: 118.710000
  - symbol: Sn # 16
    coordinates: [  0.738002170806372,  0.459216603898323,  0.945699260596634 ]
    mass: 118.710000
  reciprocal_lattice: # without 2pi
  - [    -0.167942119337478,     0.091566365550676,     0.006201671773504 ] # a*
  - [    -0.000000000000000,    -0.190673668029104,    -0.016730521210268 ] # b*
  - [    -0.000000000000000,    -0.000000000000000,     0.099033388448387 ] # c*

unit_cell:
  lattice:
  - [     5.954432419603515,     0.000000000000000,     0.000000000000000 ] # a
  - [    -3.094961884338056,     5.244562662146725,     0.000000000000000 ] # b
  - [    -0.110195128607496,    -0.886006913752689,    10.097604612621847 ] # c
  points:
  - symbol: Li # 1
    coordinates: [  0.638926416465160,  0.682442483726354,  0.182071826664071 ]
    mass: 6.940000
    reduced_to: 1
  - symbol: Li # 2
    coordinates: [  0.812438084586562,  0.042646187510894,  0.931611076863801 ]
    mass: 6.940000
    reduced_to: 2
  - symbol: Li # 3
    coordinates: [  0.138662184195378,  0.682370901525795,  0.182059655202458 ]
    mass: 6.940000
    reduced_to: 3
  - symbol: Li # 4
    coordinates: [  0.638628905301572,  0.682028448114032,  0.682252487093289 ]
    mass: 6.940000
    reduced_to: 4
  - symbol: Li # 5
    coordinates: [  0.638639400998137,  0.182005417821528,  0.682275642041218 ]
    mass: 6.940000
    reduced_to: 5
  - symbol: Li # 6
    coordinates: [  0.464532677224282,  0.321163592771061,  0.433106614980234 ]
    mass: 6.940000
    reduced_to: 6
  - symbol: Li # 7
    coordinates: [  0.310354632325821,  0.035825546583047,  0.927342116191201 ]
    mass: 6.940000
    reduced_to: 7
  - symbol: Li # 8
    coordinates: [  0.966431028801418,  0.328115520767601,  0.437203333502529 ]
    mass: 6.940000
    reduced_to: 8
  - symbol: Li # 9
    coordinates: [  0.138964333362952,  0.182828220086323,  0.182475583737600 ]
    mass: 6.940000
    reduced_to: 9
  - symbol: Li # 10
    coordinates: [  0.305770025803631,  0.533367108465297,  0.917707541019625 ]
    mass: 6.940000
    reduced_to: 10
  - symbol: Li # 11
    coordinates: [  0.971237162114291,  0.830575477455812,  0.446631887172387 ]
    mass: 6.940000
    reduced_to: 11
  - symbol: Sn # 12
    coordinates: [  0.138564210581123,  0.181985242644750,  0.682235697869198 ]
    mass: 118.710000
    reduced_to: 12
  - symbol: Sn # 13
    coordinates: [  0.474168901016838,  0.822796853136565,  0.418507517714161 ]
    mass: 118.710000
    reduced_to: 13
  - symbol: Sn # 14
    coordinates: [  0.138680605328189,  0.682039379582547,  0.682166693994746 ]
    mass: 118.710000
    reduced_to: 14
  - symbol: Sn # 15
    coordinates: [  0.638619103686911,  0.182255429752935,  0.182282407113537 ]
    mass: 118.710000
    reduced_to: 15
  - symbol: Sn # 16
    coordinates: [  0.802781225295305,  0.540783396101677,  0.945699260596634 ]
    mass: 118.710000
    reduced_to: 16

supercell:
  lattice:
  - [    11.908864839207030,     0.000000000000000,     0.000000000000000 ] # a
  - [    -6.189923768676112,    10.489125324293450,     0.000000000000000 ] # b
  - [    -0.110195128607496,    -0.886006913752689,    10.097604612621847 ] # c
  points:
  - symbol: Li # 1
    coordinates: [  0.319463208232580,  0.341221241863177,  0.182071826664071 ]
    mass: 6.940000
    reduced_to: 1
  - symbol: Li # 2
    coordinates: [  0.819463208232580,  0.341221241863177,  0.182071826664071 ]
    mass: 6.940000
    reduced_to: 1
  - symbol: Li # 3
    coordinates: [  0.319463208232580,  0.841221241863177,  0.182071826664071 ]
    mass: 6.940000
    reduced_to: 1
  - symbol: Li # 4
    coordinates: [  0.819463208232580,  0.841221241863177,  0.182071826664071 ]
    mass: 6.940000
    reduced_to: 1
  - symbol: Li # 5
    coordinates: [  0.406219042293281,  0.021323093755447,  0.931611076863801 ]
    mass: 6.940000
    reduced_to: 5
  - symbol: Li # 6
    coordinates: [  0.906219042293281,  0.021323093755447,  0.931611076863801 ]
    mass: 6.940000
    reduced_to: 5
  - symbol: Li # 7
    coordinates: [  0.406219042293281,  0.521323093755447,  0.931611076863801 ]
    mass: 6.940000
    reduced_to: 5
  - symbol: Li # 8
    coordinates: [  0.906219042293281,  0.521323093755447,  0.931611076863801 ]
    mass: 6.940000
    reduced_to: 5
  - symbol: Li # 9
    coordinates: [  0.069331092097689,  0.341185450762898,  0.182059655202458 ]
    mass: 6.940000
    reduced_to: 9
  - symbol: Li # 10
    coordinates: [  0.569331092097689,  0.341185450762898,  0.182059655202458 ]
    mass: 6.940000
    reduced_to: 9
  - symbol: Li # 11
    coordinates: [  0.069331092097689,  0.841185450762898,  0.182059655202458 ]
    mass: 6.940000
    reduced_to: 9
  - symbol: Li # 12
    coordinates: [  0.569331092097689,  0.841185450762898,  0.182059655202458 ]
    mass: 6.940000
    reduced_to: 9
  - symbol: Li # 13
    coordinates: [  0.319314452650786,  0.341014224057016,  0.682252487093289 ]
    mass: 6.940000
    reduced_to: 13
  - symbol: Li # 14
    coordinates: [  0.819314452650786,  0.341014224057016,  0.682252487093289 ]
    mass: 6.940000
    reduced_to: 13
  - symbol: Li # 15
    coordinates: [  0.319314452650786,  0.841014224057016,  0.682252487093289 ]
    mass: 6.940000
    reduced_to: 13
  - symbol: Li # 16
    coordinates: [  0.819314452650786,  0.841014224057016,  0.682252487093289 ]
    mass: 6.940000
    reduced_to: 13
  - symbol: Li # 17
    coordinates: [  0.319319700499068,  0.091002708910764,  0.682275642041218 ]
    mass: 6.940000
    reduced_to: 17
  - symbol: Li # 18
    coordinates: [  0.819319700499068,  0.091002708910764,  0.682275642041218 ]
    mass: 6.940000
    reduced_to: 17
  - symbol: Li # 19
    coordinates: [  0.319319700499068,  0.591002708910764,  0.682275642041218 ]
    mass: 6.940000
    reduced_to: 17
  - symbol: Li # 20
    coordinates: [  0.819319700499068,  0.591002708910764,  0.682275642041218 ]
    mass: 6.940000
    reduced_to: 17
  - symbol: Li # 21
    coordinates: [  0.232266338612141,  0.160581796385530,  0.433106614980234 ]
    mass: 6.940000
    reduced_to: 21
  - symbol: Li # 22
    coordinates: [  0.732266338612141,  0.160581796385530,  0.433106614980234 ]
    mass: 6.940000
    reduced_to: 21
  - symbol: Li # 23
    coordinates: [  0.232266338612141,  0.660581796385530,  0.433106614980234 ]
    mass: 6.940000
    reduced_to: 21
  - symbol: Li # 24
    coordinates: [  0.732266338612141,  0.660581796385530,  0.433106614980234 ]
    mass: 6.940000
    reduced_to: 21
  - symbol: Li # 25
    coordinates: [  0.155177316162911,  0.017912773291524,  0.927342116191201 ]
    mass: 6.940000
    reduced_to: 25
  - symbol: Li # 26
    coordinates: [  0.655177316162911,  0.017912773291524,  0.927342116191201 ]
    mass: 6.940000
    reduced_to: 25
  - symbol: Li # 27
    coordinates: [  0.155177316162911,  0.517912773291524,  0.927342116191201 ]
    mass: 6.940000
    reduced_to: 25
  - symbol: Li # 28
    coordinates: [  0.655177316162911,  0.517912773291524,  0.927342116191201 ]
    mass: 6.940000
    reduced_to: 25
  - symbol: Li # 29
    coordinates: [  0.483215514400709,  0.164057760383801,  0.437203333502529 ]
    mass: 6.940000
    reduced_to: 29
  - symbol: Li # 30
    coordinates: [  0.983215514400709,  0.164057760383801,  0.437203333502529 ]
    mass: 6.940000
    reduced_to: 29
  - symbol: Li # 31
    coordinates: [  0.483215514400709,  0.664057760383801,  0.437203333502529 ]
    mass: 6.940000
    reduced_to: 29
  - symbol: Li # 32
    coordinates: [  0.983215514400709,  0.664057760383801,  0.437203333502529 ]
    mass: 6.940000
    reduced_to: 29
  - symbol: Li # 33
    coordinates: [  0.069482166681476,  0.091414110043162,  0.182475583737600 ]
    mass: 6.940000
    reduced_to: 33
  - symbol: Li # 34
    coordinates: [  0.569482166681476,  0.091414110043162,  0.182475583737600 ]
    mass: 6.940000
    reduced_to: 33
  - symbol: Li # 35
    coordinates: [  0.069482166681476,  0.591414110043162,  0.182475583737600 ]
    mass: 6.940000
    reduced_to: 33
  - symbol: Li # 36
    coordinates: [  0.569482166681476,  0.591414110043162,  0.182475583737600 ]
    mass: 6.940000
    reduced_to: 33
  - symbol: Li # 37
    coordinates: [  0.152885012901816,  0.266683554232649,  0.917707541019625 ]
    mass: 6.940000
    reduced_to: 37
  - symbol: Li # 38
    coordinates: [  0.652885012901816,  0.266683554232649,  0.917707541019625 ]
    mass: 6.940000
    reduced_to: 37
  - symbol: Li # 39
    coordinates: [  0.152885012901816,  0.766683554232649,  0.917707541019625 ]
    mass: 6.940000
    reduced_to: 37
  - symbol: Li # 40
    coordinates: [  0.652885012901816,  0.766683554232649,  0.917707541019625 ]
    mass: 6.940000
    reduced_to: 37
  - symbol: Li # 41
    coordinates: [  0.485618581057145,  0.415287738727906,  0.446631887172387 ]
    mass: 6.940000
    reduced_to: 41
  - symbol: Li # 42
    coordinates: [  0.985618581057145,  0.415287738727906,  0.446631887172387 ]
    mass: 6.940000
    reduced_to: 41
  - symbol: Li # 43
    coordinates: [  0.485618581057145,  0.915287738727906,  0.446631887172387 ]
    mass: 6.940000
    reduced_to: 41
  - symbol: Li # 44
    coordinates: [  0.985618581057145,  0.915287738727906,  0.446631887172387 ]
    mass: 6.940000
    reduced_to: 41
  - symbol: Sn # 45
    coordinates: [  0.069282105290561,  0.090992621322375,  0.682235697869198 ]
    mass: 118.710000
    reduced_to: 45
  - symbol: Sn # 46
    coordinates: [  0.569282105290561,  0.090992621322375,  0.682235697869198 ]
    mass: 118.710000
    reduced_to: 45
  - symbol: Sn # 47
    coordinates: [  0.069282105290561,  0.590992621322375,  0.682235697869198 ]
    mass: 118.710000
    reduced_to: 45
  - symbol: Sn # 48
    coordinates: [  0.569282105290561,  0.590992621322375,  0.682235697869198 ]
    mass: 118.710000
    reduced_to: 45
  - symbol: Sn # 49
    coordinates: [  0.237084450508419,  0.411398426568282,  0.418507517714161 ]
    mass: 118.710000
    reduced_to: 49
  - symbol: Sn # 50
    coordinates: [  0.737084450508419,  0.411398426568282,  0.418507517714161 ]
    mass: 118.710000
    reduced_to: 49
  - symbol: Sn # 51
    coordinates: [  0.237084450508419,  0.911398426568282,  0.418507517714161 ]
    mass: 118.710000
    reduced_to: 49
  - symbol: Sn # 52
    coordinates: [  0.737084450508419,  0.911398426568282,  0.418507517714161 ]
    mass: 118.710000
    reduced_to: 49
  - symbol: Sn # 53
    coordinates: [  0.069340302664095,  0.341019689791274,  0.682166693994746 ]
    mass: 118.710000
    reduced_to: 53
  - symbol: Sn # 54
    coordinates: [  0.569340302664095,  0.341019689791274,  0.682166693994746 ]
    mass: 118.710000
    reduced_to: 53
  - symbol: Sn # 55
    coordinates: [  0.069340302664095,  0.841019689791274,  0.682166693994746 ]
    mass: 118.710000
    reduced_to: 53
  - symbol: Sn # 56
    coordinates: [  0.569340302664095,  0.841019689791274,  0.682166693994746 ]
    mass: 118.710000
    reduced_to: 53
  - symbol: Sn # 57
    coordinates: [  0.319309551843455,  0.091127714876468,  0.182282407113537 ]
    mass: 118.710000
    reduced_to: 57
  - symbol: Sn # 58
    coordinates: [  0.819309551843455,  0.091127714876468,  0.182282407113537 ]
    mass: 118.710000
    reduced_to: 57
  - symbol: Sn # 59
    coordinates: [  0.319309551843455,  0.591127714876468,  0.182282407113537 ]
    mass: 118.710000
    reduced_to: 57
  - symbol: Sn # 60
    coordinates: [  0.819309551843455,  0.591127714876468,  0.182282407113537 ]
    mass: 118.710000
    reduced_to: 57
  - symbol: Sn # 61
    coordinates: [  0.401390612647653,  0.270391698050839,  0.945699260596634 ]
    mass: 118.710000
    reduced_to: 61
  - symbol: Sn # 62
    coordinates: [  0.901390612647653,  0.270391698050839,  0.945699260596634 ]
    mass: 118.710000
    reduced_to: 61
  - symbol: Sn # 63
    coordinates: [  0.401390612647653,  0.770391698050839,  0.945699260596634 ]
    mass: 118.710000
    reduced_to: 61
  - symbol: Sn # 64
    coordinates: [  0.901390612647653,  0.770391698050839,  0.945699260596634 ]
    mass: 118.710000
    reduced_to: 61

displacements:
- atom:    1
  displacement:
    [   0.0100000000000000,  0.0000000000000000,  0.0000000000000000 ]
  forces:
  - [  -0.0232338756322861,  0.0038728835061193,  0.0102528491988778 ]
  - [  -0.0004111495800316,  0.0002882862463593,  0.0002649393863976 ]
  - [  -0.0009259817888960,  0.0012839167611673,  0.0001625398581382 ]
  - [  -0.0003048922226299,  0.0003591690328903,  0.0002755486639217 ]
  - [   0.0150476526468992,  0.0154155604541302, -0.0118685644119978 ]
  - [   0.0149355875328183,  0.0154051426798105, -0.0119601599872112 ]
  - [   0.0149269755929708,  0.0157937817275524, -0.0116219818592072 ]
  - [   0.0150980902835727,  0.0154542531818151, -0.0118699781596661 ]
  - [   0.0040142885409296,  0.0000333045609295,  0.0004021101631224 ]
  - [   0.0041551962494850,  0.0000302065163851,  0.0004100752994418 ]
  - [   0.0001175627112389,  0.0003339815884829,  0.0004979223012924 ]
  - [   0.0001151541073341,  0.0003274055197835,  0.0004981681704521 ]
  - [  -0.0001892272848636, -0.0000994149595499, -0.0007169656455517 ]
  - [  -0.0000345180742443,  0.0000761593692005, -0.0004983315011486 ]
  - [  -0.0000655949115753,  0.0000705928541720, -0.0004649311304092 ]
  - [  -0.0000939704477787,  0.0000808220356703, -0.0005139801651239 ]
  - [  -0.0003298125229776, -0.0001062750816345,  0.0007497072219849 ]
  - [  -0.0003071054816246, -0.0003879654686898,  0.0002667624503374 ]
  - [  -0.0003287028521299, -0.0001074224710464,  0.0007509440183640 ]
  - [  -0.0003079911693931, -0.0003894618712366,  0.0002663545310497 ]
  - [  -0.0147308632731438, -0.0146465590223670,  0.0104525424540043 ]
  - [  -0.0145579744130373, -0.0149928620085120,  0.0102069573476911 ]
  - [  -0.0146102532744408, -0.0150315305218101,  0.0102089708670974 ]
  - [  -0.0147296376526356, -0.0150515409186482,  0.0101099517196417 ]
  - [  -0.0014064433053136,  0.0095713334158063, -0.0137655511498451 ]
  - [  -0.0016069938428700,  0.0095223560929298, -0.0136964917182922 ]
  - [  -0.0016740704886615,  0.0097391065210104, -0.0136290900409222 ]
  - [  -0.0016815261915326,  0.0096594979986548, -0.0133605478331447 ]
  - [   0.0028713298961520, -0.0099690128117800,  0.0138044925406575 ]
  - [   0.0028692949563265, -0.0100459894165397,  0.0140636377036572 ]
  - [   0.0031353859230876, -0.0101453047245741,  0.0136646516621113 ]
  - [   0.0029369471594691, -0.0101911965757608,  0.0137361455708742 ]
  - [   0.0008770569693297,  0.0018364917486906, -0.0011067810701206 ]
  - [  -0.0001297529670410, -0.0004918687045574, -0.0011898906668648 ]
  - [  -0.0001360006281175, -0.0004935732576996, -0.0011896386276931 ]
  - [   0.0008552172221243,  0.0018274734029546, -0.0010955742327496 ]
  - [   0.0124344453215599,  0.0287362411618233,  0.0042324904352427 ]
  - [   0.0117495246231556,  0.0283119119703770,  0.0026810951530933 ]
  - [   0.0116358958184719,  0.0283038914203644,  0.0029003079980612 ]
  - [   0.0116779245436192,  0.0283222980797291,  0.0029167775064707 ]
  - [  -0.0101644285023212, -0.0287897735834122, -0.0010862611234188 ]
  - [  -0.0108478181064129, -0.0292160976678133, -0.0026409979909658 ]
  - [  -0.0109575055539608, -0.0292212646454573, -0.0024226382374763 ]
  - [  -0.0109168551862240, -0.0292027108371258, -0.0024067517369986 ]
  - [   0.0003454796387814, -0.0003305263817310, -0.0001956671476364 ]
  - [   0.0004641392442863, -0.0003675222396851, -0.0000414790119976 ]
  - [   0.0004615858197212, -0.0003648847341537, -0.0000429265201092 ]
  - [   0.0003428580239415, -0.0003293119370937, -0.0001976594794542 ]
  - [   0.0111900418996811, -0.0219424813985825, -0.0184619352221489 ]
  - [   0.0080382376909256, -0.0195194855332375, -0.0130797624588013 ]
  - [   0.0079317912459373, -0.0197359994053841, -0.0125687643885612 ]
  - [   0.0079586394131184, -0.0196057073771954, -0.0127724781632423 ]
  - [  -0.0006917472928762,  0.0001564798876643,  0.0001375218853354 ]
  - [  -0.0006921989843249,  0.0001543080434203,  0.0001398120075464 ]
  - [  -0.0007955050095916,  0.0000698547810316,  0.0002851393073797 ]
  - [  -0.0007954603061080,  0.0000698831863701,  0.0002848627045751 ]
  - [   0.0025405345950276, -0.0023894081823528, -0.0008836665656418 ]
  - [   0.0002073036157526,  0.0002523195289541,  0.0001869863190223 ]
  - [   0.0025476734153926, -0.0023451643064618, -0.0008804518729448 ]
  - [   0.0002058343961835,  0.0002488568425179,  0.0001867758110166 ]
  - [  -0.0061040595173836,  0.0182103961706161,  0.0084861218929291 ]
  - [  -0.0092440359294415,  0.0206666998565197,  0.0139754340052605 ]
  - [  -0.0093546435236931,  0.0204454250633717,  0.0144875347614288 ]
  - [  -0.0093270577490330,  0.0205800384283066,  0.0142837837338448 ]
- atom:    1
  displacement:
    [  -0.0100000000000000,  0.0000000000000000,  0.0000000000000000 ]
  forces:
  - [   0.0226588323712349, -0.0032732975669205, -0.0097135845571756 ]
  - [  -0.0001655775122344,  0.0003117462620139,  0.0002768137492239 ]
  - [   0.0003512105613481, -0.0006852503283881,  0.0003776180092245 ]
  - [  -0.0002710460976232,  0.0002397511270829,  0.0002663303166628 ]
  - [   0.0150973573327065,  0.0155092906206846, -0.0118742045015097 ]
  - [   0.0152109246701002,  0.0155296269804239, -0.0117765367031097 ]
  - [   0.0152156595140696,  0.0151311587542295, -0.0121143832802773 ]
  - [   0.0150429066270590,  0.0154740959405899, -0.0118709057569504 ]
  - [  -0.0042422697879374,  0.0002919354010373,  0.0007111374288797 ]
  - [  -0.0041733700782061,  0.0002959500998259,  0.0007123118266463 ]
  - [  -0.0002383328974247, -0.0000011343508959,  0.0006203353404999 ]
  - [  -0.0002404849510640, -0.0000066300854087,  0.0006210338324308 ]
  - [  -0.0000192848965526,  0.0002360045909882, -0.0003001280128956 ]
  - [  -0.0001747035421431,  0.0000597448088229, -0.0005165277980268 ]
  - [  -0.0001430092379451,  0.0000657220371068, -0.0005500055849552 ]
  - [  -0.0001155212521553,  0.0000565289519727, -0.0005025742575526 ]
  - [  -0.0003125313669443, -0.0007140110246837, -0.0002378243952990 ]
  - [  -0.0003316453658044, -0.0004307827912271,  0.0002488642930984 ]
  - [  -0.0003119786269963, -0.0007135593332350, -0.0002328250557184 ]
  - [  -0.0003321571275592, -0.0004322025924921,  0.0002478789538145 ]
  - [  -0.0144406519830227, -0.0153171280398965,  0.0099539645016193 ]
  - [  -0.0146142672747374, -0.0149738239124417,  0.0102054588496685 ]
  - [  -0.0145640112459660, -0.0149318156763911,  0.0102027282118797 ]
  - [  -0.0144499763846397, -0.0149224093183875,  0.0102971866726875 ]
  - [  -0.0018341140821576,  0.0094540994614363, -0.0135854976251721 ]
  - [  -0.0016338033601642,  0.0095011331140995, -0.0136563237756491 ]
  - [  -0.0015649208799005,  0.0092797530815005, -0.0137202003970742 ]
  - [  -0.0015612943097949,  0.0093617876991630, -0.0139882061630487 ]
  - [   0.0029727891087532, -0.0104290656745434,  0.0137051250785589 ]
  - [   0.0029786946251988, -0.0103531479835510,  0.0134455151855946 ]
  - [   0.0027101086452603, -0.0102596767246723,  0.0138441203162074 ]
  - [   0.0029107239097357, -0.0102117806673050,  0.0137762781232595 ]
  - [  -0.0011013107141480, -0.0024078655987978, -0.0013505420647562 ]
  - [  -0.0001038315022015, -0.0000742170959711, -0.0012629072880372 ]
  - [  -0.0001052036532201, -0.0000740789691918, -0.0012628438416868 ]
  - [  -0.0011057765223086, -0.0023882230743766, -0.0013517227489501 ]
  - [   0.0108985155820847,  0.0279550366103649,  0.0015528723597527 ]
  - [   0.0115803815424442,  0.0283844396471977,  0.0031049773097038 ]
  - [   0.0116909183561802,  0.0283876024186611,  0.0028866883367300 ]
  - [   0.0116505436599255,  0.0283693280071020,  0.0028710886836052 ]
  - [  -0.0117013417184353, -0.0295657459646463, -0.0037703868001699 ]
  - [  -0.0110166259109974, -0.0291438102722168, -0.0022170748561621 ]
  - [  -0.0109031610190868, -0.0291373059153557, -0.0024366546422243 ]
  - [  -0.0109438896179199, -0.0291559435427189, -0.0024518966674805 ]
  - [   0.0004707736370619, -0.0002427548170090,  0.0001225445885211 ]
  - [   0.0003532645641826, -0.0002073049545288, -0.0000308626331389 ]
  - [   0.0003503262996674, -0.0002044197171926, -0.0000335834920406 ]
  - [   0.0004684124141932, -0.0002419706434011,  0.0001222817227244 ]
  - [   0.0047075487673283, -0.0171682052314281, -0.0070546641945839 ]
  - [   0.0078601278364658, -0.0196056403219700, -0.0125530585646629 ]
  - [   0.0079672001302242, -0.0193881206214428, -0.0130633786320686 ]
  - [   0.0079415142536163, -0.0195184350013733, -0.0128607973456383 ]
  - [  -0.0008224109187722, -0.0000212099403143,  0.0003043934702873 ]
  - [  -0.0008312286809087, -0.0000288318842649,  0.0003201989457011 ]
  - [  -0.0007217545062304,  0.0000598365440965,  0.0001667570322752 ]
  - [  -0.0007221382111311,  0.0000597881153226,  0.0001679910346866 ]
  - [  -0.0023130711633712,  0.0030608172528446,  0.0011983723379672 ]
  - [   0.0000133817084134,  0.0004801328759640,  0.0001266904873773 ]
  - [  -0.0023330454714596,  0.0031324634328485,  0.0011964160948992 ]
  - [   0.0000136080197990,  0.0004788152873516,  0.0001265956088901 ]
  - [  -0.0125675946474075,  0.0230210609734058,  0.0198766961693764 ]
  - [  -0.0094242505729198,  0.0205793716013432,  0.0145017132163048 ]
  - [  -0.0093193873763084,  0.0207993984222412,  0.0139881670475006 ]
  - [  -0.0093447454273701,  0.0206633210182190,  0.0141929611563683 ]
- atom:    1
  displacement:
    [  -0.0050823046194478,  0.0086122110839865,  0.0000000000000000 ]
  forces:
  - [   0.0144536988809705, -0.0146151334047318, -0.0092096906155348 ]
  - [  -0.0002359193749726,  0.0002153103705496,  0.0002782526426017 ]
  - [   0.0008850415470079, -0.0017977749230340,  0.0003843669255730 ]
  - [  -0.0002279836917296,  0.0003691648016684,  0.0002540963760111 ]
  - [   0.0149751137942076,  0.0157196111977100, -0.0120719391852617 ]
  - [   0.0150471152737737,  0.0154105927795172, -0.0118885077536106 ]
  - [   0.0153917931020260,  0.0157360788434744, -0.0127415843307972 ]
  - [   0.0150453858077526,  0.0154700949788094, -0.0118831945583224 ]
  - [  -0.0019867676310241,  0.0003738361410797,  0.0008640056475997 ]
  - [  -0.0019907765090466,  0.0003903489559889,  0.0008655153214931 ]
  - [  -0.0003072489053011,  0.0002894420176744,  0.0006351564079523 ]
  - [  -0.0003102244518232,  0.0002830587327480,  0.0006347177550197 ]
  - [   0.0001718164421618,  0.0000102519989014, -0.0000456795096397 ]
  - [  -0.0001715649850667,  0.0000534872524440, -0.0005306922830641 ]
  - [  -0.0001920592039824,  0.0000934633426368, -0.0005691526457667 ]
  - [  -0.0000851871445775,  0.0001037716865540, -0.0004915231838822 ]
  - [  -0.0002977661788464, -0.0005902545526624,  0.0000193510204554 ]
  - [  -0.0003240783698857, -0.0004370738752186,  0.0002516871318221 ]
  - [  -0.0002960693091154, -0.0005876505747437,  0.0000287536531687 ]
  - [  -0.0003247680142522, -0.0004383979830891,  0.0002513267099857 ]
  - [  -0.0142567437142134, -0.0147427888587117,  0.0093617886304855 ]
  - [  -0.0146117890253663, -0.0149778984487057,  0.0101938359439373 ]
  - [  -0.0146838873624802, -0.0147206867113709,  0.0099965659901500 ]
  - [  -0.0146111771464348, -0.0150384008884430,  0.0101882740855217 ]
  - [  -0.0015439651906490,  0.0090171955525875, -0.0139649827033281 ]
  - [  -0.0016269944608212,  0.0094998497515917, -0.0136475274339318 ]
  - [  -0.0016797506250441,  0.0093043278902769, -0.0138283427804708 ]
  - [  -0.0018589091487229,  0.0093743884935975, -0.0136561021208763 ]
  - [   0.0028545418754220, -0.0104108778759837,  0.0135918743908405 ]
  - [   0.0026838975027204, -0.0103418203070760,  0.0137764122337103 ]
  - [   0.0029963143169880, -0.0106981918215752,  0.0134567450731993 ]
  - [   0.0029174750670791, -0.0102128675207496,  0.0137848956510425 ]
  - [   0.0014701307518408,  0.0015752874314785, -0.0013658887473866 ]
  - [   0.0002903934218921,  0.0000672414898872, -0.0012364594731480 ]
  - [   0.0003023688914254,  0.0000683967373334, -0.0012355551589280 ]
  - [   0.0014867996796966,  0.0015660376520827, -0.0013558814534917 ]
  - [   0.0113117210566998,  0.0282132141292095,  0.0024908520281315 ]
  - [   0.0117487423121929,  0.0283361673355103,  0.0030566547065973 ]
  - [   0.0117047354578972,  0.0284023452550173,  0.0029023848474026 ]
  - [   0.0116440542042255,  0.0283751636743546,  0.0028348769992590 ]
  - [  -0.0112982615828514, -0.0293164234608412, -0.0028592497110367 ]
  - [  -0.0108458623290062, -0.0291928369551897, -0.0022655706852674 ]
  - [  -0.0108899399638176, -0.0291232801973820, -0.0024219416081905 ]
  - [  -0.0109496787190437, -0.0291491784155369, -0.0024882443249226 ]
  - [   0.0004418353782967, -0.0002955272793770,  0.0001215774100274 ]
  - [   0.0003733722842298, -0.0002122111618519, -0.0000218609347939 ]
  - [   0.0003715790808201, -0.0002098530530930, -0.0000244919210672 ]
  - [   0.0004365304484963, -0.0002946760505438,  0.0001232331851497 ]
  - [   0.0045840218663216, -0.0179973170161247, -0.0078764557838440 ]
  - [   0.0079306736588478, -0.0195864364504814, -0.0126998499035835 ]
  - [   0.0079734474420547, -0.0191978439688683, -0.0133594125509262 ]
  - [   0.0079703181982040, -0.0195683427155018, -0.0128173604607582 ]
  - [  -0.0008541289716959,  0.0000644414685667,  0.0002059610560536 ]
  - [  -0.0008631339296699,  0.0000540334731340,  0.0002225432544947 ]
  - [  -0.0007278313860297,  0.0000823088921607,  0.0001845033839345 ]
  - [  -0.0007285643368959,  0.0000817016698420,  0.0001853629946709 ]
  - [  -0.0040001343004405,  0.0046487143263221,  0.0018481727456674 ]
  - [   0.0000948611705098,  0.0005637707654387,  0.0001520392543171 ]
  - [  -0.0041775684803724,  0.0049122273921967,  0.0018501039594412 ]
  - [   0.0000929511152208,  0.0005636587738991,  0.0001519881188869 ]
  - [  -0.0127084739506245,  0.0222527720034122,  0.0191325768828392 ]
  - [  -0.0093535706400871,  0.0205985903739929,  0.0143509805202484 ]
  - [  -0.0093148574233055,  0.0209955088794231,  0.0136868655681610 ]
  - [  -0.0093151442706585,  0.0206178277730942,  0.0142387524247169 ]
- atom:    1
  displacement:
    [   0.0050823046194478, -0.0086122110839865,  0.0000000000000000 ]
  forces:
  - [  -0.0150275882333517,  0.0152029031887650,  0.0097458884119987 ]
  - [  -0.0003407048061490,  0.0003792024217546,  0.0002614101395011 ]
  - [  -0.0014596059918404,  0.0023962962441146,  0.0001554603222758 ]
  - [  -0.0003479353908915,  0.0002298680628883,  0.0002878538507503 ]
  - [   0.0151676647365093,  0.0152055341750383, -0.0116622913628817 ]
  - [   0.0150936786085367,  0.0155178848654032, -0.0118537899106741 ]
  - [   0.0147481411695480,  0.0152012426406145, -0.0110064130276442 ]
  - [   0.0150958634912968,  0.0154586564749479, -0.0118579659610987 ]
  - [   0.0018506790511310, -0.0000558686442673,  0.0002543465234339 ]
  - [   0.0018795933574438, -0.0000404082238674,  0.0002571670338511 ]
  - [   0.0001876801252365,  0.0000446457415819,  0.0004831347614527 ]
  - [   0.0001835770090111,  0.0000364044681191,  0.0004841797053814 ]
  - [  -0.0003802045248449,  0.0001263730227947, -0.0009714765474200 ]
  - [  -0.0000377534888685,  0.0000826069153845, -0.0004843847127631 ]
  - [  -0.0000167386606336,  0.0000430820509791, -0.0004458511248231 ]
  - [  -0.0001244312152267,  0.0000336496159434, -0.0005248878151178 ]
  - [  -0.0003445926122367, -0.0002314411103725,  0.0004903208464384 ]
  - [  -0.0003147246316075, -0.0003821081481874,  0.0002635037526488 ]
  - [  -0.0003447737544775, -0.0002319354098290,  0.0004913806915283 ]