# Thermal properties / unit cell (natom)

unit:
  temperature:   K
  free_energy:   kJ/mol
  entropy:       J/K/mol
  heat_capacity: J/K/mol

natom: 16   
cutoff_frequency: 0.00000
num_modes: 173280
num_integrated_modes: 173278

zero_point_energy:      59.7748721

thermal_properties:
- temperature:         0.0000000
  free_energy:        59.7748721
  entropy:             0.0000000
  heat_capacity:       0.0000000
  energy:             59.7748721

- temperature:        10.0000000
  free_energy:        59.7716326
  entropy:             1.2403599
  heat_capacity:       3.9027475
  energy:             59.7840362

- temperature:        20.0000000
  free_energy:        59.7229065
  entropy:            10.1928243
  heat_capacity:      27.4956536
  energy:             59.9267630

- temperature:        30.0000000
  free_energy:        59.5415612
  entropy:            26.9084578
  heat_capacity:      56.4072351
  energy:             60.3488150

- temperature:        40.0000000
  free_energy:        59.1750316
  entropy:            46.6519064
  heat_capacity:      81.4746334
  energy:             61.0411079

- temperature:        50.0000000
  free_energy:        58.6056407
  entropy:            67.3063320
  heat_capacity:     104.3017786
  energy:             61.9709573

- temperature:        60.0000000
  free_energy:        57.8278460
  entropy:            88.2896552
  heat_capacity:     126.5078307
  energy:             63.1252253

- temperature:        70.0000000
  free_energy:        56.8392848
  entropy:           109.4429597
  heat_capacity:     148.4469981
  energy:             64.5002919

- temperature:        80.0000000
  free_energy:        55.6387396
  entropy:           130.6698018
  heat_capacity:     169.8300476
  energy:             66.0923237

- temperature:        90.0000000
  free_energy:        54.2260032
  entropy:           151.8620035
  heat_capacity:     190.2237687
  energy:             67.8935835

- temperature:       100.0000000
  free_energy:        52.6020037
  entropy:           172.9031995
  heat_capacity:     209.2800182
  energy:             69.8923236

- temperature:       110.0000000
  free_energy:        50.7688095
  entropy:           193.6839034
  heat_capacity:     226.7972643
  energy:             72.0740389

- temperature:       120.0000000
  free_energy:        48.7295046
  entropy:           214.1116214
  heat_capacity:     242.7067790
  energy:             74.4228992

- temperature:       130.0000000
  free_energy:        46.4879950
  entropy:           234.1146546
  heat_capacity:     257.0359418
  energy:             76.9229001

- temperature:       140.0000000
  free_energy:        44.0488001
  entropy:           253.6416964
  heat_capacity:     269.8720167
  energy:             79.5586376

- temperature:       150.0000000
  free_energy:        41.4168607
  entropy:           272.6593216
  heat_capacity:     281.3340443
  energy:             82.3157590

- temperature:       160.0000000
  free_energy:        38.5973756
  entropy:           291.1487578
  heat_capacity:     291.5535661
  energy:             85.1811769

- temperature:       170.0000000
  free_energy:        35.5956715
  entropy:           309.1026921
  heat_capacity:     300.6625305
  energy:             88.1431292

- temperature:       180.0000000
  free_energy:        32.4171030
  entropy:           326.5224541
  heat_capacity:     308.7863440
  energy:             91.1911448

- temperature:       190.0000000
  free_energy:        29.0669781
  entropy:           343.4156837
  heat_capacity:     316.0403339
  energy:             94.3159580

- temperature:       200.0000000
  free_energy:        25.5505045
  entropy:           359.7944751
  heat_capacity:     322.5283508
  energy:             97.5093995

- temperature:       210.0000000
  free_energy:        21.8727532
  entropy:           375.6739393
  heat_capacity:     328.3426368
  energy:            100.7642804

- temperature:       220.0000000
  free_energy:        18.0386335
  entropy:           391.0711128
  heat_capacity:     333.5643945
  energy:            104.0742783

- temperature:       230.0000000
  free_energy:        14.0528781
  entropy:           406.0041437
  heat_capacity:     338.2647032
  energy:            107.4338312

- temperature:       240.0000000
  free_energy:         9.9200355
  entropy:           420.4916926
  heat_capacity:     342.5055676
  energy:            110.8380418

- temperature:       250.0000000
  free_energy:         5.6444667
  entropy:           434.5525003
  heat_capacity:     346.3409781
  energy:            114.2825918

- temperature:       260.0000000
  free_energy:         1.2303462
  entropy:           448.2050802
  heat_capacity:     349.8179160
  energy:            117.7636671

- temperature:       270.0000000
  free_energy:        -3.3183344
  entropy:           461.4675056
  heat_capacity:     352.9772701
  energy:            121.2778921

- temperature:       280.0000000
  free_energy:        -7.9977617
  entropy:           474.3572673
  heat_capacity:     355.8546553
  energy:            124.8222731

- temperature:       290.0000000
  free_energy:       -12.8042937
  entropy:           486.8911827
  heat_capacity:     358.4811312
  energy:            128.3941493

- temperature:       300.0000000
  free_energy:       -17.7344530
  entropy:           499.0853437
  heat_capacity:     360.8838268
  energy:            131.9911502

- temperature:       310.0000000
  free_energy:       -22.7849193
  entropy:           510.9550923
  heat_capacity:     363.0864810
  energy:            135.6111593

- temperature:       320.0000000
  free_energy:       -27.9525221
  entropy:           522.5150149
  heat_capacity:     365.1099063
  energy:            139.2522826

- temperature:       330.0000000
  free_energy:       -33.2342331
  entropy:           533.7789523
  heat_capacity:     366.9723876
  energy:            142.9128212

- temperature:       340.0000000
  free_energy:       -38.6271584
  entropy:           544.7600180
  heat_capacity:     368.6900235
  energy:            146.5912478

- temperature:       350.0000000
  free_energy:       -44.1285320
  entropy:           555.4706238
  heat_capacity:     370.2770185
  energy:            150.2861864

- temperature:       360.0000000
  free_energy:       -49.7357085
  entropy:           565.9225089
  heat_capacity:     371.7459334
  energy:            153.9963947

- temperature:       370.0000000
  free_energy:       -55.4461568
  entropy:           576.1267716
  heat_capacity:     373.1078999
  energy:            157.7207487

- temperature:       380.0000000
  free_energy:       -61.2574536
  entropy:           586.0939022
  heat_capacity:     374.3728043
  energy:            161.4582293

- temperature:       390.0000000
  free_energy:       -67.1672775
  entropy:           595.8338159
  heat_capacity:     375.5494466
  energy:            165.2079107

- temperature:       400.0000000
  free_energy:       -73.1734038
  entropy:           605.3558851
  heat_capacity:     376.6456754
  energy:            168.9689503

- temperature:       410.0000000
  free_energy:       -79.2736987
  entropy:           614.6689714
  heat_capacity:     377.6685063
  energy:            172.7405796

- temperature:       420.0000000
  free_energy:       -85.4661146
  entropy:           623.7814555
  heat_capacity:     378.6242224
  energy:            176.5220967

- temperature:       430.0000000
  free_energy:       -91.7486856
  entropy:           632.7012669
  heat_capacity:     379.5184625
  energy:            180.3128592

- temperature:       440.0000000
  free_energy:       -98.1195227
  entropy:           641.4359108
  heat_capacity:     380.3562967
  energy:            184.1122780

- temperature:       450.0000000
  free_energy:      -104.5768103
  entropy:           649.9924949
  heat_capacity:     381.1422924
  energy:            187.9198124

- temperature:       460.0000000
  free_energy:      -111.1188016
  entropy:           658.3777532
  heat_capacity:     381.8805722
  energy:            191.7349649

- temperature:       470.0000000
  free_energy:      -117.7438156
  entropy:           666.5980699
  heat_capacity:     382.5748635
  energy:            195.5572772

- temperature:       480.0000000
  free_energy:      -124.4502334
  entropy:           674.6595004
  heat_capacity:     383.2285423
  energy:            199.3863268

- temperature:       490.0000000
  free_energy:      -131.2364952
  entropy:           682.5677921
  heat_capacity:     383.8446718
  energy:            203.2217230

- temperature:       500.0000000
  free_energy:      -138.1010970
  entropy:           690.3284028
  heat_capacity:     384.4260358
  energy:            207.0631044

- temperature:       510.0000000
  free_energy:      -145.0425883
  entropy:           697.9465187
  heat_capacity:     384.9751685
  energy:            210.9101363

- temperature:       520.0000000
  free_energy:      -152.0595689
  entropy:           705.4270710
  heat_capacity:     385.4943802
  energy:            214.7625080

- temperature:       530.0000000
  free_energy:      -159.1506868
  entropy:           712.7747509
  heat_capacity:     385.9857804
  energy:            218.6199312

- temperature:       540.0000000
  free_energy:      -166.3146359
  entropy:           719.9940246
  heat_capacity:     386.4512983
  energy:            222.4821374

- temperature:       550.0000000
  free_energy:      -173.5501535
  entropy:           727.0891459
  heat_capacity:     386.8927004
  energy:            226.3488768

- temperature:       560.0000000
  free_energy:      -180.8560185
  entropy:           734.0641695
  heat_capacity:     387.3116069
  energy:            230.2199164

- temperature:       570.0000000
  free_energy:      -188.2310495
  entropy:           740.9229620
  heat_capacity:     387.7095054
  energy:            234.0950389

- temperature:       580.0000000
  free_energy:      -195.6741026
  entropy:           747.6692133
  heat_capacity:     388.0877641
  energy:            237.9740411

- temperature:       590.0000000
  free_energy:      -203.1840703
  entropy:           754.3064462
  heat_capacity:     388.4476424
  energy:            241.8567329

- temperature:       600.0000000
  free_energy:      -210.7598794
  entropy:           760.8380265
  heat_capacity:     388.7903015
  energy:            245.7429365

- temperature:       610.0000000
  free_energy:      -218.4004894
  entropy:           767.2671714
  heat_capacity:     389.1168131
  energy:            249.6324851

- temperature:       620.0000000
  free_energy:      -226.1048916
  entropy:           773.5969579
  heat_capacity:     389.4281674
  energy:            253.5252223

- temperature:       630.0000000
  free_energy:      -233.8721072
  entropy:           779.8303306
  heat_capacity:     389.7252808
  energy:            257.4210010

- temperature:       640.0000000
  free_energy:      -241.7011863
  entropy:           785.9701087
  heat_capacity:     390.0090017
  energy:            261.3196833

- temperature:       650.0000000
  free_energy:      -249.5912064
  entropy:           792.0189930
  heat_capacity:     390.2801171
  energy:            265.2211390

- temperature:       660.0000000
  free_energy:      -257.5412718
  entropy:           797.9795725
  heat_capacity:     390.5393572
  energy:            269.1252460

- temperature:       670.0000000
  free_energy:      -265.5505118
  entropy:           803.8543294
  heat_capacity:     390.7874006
  energy:            273.0318889

- temperature:       680.0000000
  free_energy:      -273.6180803
  entropy:           809.6456457
  heat_capacity:     391.0248784
  energy:            276.9409588

- temperature:       690.0000000
  free_energy:      -281.7431542
  entropy:           815.3558078
  heat_capacity:     391.2523783
  energy:            280.8523532

- temperature:       700.0000000
  free_energy:      -289.9249332
  entropy:           820.9870117
  heat_capacity:     391.4704478
  energy:            284.7659750

- temperature:       710.0000000
  free_energy:      -298.1626383
  entropy:           826.5413672
  heat_capacity:     391.6795977
  energy:            288.6817324

- temperature:       720.0000000
  free_energy:      -306.4555112
  entropy:           832.0209027
  heat_capacity:     391.8803049
  energy:            292.5995388

- temperature:       730.0000000
  free_energy:      -314.8028135
  entropy:           837.4275690
  heat_capacity:     392.0730151
  energy:            296.5193119

- temperature:       740.0000000
  free_energy:      -323.2038259
  entropy:           842.7632429
  heat_capacity:     392.2581449
  energy:            300.4409738

- temperature:       750.0000000
  free_energy:      -331.6578477
  entropy:           848.0297314
  heat_capacity:     392.4360847
  energy:            304.3644508

- temperature:       760.0000000
  free_energy:      -340.1641957
  entropy:           853.2287743
  heat_capacity:     392.6071998
  energy:            308.2896728

- temperature:       770.0000000
  free_energy:      -348.7222040
  entropy:           858.3620483
  heat_capacity:     392.7718330
  energy:            312.2165732

- temperature:       780.0000000
  free_energy:      -357.3312229
  entropy:           863.4311689
  heat_capacity:     392.9303059
  energy:            316.1450889

- temperature:       790.0000000
  free_energy:      -365.9906187
  entropy:           868.4376943
  heat_capacity:     393.0829204
  energy:            320.0751598

- temperature:       800.0000000
  free_energy:      -374.6997731
  entropy:           873.3831273
  heat_capacity:     393.2299604
  energy:            324.0067287

- temperature:       810.0000000
  free_energy:      -383.4580825
  entropy:           878.2689182
  heat_capacity:     393.3716927
  energy:            327.9397413

- temperature:       820.0000000
  free_energy:      -392.2649574
  entropy:           883.0964672
  heat_capacity:     393.5083686
  energy:            331.8741457

- temperature:       830.0000000
  free_energy:      -401.1198222
  entropy:           887.8671262
  heat_capacity:     393.6402246
  energy:            335.8098926

- temperature:       840.0000000
  free_energy:      -410.0221146
  entropy:           892.5822018
  heat_capacity:     393.7674837
  energy:            339.7469349

- temperature:       850.0000000
  free_energy:      -418.9712852
  entropy:           897.2429562
  heat_capacity:     393.8903562
  energy:            343.6852277

- temperature:       860.0000000
  free_energy:      -427.9667967
  entropy:           901.8506102
  heat_capacity:     394.0090406
  energy:            347.6247280

- temperature:       870.0000000
  free_energy:      -437.0081243
  entropy:           906.4063442
  heat_capacity:     394.1237241
  energy:            351.5653951

- temperature:       880.0000000
  free_energy:      -446.0947544
  entropy:           910.9113002
  heat_capacity:     394.2345840
  energy:            355.5071898

- temperature:       890.0000000
  free_energy:      -455.2261847
  entropy:           915.3665835
  heat_capacity:     394.3417876
  energy:            359.4500746

- temperature:       900.0000000
  free_energy:      -464.4019240
  entropy:           919.7732643
  heat_capacity:     394.4454934
  energy:            363.3940139

- temperature:       910.0000000
  free_energy:      -473.6214915
  entropy:           924.1323789
  heat_capacity:     394.5458512
  energy:            367.3389733

- temperature:       920.0000000
  free_energy:      -482.8844164
  entropy:           928.4449311
  heat_capacity:     394.6430032
  energy:            371.2849202

- temperature:       930.0000000
  free_energy:      -492.1902381
  entropy:           932.7118939
  heat_capacity:     394.7370838
  energy:            375.2318232

- temperature:       940.0000000
  free_energy:      -501.5385055
  entropy:           936.9342102
  heat_capacity:     394.8282209
  energy:            379.1796521

- temperature:       950.0000000
  free_energy:      -510.9287766
  entropy:           941.1127944
  heat_capacity:     394.9165354
  energy:            383.1283782

- temperature:       960.0000000
  free_energy:      -520.3606185
  entropy:           945.2485337
  heat_capacity:     395.0021423
  energy:            387.0779738

- temperature:       970.0000000
  free_energy:      -529.8336073
  entropy:           949.3422883
  heat_capacity:     395.0851508
  energy:            391.0284124

- temperature:       980.0000000
  free_energy:      -539.3473271
  entropy:           953.3948935
  heat_capacity:     395.1656647
  energy:            394.9796685

- temperature:       990.0000000
  free_energy:      -548.9013707
  entropy:           957.4071600
  heat_capacity:     395.2437826
  energy:            398.9317177

- temperature:      1000.0000000
  free_energy:      -558.4953385
  entropy:           961.3798750
  heat_capacity:     395.3195984
  energy:            402.8845364
