phonopy:
  version: "2.37.1"
  frequency_unit_conversion_factor: 15.633302
  symmetry_tolerance: 1.00000e-05

space_group:
  type: "P6_3/mmc"
  number: 194
  Hall_symbol: "-P 6c 2c"

primitive_matrix:
- [  1.000000000000000, -0.000000000000000, -0.000000000000000 ]
- [  0.000000000000000,  1.000000000000000,  0.000000000000000 ]
- [  0.000000000000000,  0.000000000000000,  1.000000000000000 ]

supercell_matrix:
- [   2,   0,   0 ]
- [   0,   2,   0 ]
- [   0,   0,   2 ]

primitive_cell:
  lattice:
  - [     6.578792546955860,     0.000000000000000,     0.000000000000000 ] # a
  - [    -3.289395929439005,     5.697402073951505,     0.000000000000000 ] # b
  - [    -0.000000048994667,     0.000000148924076,     5.358720423961013 ] # c
  points:
  - symbol: Li # 1
    coordinates: [  0.333333335598928,  0.666666666721858,  0.749999999518640 ]
    mass: 6.940000
  - symbol: Li # 2
    coordinates: [  0.666666667459593,  0.333333336753292,  0.250000002043039 ]
    mass: 6.940000
  - symbol: Sn # 3
    coordinates: [  0.167635595678473,  0.335271188309732,  0.250000003788927 ]
    mass: 118.710000
  - symbol: Sn # 4
    coordinates: [  0.832364404094708,  0.664728809512908,  0.749999998631234 ]
    mass: 118.710000
  - symbol: Sn # 5
    coordinates: [  0.832364402738948,  0.167635593988787,  0.749999998588868 ]
    mass: 118.710000
  - symbol: Sn # 6
    coordinates: [  0.167635594759622,  0.832364404568708,  0.249999999403715 ]
    mass: 118.710000
  - symbol: Sn # 7
    coordinates: [  0.664728806796709,  0.832364402891748,  0.249999999250971 ]
    mass: 118.710000
  - symbol: Sn # 8
    coordinates: [  0.335271192799978,  0.167635597260921,  0.749999998828523 ]
    mass: 118.710000
  reciprocal_lattice: # without 2pi
  - [     0.152003577079311,     0.087759287691990,    -0.000000001049151 ] # a*
  - [     0.000000000000000,     0.175518593741522,    -0.000000004877833 ] # b*
  - [     0.000000000000000,     0.000000000000000,     0.186611713409902 ] # c*

unit_cell:
  lattice:
  - [     6.578792546955860,     0.000000000000000,     0.000000000000000 ] # a
  - [    -3.289395929439005,     5.697402073951505,     0.000000000000000 ] # b
  - [    -0.000000048994667,     0.000000148924076,     5.358720423961014 ] # c
  points:
  - symbol: Li # 1
    coordinates: [  0.333333335598928,  0.666666666721858,  0.749999999518640 ]
    mass: 6.940000
    reduced_to: 1
  - symbol: Li # 2
    coordinates: [  0.666666667459593,  0.333333336753292,  0.250000002043039 ]
    mass: 6.940000
    reduced_to: 2
  - symbol: Sn # 3
    coordinates: [  0.167635595678473,  0.335271188309732,  0.250000003788927 ]
    mass: 118.710000
    reduced_to: 3
  - symbol: Sn # 4
    coordinates: [  0.832364404094708,  0.664728809512908,  0.749999998631234 ]
    mass: 118.710000
    reduced_to: 4
  - symbol: Sn # 5
    coordinates: [  0.832364402738948,  0.167635593988787,  0.749999998588868 ]
    mass: 118.710000
    reduced_to: 5
  - symbol: Sn # 6
    coordinates: [  0.167635594759622,  0.832364404568708,  0.249999999403715 ]
    mass: 118.710000
    reduced_to: 6
  - symbol: Sn # 7
    coordinates: [  0.664728806796709,  0.832364402891748,  0.249999999250971 ]
    mass: 118.710000
    reduced_to: 7
  - symbol: Sn # 8
    coordinates: [  0.335271192799978,  0.167635597260921,  0.749999998828523 ]
    mass: 118.710000
    reduced_to: 8

supercell:
  lattice:
  - [    13.157585093911720,     0.000000000000000,     0.000000000000000 ] # a
  - [    -6.578791858878009,    11.394804147903010,     0.000000000000000 ] # b
  - [    -0.000000097989334,     0.000000297848152,    10.717440847922028 ] # c
  points:
  - symbol: Li # 1
    coordinates: [  0.166666667799464,  0.333333333360929,  0.374999999759320 ]
    mass: 6.940000
    reduced_to: 1
  - symbol: Li # 2
    coordinates: [  0.666666667799464,  0.333333333360929,  0.374999999759320 ]
    mass: 6.940000
    reduced_to: 1
  - symbol: Li # 3
    coordinates: [  0.166666667799464,  0.833333333360929,  0.374999999759320 ]
    mass: 6.940000
    reduced_to: 1
  - symbol: Li # 4
    coordinates: [  0.666666667799464,  0.833333333360929,  0.374999999759320 ]
    mass: 6.940000
    reduced_to: 1
  - symbol: Li # 5
    coordinates: [  0.166666667799464,  0.333333333360929,  0.874999999759320 ]
    mass: 6.940000
    reduced_to: 1
  - symbol: Li # 6
    coordinates: [  0.666666667799464,  0.333333333360929,  0.874999999759320 ]
    mass: 6.940000
    reduced_to: 1
  - symbol: Li # 7
    coordinates: [  0.166666667799464,  0.833333333360929,  0.874999999759320 ]
    mass: 6.940000
    reduced_to: 1
  - symbol: Li # 8
    coordinates: [  0.666666667799464,  0.833333333360929,  0.874999999759320 ]
    mass: 6.940000
    reduced_to: 1
  - symbol: Li # 9
    coordinates: [  0.333333333729797,  0.166666668376646,  0.125000001021520 ]
    mass: 6.940000
    reduced_to: 9
  - symbol: Li # 10
    coordinates: [  0.833333333729797,  0.166666668376646,  0.125000001021520 ]
    mass: 6.940000
    reduced_to: 9
  - symbol: Li # 11
    coordinates: [  0.333333333729797,  0.666666668376646,  0.125000001021520 ]
    mass: 6.940000
    reduced_to: 9
  - symbol: Li # 12
    coordinates: [  0.833333333729797,  0.666666668376646,  0.125000001021520 ]
    mass: 6.940000
    reduced_to: 9
  - symbol: Li # 13
    coordinates: [  0.333333333729797,  0.166666668376646,  0.625000001021520 ]
    mass: 6.940000
    reduced_to: 9
  - symbol: Li # 14
    coordinates: [  0.833333333729797,  0.166666668376646,  0.625000001021520 ]
    mass: 6.940000
    reduced_to: 9
  - symbol: Li # 15
    coordinates: [  0.333333333729797,  0.666666668376646,  0.625000001021520 ]
    mass: 6.940000
    reduced_to: 9
  - symbol: Li # 16
    coordinates: [  0.833333333729797,  0.666666668376646,  0.625000001021520 ]
    mass: 6.940000
    reduced_to: 9
  - symbol: Sn # 17
    coordinates: [  0.083817797839237,  0.167635594154866,  0.125000001894463 ]
    mass: 118.710000
    reduced_to: 17
  - symbol: Sn # 18
    coordinates: [  0.583817797839237,  0.167635594154866,  0.125000001894463 ]
    mass: 118.710000
    reduced_to: 17
  - symbol: Sn # 19
    coordinates: [  0.083817797839237,  0.667635594154866,  0.125000001894463 ]
    mass: 118.710000
    reduced_to: 17
  - symbol: Sn # 20
    coordinates: [  0.583817797839237,  0.667635594154866,  0.125000001894463 ]
    mass: 118.710000
    reduced_to: 17
  - symbol: Sn # 21
    coordinates: [  0.083817797839237,  0.167635594154866,  0.625000001894463 ]
    mass: 118.710000
    reduced_to: 17
  - symbol: Sn # 22
    coordinates: [  0.583817797839237,  0.167635594154866,  0.625000001894463 ]
    mass: 118.710000
    reduced_to: 17
  - symbol: Sn # 23
    coordinates: [  0.083817797839237,  0.667635594154866,  0.625000001894463 ]
    mass: 118.710000
    reduced_to: 17
  - symbol: Sn # 24
    coordinates: [  0.583817797839237,  0.667635594154866,  0.625000001894463 ]
    mass: 118.710000
    reduced_to: 17
  - symbol: Sn # 25
    coordinates: [  0.416182202047354,  0.332364404756454,  0.374999999315617 ]
    mass: 118.710000
    reduced_to: 25
  - symbol: Sn # 26
    coordinates: [  0.916182202047354,  0.332364404756454,  0.374999999315617 ]
    mass: 118.710000
    reduced_to: 25
  - symbol: Sn # 27
    coordinates: [  0.416182202047354,  0.832364404756454,  0.374999999315617 ]
    mass: 118.710000
    reduced_to: 25
  - symbol: Sn # 28
    coordinates: [  0.916182202047354,  0.832364404756454,  0.374999999315617 ]
    mass: 118.710000
    reduced_to: 25
  - symbol: Sn # 29
    coordinates: [  0.416182202047354,  0.332364404756454,  0.874999999315617 ]
    mass: 118.710000
    reduced_to: 25
  - symbol: Sn # 30
    coordinates: [  0.916182202047354,  0.332364404756454,  0.874999999315617 ]
    mass: 118.710000
    reduced_to: 25
  - symbol: Sn # 31
    coordinates: [  0.416182202047354,  0.832364404756454,  0.874999999315617 ]
    mass: 118.710000
    reduced_to: 25
  - symbol: Sn # 32
    coordinates: [  0.916182202047354,  0.832364404756454,  0.874999999315617 ]
    mass: 118.710000
    reduced_to: 25
  - symbol: Sn # 33
    coordinates: [  0.416182201369474,  0.083817796994393,  0.374999999294434 ]
    mass: 118.710000
    reduced_to: 33
  - symbol: Sn # 34
    coordinates: [  0.916182201369474,  0.083817796994393,  0.374999999294434 ]
    mass: 118.710000
    reduced_to: 33
  - symbol: Sn # 35
    coordinates: [  0.416182201369474,  0.583817796994393,  0.374999999294434 ]
    mass: 118.710000
    reduced_to: 33
  - symbol: Sn # 36
    coordinates: [  0.916182201369474,  0.583817796994393,  0.374999999294434 ]
    mass: 118.710000
    reduced_to: 33
  - symbol: Sn # 37
    coordinates: [  0.416182201369474,  0.083817796994393,  0.874999999294434 ]
    mass: 118.710000
    reduced_to: 33
  - symbol: Sn # 38
    coordinates: [  0.916182201369474,  0.083817796994393,  0.874999999294434 ]
    mass: 118.710000
    reduced_to: 33
  - symbol: Sn # 39
    coordinates: [  0.416182201369474,  0.583817796994393,  0.874999999294434 ]
    mass: 118.710000
    reduced_to: 33
  - symbol: Sn # 40
    coordinates: [  0.916182201369474,  0.583817796994393,  0.874999999294434 ]
    mass: 118.710000
    reduced_to: 33
  - symbol: Sn # 41
    coordinates: [  0.083817797379811,  0.416182202284354,  0.124999999701858 ]
    mass: 118.710000
    reduced_to: 41
  - symbol: Sn # 42
    coordinates: [  0.583817797379811,  0.416182202284354,  0.124999999701858 ]
    mass: 118.710000
    reduced_to: 41
  - symbol: Sn # 43
    coordinates: [  0.083817797379811,  0.916182202284354,  0.124999999701858 ]
    mass: 118.710000
    reduced_to: 41
  - symbol: Sn # 44
    coordinates: [  0.583817797379811,  0.916182202284354,  0.124999999701858 ]
    mass: 118.710000
    reduced_to: 41
  - symbol: Sn # 45
    coordinates: [  0.083817797379811,  0.416182202284354,  0.624999999701857 ]
    mass: 118.710000
    reduced_to: 41
  - symbol: Sn # 46
    coordinates: [  0.583817797379811,  0.416182202284354,  0.624999999701857 ]
    mass: 118.710000
    reduced_to: 41
  - symbol: Sn # 47
    coordinates: [  0.083817797379811,  0.916182202284354,  0.624999999701857 ]
    mass: 118.710000
    reduced_to: 41
  - symbol: Sn # 48
    coordinates: [  0.583817797379811,  0.916182202284354,  0.624999999701857 ]
    mass: 118.710000
    reduced_to: 41
  - symbol: Sn # 49
    coordinates: [  0.332364403398355,  0.416182201445874,  0.124999999625485 ]
    mass: 118.710000
    reduced_to: 49
  - symbol: Sn # 50
    coordinates: [  0.832364403398355,  0.416182201445874,  0.124999999625485 ]
    mass: 118.710000
    reduced_to: 49
  - symbol: Sn # 51
    coordinates: [  0.332364403398355,  0.916182201445874,  0.124999999625485 ]
    mass: 118.710000
    reduced_to: 49
  - symbol: Sn # 52
    coordinates: [  0.832364403398355,  0.916182201445874,  0.124999999625485 ]
    mass: 118.710000
    reduced_to: 49
  - symbol: Sn # 53
    coordinates: [  0.332364403398355,  0.416182201445874,  0.624999999625485 ]
    mass: 118.710000
    reduced_to: 49
  - symbol: Sn # 54
    coordinates: [  0.832364403398355,  0.416182201445874,  0.624999999625485 ]
    mass: 118.710000
    reduced_to: 49
  - symbol: Sn # 55
    coordinates: [  0.332364403398355,  0.916182201445874,  0.624999999625485 ]
    mass: 118.710000
    reduced_to: 49
  - symbol: Sn # 56
    coordinates: [  0.832364403398355,  0.916182201445874,  0.624999999625485 ]
    mass: 118.710000
    reduced_to: 49
  - symbol: Sn # 57
    coordinates: [  0.167635596399989,  0.083817798630461,  0.374999999414262 ]
    mass: 118.710000
    reduced_to: 57
  - symbol: Sn # 58
    coordinates: [  0.667635596399989,  0.083817798630461,  0.374999999414262 ]
    mass: 118.710000
    reduced_to: 57
  - symbol: Sn # 59
    coordinates: [  0.167635596399989,  0.583817798630461,  0.374999999414262 ]
    mass: 118.710000
    reduced_to: 57
  - symbol: Sn # 60
    coordinates: [  0.667635596399989,  0.583817798630461,  0.374999999414262 ]
    mass: 118.710000
    reduced_to: 57
  - symbol: Sn # 61
    coordinates: [  0.167635596399989,  0.083817798630461,  0.874999999414262 ]
    mass: 118.710000
    reduced_to: 57
  - symbol: Sn # 62
    coordinates: [  0.667635596399989,  0.083817798630461,  0.874999999414262 ]
    mass: 118.710000
    reduced_to: 57
  - symbol: Sn # 63
    coordinates: [  0.167635596399989,  0.583817798630461,  0.874999999414262 ]
    mass: 118.710000
    reduced_to: 57
  - symbol: Sn # 64
    coordinates: [  0.667635596399989,  0.583817798630461,  0.874999999414262 ]
    mass: 118.710000
    reduced_to: 57

displacements:
- atom:    1
  displacement:
    [   0.0077533754013666,  0.0000000001755131,  0.0063154706780638 ]
  forces:
  - [  -0.0080085545778275, -0.0000116489827633, -0.0082100043073297 ]
  - [  -0.0008171970839612, -0.0000002291053534,  0.0000271283788607 ]
  - [  -0.0002143057063222,  0.0003480683080852,  0.0000274904596154 ]
  - [  -0.0002139932475984, -0.0003490974195302,  0.0000283419794869 ]
  - [  -0.0002473387867212, -0.0000003846362233,  0.0010660435073078 ]
  - [   0.0000234295785049,  0.0000001830048859, -0.0000224970281124 ]
  - [   0.0000167097896338, -0.0000034491531551, -0.0000232180173043 ]
  - [   0.0000171838328242,  0.0000032968819141, -0.0000240840599872 ]
  - [  -0.0001473734155297, -0.0000798536930233, -0.0002772869775072 ]
  - [   0.0002131138462573,  0.0002842060057446,  0.0001677955733612 ]
  - [  -0.0002814037725329, -0.0002081791171804, -0.0000519697787240 ]
  - [  -0.0000143290817505,  0.0000001293374225,  0.0000012901145965 ]
  - [   0.0002175355330110, -0.0002926681190729,  0.0001704840688035 ]
  - [  -0.0001463615335524,  0.0000789690529928, -0.0002752214204520 ]
  - [  -0.0002860315144062,  0.0002115449169651, -0.0000544547801837 ]
  - [  -0.0000144534133142,  0.0000003104796633, -0.0000003491295502 ]
  - [  -0.0000666556879878,  0.0468832254409790,  0.0014189719222486 ]
  - [  -0.0000101946061477,  0.0456953905522823, -0.0000004271278158 ]
  - [   0.0000224349787459,  0.0456754341721535, -0.0000162096694112 ]
  - [   0.0000232215970755,  0.0456437543034554,  0.0000247596763074 ]
  - [  -0.0000746157020330,  0.0444469340145588,  0.0014309301041067 ]
  - [  -0.0000098309246823,  0.0456483736634254,  0.0000006904592738 ]
  - [   0.0000240562367253,  0.0457032248377800,  0.0000234718900174 ]
  - [   0.0000213263556361,  0.0456719398498535, -0.0000169221311808 ]
  - [   0.0027954303659499, -0.0456373207271099, -0.0001316772249993 ]
  - [   0.0027285655960441, -0.0457072183489799, -0.0001193139469251 ]
  - [   0.0000052489340305, -0.0456753224134445,  0.0000284184643533 ]
  - [  -0.0000328188762069, -0.0456737019121647,  0.0000056135177147 ]
  - [  -0.0000077113509178, -0.0456871800124645, -0.0000662334205117 ]
  - [  -0.0000062454491854, -0.0456596463918686, -0.0000648761633784 ]
  - [  -0.0000349832698703, -0.0456730239093304, -0.0000296595098916 ]
  - [  -0.0000374093651772, -0.0456740744411945, -0.0000050868839025 ]
  - [  -0.0395691022276878,  0.0228507630527020,  0.0000282393593807 ]
  - [  -0.0390161201357841,  0.0240762718021870, -0.0001234301889781 ]
  - [  -0.0389524176716805,  0.0241288561373949, -0.0001288638450205 ]
  - [  -0.0395230725407600,  0.0227997656911612,  0.0000065715867095 ]
  - [  -0.0395689085125923,  0.0228257756680250, -0.0000285290589090 ]
  - [  -0.0395556427538395,  0.0228115282952785, -0.0000646122789476 ]
  - [  -0.0395491793751717,  0.0228525809943676, -0.0000657727068756 ]
  - [  -0.0395687706768513,  0.0228235535323620, -0.0000053363619372 ]
  - [   0.0411482751369476, -0.0237935110926628,  0.0025077518075705 ]
  - [   0.0395487770438194, -0.0228171609342098,  0.0000148780236486 ]
  - [   0.0395591557025909, -0.0228295661509037, -0.0000061276368797 ]
  - [   0.0395661443471909, -0.0228482875972986,  0.0000208187848330 ]
  - [   0.0390615314245224, -0.0225934572517872,  0.0002972376532853 ]
  - [   0.0395728200674057, -0.0228317957371473, -0.0000066300272010 ]
  - [   0.0395845286548138, -0.0228443704545498,  0.0000140593620017 ]
  - [   0.0395265221595764, -0.0228266716003418, -0.0000207085395232 ]
  - [  -0.0400520414113998, -0.0230834428220987,  0.0003105964860879 ]
  - [  -0.0395361706614494, -0.0228430908173323, -0.0000055804848671 ]
  - [  -0.0395817272365093, -0.0228456705808640, -0.0000217934139073 ]
  - [  -0.0395249687135220, -0.0228284932672977,  0.0000145435806189 ]
  - [  -0.0379177033901215, -0.0218471121042967,  0.0025842376053333 ]
  - [  -0.0395561195909977, -0.0228576082736254,  0.0000122725032270 ]
  - [  -0.0395415835082531, -0.0228256769478321,  0.0000220835208893 ]
  - [  -0.0395496077835560, -0.0228423308581114, -0.0000071193080657 ]
  - [   0.0400888845324516,  0.0215912889689207, -0.0001283817691728 ]
  - [   0.0395398847758770,  0.0228269882500172,  0.0000285388377961 ]
  - [   0.0401583760976791,  0.0215525664389133, -0.0001221724669449 ]
  - [   0.0395850501954556,  0.0228743087500334,  0.0000050443923101 ]
  - [   0.0395497828722000,  0.0228616576641798, -0.0000655979383737 ]
  - [   0.0395372696220875,  0.0228471551090479, -0.0000288606097456 ]
  - [   0.0395588241517544,  0.0228214189410210, -0.0000653542520013 ]
  - [   0.0395408570766449,  0.0228517912328243, -0.0000039743026718 ]
- atom:   17
  displacement:
    [  -0.0038766871863482,  0.0067146206591432,  0.0063154703596020 ]
  forces:
  - [   0.0000411998480558,  0.0017490256577730,  0.0027630096301436 ]
  - [   0.0000052846216931,  0.0000138599425554,  0.0000228705466725 ]
  - [  -0.0000149672850966,  0.0000100117176771, -0.0000116157752927 ]
  - [  -0.0000066412612796,  0.0000063637271523, -0.0000122689234558 ]
  - [   0.0000347644090652, -0.0003858404234052,  0.0001302083837800 ]
  - [   0.0000057577335610, -0.0000254991464317, -0.0000229018623941 ]
  - [   0.0000173817388713,  0.0000120257027447,  0.0000180597417057 ]
  - [  -0.0000406620092690,  0.0000063327606767,  0.0000191004364751 ]
  - [  -0.0013350374065340, -0.0001570986350998, -0.0001217878889292 ]
  - [  -0.0014217561110854, -0.0001211753115058, -0.0001300903968513 ]
  - [  -0.0000029450748116, -0.0000211492879316,  0.0000299051171169 ]
  - [   0.0000167874677572,  0.0000469554215670,  0.0000066842185333 ]
  - [  -0.0000088312663138, -0.0000078671146184, -0.0000630398280919 ]
  - [   0.0000161470379680,  0.0000142386415973, -0.0000653176102787 ]
  - [   0.0000172494910657, -0.0000081225298345, -0.0000287684379146 ]
  - [   0.0000193149535335, -0.0000042302999645, -0.0000041603343561 ]
  - [   0.0058584334328771,  0.0330099798738956, -0.0097553692758083 ]
  - [   0.0001675383537076,  0.0456578806042671, -0.0000244914554060 ]
  - [  -0.0006075924029574,  0.0467095412313938,  0.0000141886994243 ]
  - [   0.0002654101699591,  0.0462050065398216,  0.0000142519129440 ]
  - [   0.0001715319231153,  0.0456036776304245,  0.0004904571687803 ]
  - [   0.0000033049727790,  0.0456707812845707,  0.0000225002877414 ]
  - [  -0.0000080057652667,  0.0457038208842278, -0.0000047879293561 ]
  - [   0.0000111619010568,  0.0456919819116592, -0.0000049878726713 ]
  - [   0.0000380277633667, -0.0455783829092979,  0.0000446297635790 ]
  - [  -0.0001148981973529, -0.0455124899744987,  0.0000797063985374 ]
  - [   0.0000082505866885, -0.0457019247114658, -0.0000233832688536 ]
  - [   0.0000481150855194, -0.0458047538995743, -0.0000422525336035 ]
  - [  -0.0000058468431234, -0.0456941090524197, -0.0000503503833897 ]
  - [  -0.0000585224479437, -0.0456348434090614, -0.0000732122862246 ]
  - [   0.0000078901648521, -0.0456568785011768,  0.0000224236573558 ]
  - [   0.0000494139530929, -0.0457608290016651,  0.0000062217586674 ]
  - [  -0.0394596606492996,  0.0229027606546879, -0.0000014912220649 ]
  - [  -0.0410218276083469,  0.0225536264479160,  0.0012579769827425 ]
  - [  -0.0395618118345737,  0.0228534601628780,  0.0000117303279694 ]
  - [  -0.0394847132265568,  0.0227156803011894, -0.0000187447294593 ]
  - [  -0.0397121272981167,  0.0228024981915951, -0.0000219390494749 ]
  - [  -0.0372219979763031,  0.0234537981450558,  0.0025954474695027 ]
  - [  -0.0395906865596771,  0.0228575766086578, -0.0000359313562512 ]
  - [  -0.0394887179136276,  0.0226754192262888,  0.0000185481039807 ]
  - [   0.0371922403573990, -0.0198714099824429,  0.0000012489035726 ]
  - [   0.0396706089377403, -0.0228745155036449,  0.0000340862025041 ]
  - [   0.0377551838755608, -0.0195034835487604, -0.0005112850340083 ]
  - [   0.0396850109100342, -0.0228637456893921,  0.0000336678931490 ]
  - [   0.0396031215786934, -0.0229192543774843, -0.0001422255299985 ]
  - [   0.0395526066422462, -0.0228414535522461, -0.0000315842917189 ]
  - [   0.0396215021610260, -0.0225954204797745,  0.0002697622403502 ]
  - [   0.0395784787833691, -0.0228266324847937, -0.0000311195617542 ]
  - [  -0.0376971773803234, -0.0212092548608780,  0.0000071035465226 ]
  - [  -0.0397510305047035, -0.0228729359805584,  0.0000335350632668 ]
  - [  -0.0397568866610527, -0.0228557139635086,  0.0000339085236192 ]
  - [  -0.0383428707718849, -0.0214356351643801, -0.0005204314365983 ]
  - [  -0.0396353974938393, -0.0228457897901535, -0.0001435239682905 ]
  - [  -0.0395299345254898, -0.0228775665163994, -0.0000311206094921 ]
  - [  -0.0395307391881943, -0.0228504650294781, -0.0000312812626362 ]
  - [  -0.0395768918097019, -0.0229021161794662,  0.0002712749119382 ]
  - [   0.0400706715881824,  0.0226676575839520, -0.0004081863444299 ]
  - [   0.0394036658108234,  0.0229265708476305,  0.0000056174758356 ]
  - [   0.0395127497613430,  0.0228823460638523,  0.0001385842042509 ]
  - [   0.0395088903605938,  0.0228034835308790,  0.0000023491447791 ]
  - [   0.0363236479461193,  0.0235367957502604,  0.0041647269390523 ]
  - [   0.0396523699164391,  0.0228278655558825, -0.0000290218158625 ]
  - [   0.0395417511463165,  0.0228861030191183, -0.0001640222035348 ]
  - [   0.0395127162337303,  0.0227635148912668, -0.0000030867522582 ]
- atom:   17
  displacement:
    [   0.0038766871863482, -0.0067146206591432, -0.0063154703596020 ]
  forces:
  - [  -0.0000296523794532, -0.0016933633014560, -0.0026767002418637 ]
  - [  -0.0000047121948228, -0.0000150715932250, -0.0000255829363596 ]
  - [   0.0000141672790051, -0.0000085979700089,  0.0000091394176707 ]
  - [   0.0000095209106803, -0.0000044077169150,  0.0000105860817712 ]
  - [  -0.0000356463715434,  0.0003890516236424, -0.0001307947386522 ]
  - [  -0.0000043387344704,  0.0000259731896222,  0.0000255605555139 ]
  - [  -0.0000195307657123, -0.0000075935386121, -0.0000173837470356 ]
  - [   0.0000417260453105, -0.0000057136639953, -0.0000184536329471 ]
  - [   0.0013663785066456,  0.0001635141670704,  0.0001296155387536 ]
  - [   0.0014014039188623,  0.0001148500014096,  0.0001213878858835 ]
  - [   0.0000026102643460,  0.0000155213056132, -0.0000260870438069 ]
  - [  -0.0000161151619977, -0.0000437620328739, -0.0000041869934648 ]
  - [   0.0000076394062489,  0.0000081990147009,  0.0000667653512210 ]
  - [  -0.0000147630926222, -0.0000146857928485,  0.0000643024686724 ]
  - [  -0.0000173442531377,  0.0000088285887614,  0.0000276227947325 ]
  - [  -0.0000178423797479,  0.0000052907271311,  0.0000037574209273 ]
  - [  -0.0059017157182097,  0.0583332106471062,  0.0098282312974334 ]
  - [  -0.0001673075021245,  0.0456877350807190,  0.0000260593369603 ]
  - [   0.0006059752195142,  0.0446376726031303, -0.0000137526076287 ]
  - [  -0.0002648849040270,  0.0451405607163906, -0.0000138482137118 ]
  - [  -0.0001724418252707,  0.0457391329109669, -0.0004845336079597 ]
  - [  -0.0000028575886972,  0.0456725172698498, -0.0000235438346863 ]
  - [   0.0000070243258961,  0.0456436313688755,  0.0000049530062824 ]
  - [  -0.0000114366412163,  0.0456539019942284,  0.0000049948575906 ]
  - [  -0.0000379346311092, -0.0457651391625404, -0.0000427985505667 ]
  - [   0.0000952603295445, -0.0458158589899540, -0.0000615049211774 ]
  - [  -0.0000082794576883, -0.0456452220678329,  0.0000242670357693 ]
  - [  -0.0000473158688692, -0.0455346964299679,  0.0000323773419950 ]
  - [   0.0000019781291485, -0.0456573180854321,  0.0000485654454678 ]
  - [   0.0000646263360977, -0.0457129292190075,  0.0000771823688410 ]
  - [  -0.0000086054205894, -0.0456898733973503, -0.0000250323500950 ]
  - [  -0.0000460217415821, -0.0455611273646355,  0.0000088791130111 ]
  - [  -0.0396489948034286,  0.0227724537253380,  0.0000010545772966 ]
  - [  -0.0381168797612190,  0.0230856519192457, -0.0012061644811183 ]
  - [  -0.0395473763346672,  0.0228155925869942, -0.0000129670661408 ]
  - [  -0.0396239161491394,  0.0229561571031809,  0.0000218852947000 ]
  - [  -0.0394040830433369,  0.0228694044053555,  0.0000224783725571 ]
  - [  -0.0419477261602879,  0.0222051255404949, -0.0026590896304697 ]
  - [  -0.0395179949700832,  0.0228139422833920,  0.0000355676747859 ]
  - [  -0.0396201163530350,  0.0229970943182707, -0.0000220030487981 ]
  - [   0.0418192818760872, -0.0256564766168594, -0.0000152727589011 ]
  - [   0.0394343845546246, -0.0228004027158022, -0.0000332123599946 ]
  - [   0.0414280705153942, -0.0263129696249962,  0.0005448537995107 ]
  - [   0.0394249856472015, -0.0228037461638451, -0.0000336831435561 ]
  - [   0.0395062379539013, -0.0227539632469416,  0.0001399642787874 ]
  - [   0.0395557619631290, -0.0228304751217365,  0.0000311475014314 ]
  - [   0.0394859910011292, -0.0230793505907059, -0.0002694133436307 ]
  - [   0.0395294688642025, -0.0228461362421513,  0.0000315599609166 ]
  - [  -0.0413715578615665, -0.0244300011545420, -0.0000100869219750 ]
  - [  -0.0393523946404457, -0.0228028707206249, -0.0000334964133799 ]
  - [  -0.0393581502139568, -0.0228130314499140, -0.0000331229530275 ]
  - [  -0.0407932065427303, -0.0242611318826675,  0.0005351929576136 ]
  - [  -0.0394740775227547, -0.0228269156068563,  0.0001390647958033 ]
  - [  -0.0395764075219631, -0.0227941088378429,  0.0000312668271363 ]
  - [  -0.0395770333707333, -0.0228270664811134,  0.0000313441269100 ]
  - [  -0.0395316556096077, -0.0227714199572802, -0.0002682468621060 ]
  - [   0.0390402972698212,  0.0230009369552135,  0.0004166041035205 ]
  - [   0.0397074110805988,  0.0227458551526070, -0.0000067472283263 ]
  - [   0.0395968668162823,  0.0227850470691919, -0.0001432033895981 ]
  - [   0.0395983159542084,  0.0228698868304491, -0.0000026763882488 ]
  - [   0.0429247543215752,  0.0220904052257538, -0.0043802657164633 ]
  - [   0.0394585356116295,  0.0228443685919046,  0.0000305622816086 ]
  - [   0.0395677499473095,  0.0227829255163670,  0.0001650901394896 ]
  - [   0.0395938977599144,  0.0229109972715378,  0.0000019728904590 ]

force_constants:
  format: "full"
  shape: [ 64, 64 ]
  elements:
  - # (1, 1)
    - [     1.032919511006155,    -0.000000001271420,    -0.000000000939970 ]
    - [    -0.000000001271420,     1.032919507291758,     0.000000003489867 ]
    - [    -0.000000000939970,     0.000000003489867,     1.299995266095743 ]
  - # (1, 2)
    - [     0.105437140972529,    -0.000000004884908,     0.000000000778608 ]
    - [    -0.000000003661596,     0.001670652754494,    -0.000000000453687 ]
    - [     0.000000000830071,    -0.000000000226567,    -0.004366409048467 ]
  - # (1, 3)
    - [     0.027612279116881,    -0.044932213535148,     0.000000000651780 ]
    - [    -0.044932204104724,     0.079495519109983,    -0.000000001391409 ]
    - [     0.000000001915383,    -0.000000003484383,    -0.004366409113241 ]
  - # (1, 4)
    - [     0.027612280979660,     0.044932211222579,    -0.000000000083867 ]
    - [     0.044932201512963,     0.079495506581136,    -0.000000000912864 ]
    - [    -0.000000001257237,    -0.000000003043829,    -0.004366409100395 ]
  - # (1, 5)
    - [     0.031908284706230,    -0.000000001258000,    -0.000000000519123 ]
    - [    -0.000000001251867,     0.031908281115618,     0.000000002046053 ]
    - [     0.000000001281415,    -0.000000003364851,    -0.168786442715709 ]
  - # (1, 6)
    - [    -0.002986821201079,    -0.000000001742382,     0.000000000074873 ]
    - [    -0.000000000491138,    -0.001927067030099,    -0.000000000255923 ]
    - [    -0.000000000073955,     0.000000000009833,     0.003696327128433 ]
  - # (1, 7)
    - [    -0.002192005139413,     0.000458887668770,     0.000000000281142 ]
    - [     0.000458887341884,    -0.002721883746856,    -0.000000000102379 ]
    - [     0.000000000604837,     0.000000000110517,     0.003696327193206 ]
  - # (1, 8)
    - [    -0.002192006214358,    -0.000458888073412,     0.000000000154087 ]
    - [    -0.000458888060280,    -0.002721882398550,    -0.000000000283801 ]
    - [    -0.000000000115303,    -0.000000000240750,     0.003696327180360 ]
  - # (1, 9)
    - [    -0.004420497706669,     0.023698748496312,     0.028714956473933 ]
    - [     0.023698743555456,     0.022944451913489,    -0.016578586064509 ]
    - [     0.028714953013967,    -0.016578587498368,     0.008474412562324 ]
  - # (1, 10)
    - [    -0.004420496850652,    -0.023698748202185,    -0.028714954079251 ]
    - [    -0.023698743271846,     0.022944457144388,    -0.016578582673874 ]
    - [    -0.028714953408236,    -0.016578585947218,     0.008474412049950 ]
  - # (1, 11)
    - [     0.036626937726487,    -0.000000003111094,     0.000000001318917 ]
    - [    -0.000000002308625,    -0.018102973254858,     0.033157169486675 ]
    - [     0.000000001653385,     0.033157173308964,     0.008474410305530 ]
  - # (1, 12)
    - [     0.001863624720596,    -0.000000001258000,     0.000000000114849 ]
    - [    -0.000000001251867,     0.001863621129984,     0.000000000119032 ]
    - [     0.000000000098047,     0.000000000232111,    -0.000062198854396 ]
  - # (1, 13)
    - [    -0.004420497390660,     0.023698747795319,    -0.028714956679567 ]
    - [     0.023698743371527,     0.022944452216464,     0.016578585222431 ]
    - [    -0.028714954075962,     0.016578586682868,     0.008474410374816 ]
  - # (1, 14)
    - [    -0.004420497068491,    -0.023698747500755,     0.028714955011635 ]
    - [    -0.023698743356155,     0.022944457431614,     0.016578581571779 ]