10
Lattice="4.651825597642322 -5.581171169290117e-05 0.00028873461817257424 -2.327138775886073 4.027158072468737 0.00014003699304823412 -7.816554889252815e-06 -0.00022975142796008484 10.808770687868181" Properties=species:S:1:pos:R:3:forces:R:3 structure_index=0 total_energy=-30.3526554107666 stress="-0.00516689894720912 -4.8879221139941365e-05 -8.718764547666069e-06 -4.906976027996279e-05 -0.005307130515575409 8.048359632084612e-06 -8.695551514392719e-06 8.335939128301106e-06 -0.0036768328864127398" pbc="T T T"
Li       1.25067789       1.90541179       5.55828737       0.00038238       0.00000370       0.04836436
Li      -1.07590583       3.24709218       6.71234929       0.00055611       0.00001160       0.00810580
Li       3.58000134       0.56042726      10.03135767      -0.00049013       0.00025645       0.00901853
Li       3.57750556       0.56159156       7.49616529       0.00053217       0.00008052       0.01809393
Li      -1.07299460       3.24529140       9.87830253      -0.00016717       0.00006822      -0.04130846
Li       3.57878733       0.56315699       1.92130298      -0.00050893      -0.00011227      -0.00298519
Sn       1.25239881       1.90327254       8.51815108      -0.00021651       0.00050846      -0.03414594
Sn      -1.07544636       3.24892298       3.21936254       0.00041126      -0.00032531       0.00307259
Sn       3.57690331       0.56373572       4.76580181       0.00016356      -0.00084115      -0.01152103
Sn       1.25349900       1.90373802       0.66602689      -0.00066273       0.00034984       0.00330544
9
Lattice="3.3202171021607385 0.00021942662711401772 -0.0002280497123432018 -1.6600228500466978 2.875235659891236 0.0005606602652505948 0.00044796772836823954 -0.005265151195518476 21.44067071416934" Properties=species:S:1:pos:R:3:forces:R:3 structure_index=1 total_energy=-29.535797119140625 stress="-0.014803512953221798 6.690105510642752e-05 -1.1901329344254918e-05 6.684342224616557e-05 -0.014928187243640423 -2.1095956981298514e-05 -1.2197296200611163e-05 -2.114625385729596e-05 -0.03155459836125374" pbc="T T T"
Li       0.25387855       0.68762071       4.23923210      -0.00017373       0.00192422       0.00278295
Li       0.25270714       2.60172197      11.87616291      -0.00034166      -0.00033520      -0.00466250
Li       1.91146478       1.64367367      16.47541192       0.00001148       0.00013232       0.02387577
Li       0.25042476       0.68806844      21.12475082       0.00199433      -0.00167781      -0.01842711
Sn       0.25462093       2.60440133       6.64977491      -0.00012832      -0.00026488       0.02410111
Sn       0.25426254       0.68373854       9.46576495      -0.00053927       0.00059208      -0.02144453
Sn       0.25320741       2.60849285       1.96597092      -0.00105915      -0.00115027       0.04563293
Sn       0.25195565       2.60271910      18.80041850      -0.00079629       0.00062704      -0.01257008
Sn       0.25077977       0.68475918      14.17217729       0.00103259       0.00015249      -0.03928855
10
Lattice="3.311530163177537 0.0008843967913234991 0.0009318622633923971 -1.6555228771144044 2.868604595969014 0.000464410600429365 -0.0067124159021178425 -0.007725438824938436 23.125591515053195" Properties=species:S:1:pos:R:3:forces:R:3 structure_index=2 total_energy=-32.18297576904297 stress="-0.001471189665608108 0.00012344498827587813 -2.4785435016383417e-05 0.00012354549835436046 -0.001153738354332745 -6.395207310561091e-05 -2.4661832867423072e-05 -6.397923425538465e-05 0.006931896787136793" pbc="T T T"
Li       0.47703322       1.50466619      17.27314136      -0.00126961       0.00088143      -0.01350196
Li       0.48291260       1.50699502       7.96061649       0.00126450       0.00108498       0.04203984
Li       0.48107120       1.50680971      12.61324594       0.00020623      -0.00097494       0.01321770
Li       0.47593558       1.50270278      21.89343883       0.00083087      -0.00140559       0.00035144
Li       0.48391077       1.50495240       3.37350548       0.00094381       0.00294672      -0.00724478
Sn      -1.17252735       2.46748276       5.66588666      -0.00009496      -0.00476603       0.00451747
Sn      -1.18184271       2.46114443      19.58484020       0.00196631      -0.00099240      -0.00260698
Sn       2.14129100       0.54865956      10.28636761      -0.00268057       0.00160185       0.00432193
Sn      -1.17879375       2.46264434      14.94765075       0.00148066      -0.00052958      -0.02499310
Sn       2.14231996       0.54882000       1.07433174      -0.00264722       0.00215356      -0.01610157
11
Lattice="4.328628121542884 -0.00020021546688254264 0.00011123463402842305 -2.163124756930628 5.030574994256164 -1.1322966611001095 0.0004526561317941159 0.06377789532317062 11.297548603961912" Properties=species:S:1:pos:R:3:forces:R:3 structure_index=3 total_energy=-36.4891357421875 stress="0.026103558018803596 0.00026832916773855686 -5.0875907618319616e-05 0.00026834398158825934 -0.0026051998138427734 -0.004465952981263399 -5.090740887681022e-05 -0.004466023296117783 0.029287677258253098" pbc="T T T"
Li      -0.31926668       2.35756544      -0.42888774       0.00259409      -0.00852957      -0.00345766
Li       4.01153166       0.54268917       8.27476871      -0.00051291       0.00476273       0.00316699
Li      -0.31605276       3.28234195       6.69615922       0.00058727      -0.00859553       0.01392982
Li      -0.31616893       1.44687060       3.92320344      -0.00099774       0.00160742      -0.00049086
Li       1.84712555       4.64501895       0.01975340      -0.00068347       0.00978631      -0.01901464
Sn       1.84801887       2.85680605       8.77178664      -0.00293991      -0.01228173       0.00597383
Sn       1.84913883       3.72190420       4.53520721      -0.00191714      -0.00456965       0.03564212
Sn       1.84635079       1.88341271       1.66958745      -0.00006940      -0.01716736      -0.01385134
Sn      -0.31718668       4.20444327       2.17572342       0.00109305       0.00456782      -0.02981619
Sn       1.84765451       1.01265654       6.17535170       0.00092971       0.01771316       0.01568003
Sn       1.84596271       0.10493994      10.37241903       0.00191644       0.01270637      -0.00776212
12
Lattice="5.107775672848997 0.005605402996795445 -1.465791110565255 -1.903855162639373 3.972555246822759 -0.0011985092481398326 0.13686624734877004 0.06934106059895656 12.75174073305534" Properties=species:S:1:pos:R:3:forces:R:3 structure_index=4 total_energy=-38.9492301940918 stress="0.017979441210627556 0.0018045210745185614 0.0014215947594493628 0.0018046238692477345 0.014427809044718742 0.00046141279744915664 0.0014216327108442783 0.00046143343206495047 0.016530465334653854" pbc="T T T"
Li       0.69467124       0.75098541       0.46401726       0.01929099       0.00969649       0.00075587
Li       0.72339400       0.77043097       6.99684729      -0.01406601      -0.00806633       0.01726294
Li       1.15500068       3.41453770       2.08953588       0.01189879       0.00662592      -0.02790163
Li       0.72594613       0.76757273       3.67639760      -0.02148325      -0.00956062       0.00118688
Li       1.20842191       3.44563242       8.61070705      -0.00302782      -0.00204651       0.01272145
Li       3.57769505       2.13722130      10.20052928      -0.00271180      -0.00105798       0.01446685
Sn       0.78291482       0.79841173      10.11605323       0.00802921       0.00385042       0.00608426
Sn       3.54900242       2.11930530       0.58254153       0.02089207       0.01056373      -0.01279333
Sn       1.10529979       3.39432865       5.35608024      -0.01803199      -0.00901363       0.00295153
Sn       3.44734707       2.07286792       3.66953857      -0.03785713      -0.01801739       0.00987358
Sn       3.51419881       2.10787460       7.09043047      -0.00097833      -0.00133487      -0.01450843
Sn       1.28371062       3.48007092      11.77071808       0.03804528       0.01836079      -0.01009997
15
Lattice="4.391081175328017 7.159756728537704e-06 -1.3752336073672717 -0.5589960848648604 8.165166901180294 -1.7848521114014657 0.034715058193470275 -0.11184969099770271 7.808921703876503" Properties=species:S:1:pos:R:3:forces:R:3 structure_index=5 total_energy=-42.23963165283203 stress="0.015406206250190735 0.0021277405321598053 -0.0008518805843777955 0.00212794984690845 0.018998248502612114 0.006789000704884529 -0.000851837859954685 0.006789111532270908 0.012954090721905231" pbc="T T T"
Li       3.28735105       6.78980956      -1.63281177      -0.00301621       0.00542472      -0.00965627
Li       2.49970836       6.04100341       3.55021580      -0.00495094       0.00529145      -0.01584142
Li       2.70015805       0.49110551       4.19020309      -0.00000165       0.00000367       0.00000253
Li       1.51925459       2.46944329       0.41945049       0.00301371      -0.00543129       0.00965508
Li       2.34161407       3.10638156       3.04535140       0.00494748      -0.00528907       0.01583688
Li       4.08816035       4.00398502       0.92409990       0.00388729       0.02473036       0.01242751
Li       0.75316493       5.14341638       5.67147760      -0.00388642      -0.02473596      -0.01243626
Li       0.71649093       2.22384070       5.55434493       0.00813892      -0.03927649       0.02595680
Li      -0.26625490       6.92354596       2.41644649      -0.00813491       0.03928204      -0.02595288
Li       1.32459274       8.08486777      -0.20191704      -0.00235000       0.02136266      -0.00757555
Li       3.48200957       1.17438030      -1.01144850       0.00235273      -0.02136312       0.00757518
Sn       0.51598638       7.79033784       4.91413913       0.00443865      -0.03574380       0.01418290
Sn       1.61580266       5.37361727       0.72788009      -0.00975600       0.01023248      -0.03114966
Sn       3.19080418       3.88563231      -1.94123389       0.00975568      -0.01023025       0.03115604
Sn      -0.06574903       1.35704936       3.05665204      -0.00443826       0.03574258      -0.01418090
20
Lattice="4.773534972248624 0.00024196393625263444 0.000874053556544201 -2.38880838474325 4.132820203720109 -0.001011959301656506 -0.0028775606880423 0.0029986885320295482 22.565929840492096" Properties=species:S:1:pos:R:3:forces:R:3 structure_index=6 total_energy=-63.3739013671875 stress="-0.005613196641206741 -5.196724941924913e-06 5.402214446803555e-05 -5.301490546116838e-06 -0.005605210084468126 -2.1309086150722578e-05 5.413308463175781e-05 -2.159045652661007e-05 -0.00620364211499691" pbc="T T T"
Li       2.36922589       2.30332685      19.63108429      -0.00035657       0.00036759       0.00178446
Li      -0.02556562       0.93118228      13.00719886       0.00037592      -0.00027980       0.01554898
Li       2.35843784       2.31059872      11.32500672       0.00052949      -0.00025542       0.01442599
Li      -0.01836962       3.68336126       1.50339441      -0.00001117      -0.00009666      -0.01337560
Li      -0.02687609       0.93500830       7.41855588      -0.00004716      -0.00020091      -0.02070318
Li       2.36266349       2.30735133      14.35329004       0.00014190      -0.00006348      -0.01368346
Li      -0.01603785       0.92568148      21.31649560      -0.00063667       0.00045406      -0.00722902
Li      -0.01689140       0.92790391       1.55162214      -0.00011463      -0.00008175      -0.01504632
Li      -0.02231571       0.93254731       4.31579362       0.00010143      -0.00025181       0.00857849
Li      -0.01733530       0.92570624      18.56300710      -0.00056444       0.00056537       0.00420497
Sn       2.36040003       2.31219748       6.58190942      -0.00008105      -0.00020493       0.00047092
Sn      -0.02195683       3.68267531      17.03816289      -0.00035182       0.00038028      -0.02352361
Sn       2.36850766       2.30626363      22.58020829      -0.00017406       0.00002872       0.00622442
Sn      -0.02777343       3.68706712      12.42649003       0.00050586      -0.00032723       0.03054227
Sn      -0.02903532       0.93427509      10.25439080       0.00064720      -0.00012656       0.00591239
Sn      -0.03047619       3.69032692       8.80407594       0.00054848      -0.00013757      -0.00301423
Sn       2.36708549       2.30760227       2.98115854      -0.00033862       0.00012467       0.01725802
Sn      -0.01786344       3.68072901      20.10226751      -0.00049890       0.00042803       0.00062926
Sn      -0.02528159       3.68884030       5.14898343       0.00014377      -0.00032996      -0.00288793
Sn      -0.02061503       0.92735248      15.74139404       0.00018102       0.00000736      -0.00611682
12
Lattice="3.282296198420436 -0.00024956855939435715 -0.000340710654426279 -0.00023389969940715194 5.417474117168435 -0.10728344674805963 -0.0012494172620663218 -0.049941465892623396 15.38717042687746" Properties=species:S:1:pos:R:3:forces:R:3 structure_index=7 total_energy=-40.311161041259766 stress="0.0012993918498978019 -8.12714351923205e-05 -0.00018194367294199765 -8.124307350954041e-05 0.0003360807604622096 -0.0006067106733098626 -0.00018199819896835834 -0.0006066365167498589 -0.005721872206777334" pbc="T T T"
Li       0.09852048       5.33505239      11.21322444       0.00057829       0.02608415       0.01378295
Li       0.10328158       3.60689919       3.36587481      -0.00029923       0.01015866      -0.00448465
Li       0.10028817       1.92217681      13.94354298      -0.00034853      -0.04417685       0.02253089
Li       0.10323877       1.69693677       6.04330850      -0.00035247      -0.00436148      -0.04251388
Li       0.10212691       0.11907514       1.04390842       0.00000977       0.00121499       0.00227394
Sn       1.74077083       0.77581027       8.66113973       0.00083918      -0.01570544      -0.03213999
Sn       1.74324870       2.83839303       0.93397266       0.00006976       0.00906404      -0.01517139
Sn       0.10024558       3.48332913       8.69955684      -0.00045876      -0.01970065       0.00460999
Sn       1.74427120       4.39330617       5.85220835       0.00003255      -0.01608706       0.00629837
Sn       1.74029087       4.69181471      13.80527757       0.00093265       0.01709548       0.01545605
Sn       1.74462596       0.91883915       3.51262981      -0.00042337       0.00536333       0.00806786
Sn       1.74114299       2.62355774      11.47658426      -0.00057984       0.03105080       0.02128986
18
Lattice="4.815149404712162 -0.00010839756123052169 8.554434332058949e-05 -2.408399656065569 4.170433707301363 -0.00031006588187101517 0.0003967037890334792 0.0003136762575435434 19.231008848848663" Properties=species:S:1:pos:R:3:forces:R:3 structure_index=8 total_energy=-55.95974349975586 stress="-0.008452760986983776 -6.4025875872175675e-06 9.672924534243066e-06 -6.2095750763546675e-06 -0.008447418920695782 -3.573204139684094e-06 9.706056516733952e-06 -3.7835077364434255e-06 -0.009783180430531502" pbc="T T T"
Li       1.71468192       1.96439574      17.23475715       0.00052353       0.00009208      -0.02277146
Li      -0.69035513       3.35466102      13.07911118      -0.00009891       0.00007628       0.03529676
Li       1.72192821       1.96638737      11.22110042      -0.00020885       0.00001947      -0.01311724
Li       4.13004426       0.57696182       6.93904982      -0.00029319      -0.00013140      -0.00477862
Li       1.71328583       1.96360579       1.24035378       0.00038502       0.00017846      -0.01258061
Li       1.71812065       1.96559922       4.95935613      -0.00005121      -0.00002587       0.00758643
Li      -0.69333100       3.35432044       2.80494688       0.00016445       0.00007323       0.00584733
Li      -0.68283424       3.35829012       8.89837691      -0.00033769      -0.00017379      -0.01395848
Li       4.12565473       0.57524539       4.29771841       0.00010408       0.00003784      -0.01810860
Li      -0.69400880       3.35424351      19.18103544       0.00033327       0.00006536       0.00270988
Sn       1.71669859       1.96432179      14.33482042      -0.00016427       0.00001818       0.00283317
Sn       4.12599155       0.57460517      12.74875661      -0.00011474       0.00004548       0.00648673
Sn       4.12232815       0.57411556      17.89340349       0.00032330       0.00003123       0.01920879
Sn       4.13259303       0.57770926       9.83290455      -0.00054739      -0.00020023      -0.04866974
Sn       1.72476343       1.96803982       7.97191185      -0.00071169      -0.00028845      -0.00123492
Sn      -0.69235643       3.35470014      16.09782292       0.00020675       0.00001204       0.02168308
Sn      -0.68889710       3.35612188       5.72608395       0.00010747      -0.00000178       0.02407922
Sn       4.12104049       0.57340442       1.57601599       0.00038009       0.00017183       0.00948833
2
Lattice="3.4583241939544678 0.0 -0.001140062231570285 -0.0014849014466170592 3.460766950573313 -0.002388023538515185 0.0 0.0 3.4614367485046387" Properties=species:S:1:pos:R:3:forces:R:3 structure_index=9 total_energy=-6.550098419189453 stress="0.12411389499902725 -0.0076631042174994946 -0.005888812243938446 -0.007663141004741192 0.13417452573776245 -0.012304810807108879 -0.0058888220228254795 -0.012304738163948059 0.13691499829292297" pbc="T T T"
Li       2.87600600       0.08197332       3.44753681      -0.00004616       0.00072828      -0.00221294
Sn       1.14608246       1.81267037       1.71524095       0.00004615      -0.00072827       0.00221294
18
Lattice="5.796242202858019 -0.0005746590507151546 0.003363925533791959 0.0057385695485797404 7.149082390642718 -4.130941854139389 -0.0005956609380164018 -0.0007433496298758556 8.257647549573148" Properties=species:S:1:pos:R:3:forces:R:3 structure_index=10 total_energy=-52.753814697265625 stress="0.022760622203350067 0.002006406895816326 0.0016085001407191157 0.0020065209828317165 0.00444259587675333 -0.000431066524470225 0.001608428661711514 -0.0004311537486501038 0.005158222280442715" pbc="T T T"
Li       4.43468033       5.79751084      -2.64612500       0.00052052      -0.02372990       0.00046034
Li       1.53596969       3.41046366       4.23453114      -0.00166975       0.00086834       0.00243082
Li       0.08451627       1.02925507       2.85597157      -0.00089590      -0.00276864       0.00027090
Li       0.08638740       5.79483020       2.85471453       0.00202157      -0.00121405       0.00087283
Li       1.52890441       1.03072451       0.10423914       0.00294586       0.00159000       0.00303133
Li       2.98673500       5.79549517       2.85630860      -0.00443162      -0.00222033       0.00085278
Li       2.98203677       1.02882269       2.85764722      -0.00218264      -0.00348671       0.00043527
Li       1.53230625       5.79562912       0.10137269       0.00591389      -0.00371796       0.00110442
Li       4.43448784       3.40656521       1.48159691       0.00349712       0.00275436      -0.01196571
Li       0.08636832       3.41080729      -1.27292224      -0.00512497      -0.00023143      -0.00078896
Li       2.98236965       3.41047679      -1.27156853       0.00409547       0.00011040      -0.00011855
Li       4.42828804       1.02863597       5.61167908       0.00234662      -0.00024379       0.00073401
Sn       4.43284998       5.79215117       0.10624618      -0.00704570      -0.00020078      -0.00023097
Sn       4.43316709       3.40905532       4.22944813       0.00281110       0.01382933       0.02115539
Sn       1.53707824       3.41488289       1.48401403       0.00055214      -0.00292568      -0.00925666
Sn       1.53072187       1.02697295       5.60887756      -0.00096366       0.00319112       0.00361218
Sn       4.42835759       1.02349419       0.10699377      -0.00431600       0.01426093      -0.00951442
Sn       1.53628304       5.79494764      -2.64965132       0.00192599       0.00413480      -0.00308498
16
Lattice="6.287171324538636 -0.07719327197301463 0.0005356524771605238 -0.2903766400616474 6.280933606615902 3.476942493425855e-05 -0.0006926102493892333 -0.00019233317076958097 9.136534055001276" Properties=species:S:1:pos:R:3:forces:R:3 structure_index=11 total_energy=-53.408992767333984 stress="0.008147063665091991 -0.011127444915473461 -2.146594852092676e-05 -0.011127530597150326 0.007415838073939085 -2.1794923668494448e-05 -2.1555952116614208e-05 -2.1752923203166574e-05 0.01753382757306099" pbc="T T T"
Li       2.47023599       2.33652283       8.39922709       0.00064794      -0.00098124       0.00226299
Li       4.15235451       0.70912225       1.59106324       0.00895944      -0.00690753       0.02418542
Li       5.46824712       5.43879343       3.82627946       0.00129766      -0.00060625       0.00424492
Li       0.78950734       3.96249481       1.59016260      -0.01095091       0.00826095       0.02514595
Li       0.77414916       3.97709825       6.07826360       0.00248053      -0.00227157      -0.02815653
Li       2.47092758       2.33785727       3.83548940      -0.00058785      -0.00209164      -0.00042321
Li       4.16690930       0.69545093       6.08101622      -0.00218137       0.00488555      -0.02934288
Sn       5.61520147       2.29681589       8.40160854      -0.00185849      -0.00010243       0.00141272
Sn       2.32324937       5.47647859       8.40251914       0.00116194       0.00145544      -0.00131112
Sn       1.03045113       0.84685512       1.62732233       0.00442760       0.00391644       0.04465225
Sn       5.46747021       5.43741731       8.40650000       0.00051071       0.00039774       0.00116688
Sn       2.32640377       5.47703878       3.83592617      -0.00224568       0.00074282      -0.00161491
Sn       3.90960135       3.82524290       1.62539107      -0.00061901      -0.00328298       0.04736600
Sn       5.61417249       2.29824976       3.83474453      -0.00059741      -0.00024811       0.00085543
Sn       1.03361703       0.85091189       6.04088231       0.00487759       0.00388865      -0.04529904
Sn       3.90768663       3.82318301       6.04188449      -0.00532273      -0.00705585      -0.04514491
12
Lattice="4.399055984620388 0.0002567178017409545 1.4372998333801867 1.7738375311252412 6.949040884734764 2.0229049881123258 0.0008675568207650038 -0.03842392565041588 7.450644498629683" Properties=species:S:1:pos:R:3:forces:R:3 structure_index=12 total_energy=-32.940120697021484 stress="0.023382488638162613 -0.004676929209381342 0.006850038189440966 -0.004677001852542162 -0.004473246168345213 0.014156151562929153 0.006850007921457291 0.014155926182866096 0.0044496324844658375" pbc="T T T"
Li       4.30362750       6.59216735       8.31494870      -0.00333208      -0.00860621       0.01193333
Li       3.37764778       6.53413324       3.70111643       0.00213904      -0.00565453      -0.00645576
Li       0.77658414       1.77089066       4.21211707      -0.00034489      -0.00210218       0.00235159
Li       2.62531382       2.68776844       6.00411910      -0.00072532      -0.00012029      -0.00098332
Li       5.23221101       4.86877727       5.47418970       0.00317572      -0.02071800      -0.01106628
Li       3.53073423       3.59061402       3.22686301       0.00308821       0.01438087      -0.00753075
Li       1.66594026       2.32351958       1.48303491      -0.00532301      -0.00433157       0.01758175
Li       4.24290113       0.96403871       8.50144329       0.00618335      -0.00493897      -0.01901877
Li       2.55588635       5.79263329       6.21448382       0.00076074       0.01905102      -0.00263505
Sn       3.35016384       0.78135268       3.78681642      -0.00484430       0.00709506       0.00844244
Sn       1.70755207       5.09870245       8.80899159       0.00867832      -0.02184947      -0.02403507
Sn       4.43600557       3.70814868       7.91019744      -0.00945577       0.02779429       0.03141593
15
Lattice="5.3568267754464785 0.012930456756267054 0.7698578031205453 0.6388654792304801 6.766678702436505 2.9319127157005087 0.018025022365489012 -0.0012674475047114654 7.4075255947457865" Properties=species:S:1:pos:R:3:forces:R:3 structure_index=13 total_energy=-39.58355712890625 stress="-0.016549864783883095 0.005177452694624662 0.006982616148889065 0.005177352577447891 -0.011232087388634682 0.003947738092392683 0.006982710212469101 0.003947687800973654 -0.006986197084188461" pbc="T T T"
Li       1.66847190       5.90064316       3.81523069       0.00630282       0.00164993       0.00190058
Li       2.48018529       2.56915544       1.46508141      -0.00810527      -0.00096020      -0.00198668
Li       0.49457664       4.39470429       8.86247889       0.00446395      -0.00985230      -0.00812306
Li       1.25607020       1.35457118       6.85876032       0.01022524       0.00290097       0.00647405
Li       0.72199213       6.69226168       7.37852378       0.00984806      -0.00159740      -0.01211729
Li       4.64859305       3.08195840       7.47353646       0.00063968       0.00124554      -0.00301417
Li       3.43921508       1.77471844       5.31319559      -0.00805739       0.00329662       0.01111844
Li       2.26382894       0.34965418       2.89996543      -0.00699583      -0.00319204      -0.00736243
Li       3.20739594       5.57414487       8.53739830      -0.00111634       0.00535593       0.00838594
Li       4.87215424       5.40769762       5.98121614      -0.00100885      -0.00481571       0.00520057
Li       3.67105867       4.07235772       3.82896118      -0.00643734       0.01138648       0.00708793
Li       0.95747489       2.89542686       4.15133685      -0.00049523      -0.00551894      -0.00766288
Sn       3.89881372       0.07751615       7.70823915       0.00901265       0.00536752       0.00869492
Sn       4.98176003       1.63812782       2.81967637      -0.00818866      -0.00540499      -0.00855273
Sn       2.08158326       4.23498283       6.34463457      -0.00008755       0.00013864      -0.00004315
20
Lattice="7.276271947374096 0.017849089675997964 -1.3838663406845797 -1.6792091980846604 7.082212067449568 -1.397270004633508 0.012177394354437761 0.016146041666529935 7.410889325268608" Properties=species:S:1:pos:R:3:forces:R:3 structure_index=14 total_energy=-48.84269332885742 stress="-0.006452862173318863 -0.0015432314248755574 -0.0009909688960760832 -0.0015434077940881252 -0.007028770167380571 -0.001243825419805944 -0.0009910626104101539 -0.0012440127320587635 -0.006117584649473429" pbc="T T T"
Li       2.61974466       6.24796395      -0.41811515      -0.01939400      -0.02285224      -0.02196085
Li       6.18528440       1.56438031       0.58238059      -0.02438815      -0.02925410      -0.02122606
Li       1.13414730       2.02614947       3.80468169       0.02393967       0.01414912       0.02272116
Li       4.55508752       6.27072384       4.66221294      -0.02615418      -0.02454682      -0.01492206
Li       3.66400336       5.14515434       1.88920538       0.03083101      -0.01815531      -0.00482427
Li      -1.49728249       6.36785076       1.61971065       0.02277913      -0.00336429       0.02269126
Li       1.29322081       7.01683588       1.88267021      -0.02281402       0.02330348      -0.00536506
Li      -0.71265065       7.01172248       4.31137187      -0.01050358       0.02619659      -0.02123583
Li       0.70130906       3.82676001       1.56279833       0.02267077       0.02771017       0.00243902
Li       1.69173317       5.08506593       4.26461721       0.00663237       0.00666104       0.00569259
Li       3.86671896       1.05883459       6.05785440      -0.02071833      -0.03221376      -0.01673762
Li       6.12617350       3.84421034       2.41496445       0.00764283       0.02643784       0.02250379
Li      -0.51785843       2.27450285       6.72632911       0.01774381       0.02218105      -0.01467484
Li       4.13262897       3.19458835       4.32411373       0.02824389      -0.00540228      -0.02148946
Li       3.68660327       2.27899347       1.63439059      -0.00996779       0.01945706       0.01664455
Li       2.19627632       3.17002758      -0.75533878      -0.01584878      -0.00256446       0.02846839
Li      -0.27985799       5.12155051      -0.76099104       0.00054223      -0.01664342       0.02804647
Sn       1.46564027       0.83466157       0.90150919       0.00159890      -0.00636202      -0.00437126
Sn       4.89916624       3.88480784      -0.48228419      -0.00683721      -0.00051217      -0.00551361
Sn       5.62527258       0.85686265       3.29230885      -0.00599863      -0.00422551       0.00311369
8
Lattice="4.865724163287392 5.0144059010831635e-05 0.0005544565831471293 0.00025946402087948515 5.155546791563687 -2.961877652115257 -0.00015297314432314983 -0.0001498313543907066 5.945209136147811" Properties=species:S:1:pos:R:3:forces:R:3 structure_index=15 total_energy=-18.85002899169922 stress="0.05316779389977455 -0.00020069886522833258 0.0004884768277406693 -0.00020079339446965605 -0.003165437839925289 0.000967382628004998 0.0004884238005615771 0.0009674346656538546 -0.0042672669515013695" pbc="T T T"
Li       0.46251635       3.30978193      -0.32382313      -0.00046750       0.01186116       0.00268543
Li       0.46301273       0.69574407       1.18446838      -0.00121597      -0.00151748       0.00022093
Li       2.89606532       4.11215031      -1.88493473       0.00155445      -0.00092102       0.00109619
Li       2.89622472       1.65621663       2.63777149       0.00145909      -0.00215320       0.00214058
Li       0.46306684       0.70287766       4.11457953      -0.00130764      -0.00987720      -0.01150764
Li       2.89368490       1.57554742      -0.33576366       0.00201234       0.00139786       0.00225351
Li       2.89617118       4.11171196       1.23077473       0.00142084       0.00275919      -0.00777815
Sn       0.46437735       3.28924784       2.64630984      -0.00345563      -0.00154929       0.01088913
16