# Thermal properties / unit cell (natom)

unit:
  temperature:   K
  free_energy:   kJ/mol
  entropy:       J/K/mol
  heat_capacity: J/K/mol

natom: 6    
cutoff_frequency: 0.00000
num_modes: 174240
num_integrated_modes: 174238

zero_point_energy:      22.8571449

thermal_properties:
- temperature:         0.0000000
  free_energy:        22.8571449
  entropy:             0.0000000
  heat_capacity:       0.0000000
  energy:             22.8571449

- temperature:        10.0000000
  free_energy:        22.8559968
  entropy:             0.4378796
  heat_capacity:       1.3569507
  energy:             22.8603756

- temperature:        20.0000000
  free_energy:        22.8390481
  entropy:             3.5453171
  heat_capacity:       9.6474084
  energy:             22.9099544

- temperature:        30.0000000
  free_energy:        22.7753804
  entropy:             9.5151268
  heat_capacity:      20.3984320
  energy:             23.0608343

- temperature:        40.0000000
  free_energy:        22.6448462
  entropy:            16.6926475
  heat_capacity:      29.6834257
  energy:             23.3125521

- temperature:        50.0000000
  free_energy:        22.4404607
  entropy:            24.2104316
  heat_capacity:      37.9105846
  energy:             23.6509823

- temperature:        60.0000000
  free_energy:        22.1603212
  entropy:            31.8285531
  heat_capacity:      45.8969135
  energy:             24.0700343

- temperature:        70.0000000
  free_energy:        21.8036980
  entropy:            39.5045192
  heat_capacity:      53.8998776
  energy:             24.5690144

- temperature:        80.0000000
  free_energy:        21.3700939
  entropy:            47.2210039
  heat_capacity:      61.8228839
  energy:             25.1477742

- temperature:        90.0000000
  free_energy:        20.8592421
  entropy:            54.9479139
  heat_capacity:      69.4718340
  energy:             25.8045543

- temperature:       100.0000000
  free_energy:        20.2712349
  entropy:            62.6450050
  heat_capacity:      76.6803846
  energy:             26.5357354

- temperature:       110.0000000
  free_energy:        19.6065809
  entropy:            70.2705684
  heat_capacity:      83.3453776
  energy:             27.3363435

- temperature:       120.0000000
  free_energy:        18.8661867
  entropy:            77.7874376
  heat_capacity:      89.4226753
  energy:             28.2006792

- temperature:       130.0000000
  free_energy:        18.0512952
  entropy:            85.1656654
  heat_capacity:      94.9112813
  energy:             29.1228317

- temperature:       140.0000000
  free_energy:        17.1634105
  entropy:            92.3829849
  heat_capacity:      99.8374451
  energy:             30.0970284

- temperature:       150.0000000
  free_energy:        16.2042234
  entropy:            99.4241267
  heat_capacity:     104.2423595
  energy:             31.1178424

- temperature:       160.0000000
  free_energy:        15.1755471
  entropy:           106.2796872
  heat_capacity:     108.1737425
  energy:             32.1802970

- temperature:       170.0000000
  free_energy:        14.0792644
  entropy:           112.9449280
  heat_capacity:     111.6805437
  energy:             33.2799022

- temperature:       180.0000000
  free_energy:        12.9172871
  entropy:           119.4186830
  heat_capacity:     114.8098691
  energy:             34.4126500

- temperature:       190.0000000
  free_energy:        11.6915243
  entropy:           125.7024367
  heat_capacity:     117.6053707
  energy:             35.5749873

- temperature:       200.0000000
  free_energy:        10.4038605
  entropy:           131.7995817
  heat_capacity:     120.1065531
  energy:             36.7637769

- temperature:       210.0000000
  free_energy:         9.0561391
  entropy:           137.7148383
  heat_capacity:     122.3486250
  energy:             37.9762551

- temperature:       220.0000000
  free_energy:         7.6501514
  entropy:           143.4538101
  heat_capacity:     124.3626569
  energy:             39.2099897

- temperature:       230.0000000
  free_energy:         6.1876300
  entropy:           149.0226492
  heat_capacity:     126.1758942
  energy:             40.4628393

- temperature:       240.0000000
  free_energy:         4.6702441
  entropy:           154.4278076
  heat_capacity:     127.8121359
  energy:             41.7329179

- temperature:       250.0000000
  free_energy:         3.0995976
  entropy:           159.6758557
  heat_capacity:     129.2921263
  energy:             43.0185615

- temperature:       260.0000000
  free_energy:         1.4772288
  entropy:           164.7733511
  heat_capacity:     130.6339308
  energy:             44.3183001

- temperature:       270.0000000
  free_energy:        -0.1953891
  entropy:           169.7267456
  heat_capacity:     131.8532826
  energy:             45.6308322

- temperature:       280.0000000
  free_energy:        -1.9168467
  entropy:           174.5423221
  heat_capacity:     132.9638924
  energy:             46.9550034

- temperature:       290.0000000
  free_energy:        -3.6857964
  entropy:           179.2261518
  heat_capacity:     133.9777222
  energy:             48.2897876

- temperature:       300.0000000
  free_energy:        -5.5009501
  entropy:           183.7840679
  heat_capacity:     134.9052241
  energy:             49.6342703

- temperature:       310.0000000
  free_energy:        -7.3610767
  entropy:           188.2216505
  heat_capacity:     135.7555464
  energy:             50.9876349

- temperature:       320.0000000
  free_energy:        -9.2649998
  entropy:           192.5442205
  heat_capacity:     136.5367119
  energy:             52.3491508

- temperature:       330.0000000
  free_energy:       -11.2115946
  entropy:           196.7568391
  heat_capacity:     137.2557703
  energy:             53.7181622

- temperature:       340.0000000
  free_energy:       -13.1997861
  entropy:           200.8643118
  heat_capacity:     137.9189296
  energy:             55.0940799

- temperature:       350.0000000
  free_energy:       -15.2285456
  entropy:           204.8711956
  heat_capacity:     138.5316681
  energy:             56.4763728

- temperature:       360.0000000
  free_energy:       -17.2968891
  entropy:           208.7818071
  heat_capacity:     139.0988310
  energy:             57.8645614

- temperature:       370.0000000
  free_energy:       -19.4038745
  entropy:           212.6002335
  heat_capacity:     139.6247124
  energy:             59.2582119

- temperature:       380.0000000
  free_energy:       -21.5485994
  entropy:           216.3303428
  heat_capacity:     140.1131268
  energy:             60.6569308

- temperature:       390.0000000
  free_energy:       -23.7301992
  entropy:           219.9757951
  heat_capacity:     140.5674695
  energy:             62.0603609

- temperature:       400.0000000
  free_energy:       -25.9478447
  entropy:           223.5400537
  heat_capacity:     140.9907692
  energy:             63.4681768

- temperature:       410.0000000
  free_energy:       -28.2007406
  entropy:           227.0263962
  heat_capacity:     141.3857332
  energy:             64.8800819

- temperature:       420.0000000
  free_energy:       -30.4881233
  entropy:           230.4379247
  heat_capacity:     141.7547863
  energy:             66.2958051

- temperature:       430.0000000
  free_energy:       -32.8092595
  entropy:           233.7775767
  heat_capacity:     142.1001048
  energy:             67.7150985

- temperature:       440.0000000
  free_energy:       -35.1634445
  entropy:           237.0481344
  heat_capacity:     142.4236456
  energy:             69.1377346

- temperature:       450.0000000
  free_energy:       -37.5500007
  entropy:           240.2522342
  heat_capacity:     142.7271716
  energy:             70.5635047

- temperature:       460.0000000
  free_energy:       -39.9682760
  entropy:           243.3923754
  heat_capacity:     143.0122743
  energy:             71.9922167

- temperature:       470.0000000
  free_energy:       -42.4176429
  entropy:           246.4709287
  heat_capacity:     143.2803924
  energy:             73.4236936

- temperature:       480.0000000
  free_energy:       -44.8974968
  entropy:           249.4901439
  heat_capacity:     143.5328292
  energy:             74.8577723

- temperature:       490.0000000
  free_energy:       -47.4072551
  entropy:           252.4521571
  heat_capacity:     143.7707672
  energy:             76.2943019

- temperature:       500.0000000
  free_energy:       -49.9463560
  entropy:           255.3589978
  heat_capacity:     143.9952811
  energy:             77.7331429

- temperature:       510.0000000
  free_energy:       -52.5142576
  entropy:           258.2125953
  heat_capacity:     144.2073492
  energy:             79.1741660

- temperature:       520.0000000
  free_energy:       -55.1104366
  entropy:           261.0147845
  heat_capacity:     144.4078635
  energy:             80.6172514

- temperature:       530.0000000
  free_energy:       -57.7343878
  entropy:           263.7673118
  heat_capacity:     144.5976385
  energy:             82.0622875

- temperature:       540.0000000
  free_energy:       -60.3856228
  entropy:           266.4718401
  heat_capacity:     144.7774190
  energy:             83.5091708

- temperature:       550.0000000
  free_energy:       -63.0636698
  entropy:           269.1299540
  heat_capacity:     144.9478870
  energy:             84.9578048

- temperature:       560.0000000
  free_energy:       -65.7680722
  entropy:           271.7431640
  heat_capacity:     145.1096680
  energy:             86.4080996

- temperature:       570.0000000
  free_energy:       -68.4983883
  entropy:           274.3129113
  heat_capacity:     145.2633366
  energy:             87.8599712

- temperature:       580.0000000
  free_energy:       -71.2541902
  entropy:           276.8405711
  heat_capacity:     145.4094209
  energy:             89.3133411

- temperature:       590.0000000
  free_energy:       -74.0350638
  entropy:           279.3274571
  heat_capacity:     145.5484073
  energy:             90.7681359

- temperature:       600.0000000
  free_energy:       -76.8406076
  entropy:           281.7748244
  heat_capacity:     145.6807440
  energy:             92.2242870

- temperature:       610.0000000
  free_energy:       -79.6704325
  entropy:           284.1838731
  heat_capacity:     145.8068450
  energy:             93.6817300

- temperature:       620.0000000
  free_energy:       -82.5241612
  entropy:           286.5557510
  heat_capacity:     145.9270925
  energy:             95.1404044

- temperature:       630.0000000
  free_energy:       -85.4014273
  entropy:           288.8915569
  heat_capacity:     146.0418405
  energy:             96.6002535

- temperature:       640.0000000
  free_energy:       -88.3018756
  entropy:           291.1923431
  heat_capacity:     146.1514165
  energy:             98.0612240

- temperature:       650.0000000
  free_energy:       -91.2251608
  entropy:           293.4591177
  heat_capacity:     146.2561244
  energy:             99.5232657

- temperature:       660.0000000
  free_energy:       -94.1709478
  entropy:           295.6928470
  heat_capacity:     146.3562463
  energy:            100.9863312

- temperature:       670.0000000
  free_energy:       -97.1389107
  entropy:           297.8944580
  heat_capacity:     146.4520441
  energy:            102.4503762

- temperature:       680.0000000
  free_energy:      -100.1287329
  entropy:           300.0648402
  heat_capacity:     146.5437616
  energy:            103.9153585

- temperature:       690.0000000
  free_energy:      -103.1401063
  entropy:           302.2048476
  heat_capacity:     146.6316256
  energy:            105.3812386

- temperature:       700.0000000
  free_energy:      -106.1727313
  entropy:           304.3153002
  heat_capacity:     146.7158477
  energy:            106.8479789

- temperature:       710.0000000
  free_energy:      -109.2263164
  entropy:           306.3969865
  heat_capacity:     146.7966251
  energy:            108.3155440

- temperature:       720.0000000
  free_energy:      -112.3005777
  entropy:           308.4506641
  heat_capacity:     146.8741419
  energy:            109.7839005

- temperature:       730.0000000
  free_energy:      -115.3952387
  entropy:           310.4770621
  heat_capacity:     146.9485703
  energy:            111.2530166

- temperature:       740.0000000
  free_energy:      -118.5100303
  entropy:           312.4768817
  heat_capacity:     147.0200711
  energy:            112.7228622

- temperature:       750.0000000
  free_energy:      -121.6446900
  entropy:           314.4507984
  heat_capacity:     147.0887951
  energy:            114.1934087

- temperature:       760.0000000
  free_energy:      -124.7989621
  entropy:           316.3994624
  heat_capacity:     147.1548834
  energy:            115.6646293

- temperature:       770.0000000
  free_energy:      -127.9725972
  entropy:           318.3235003
  heat_capacity:     147.2184684
  energy:            117.1364981

- temperature:       780.0000000
  free_energy:      -131.1653521
  entropy:           320.2235164
  heat_capacity:     147.2796742
  energy:            118.6089907

- temperature:       790.0000000
  free_energy:      -134.3769894
  entropy:           322.1000929
  heat_capacity:     147.3386175
  energy:            120.0820840

- temperature:       800.0000000
  free_energy:      -137.6072777
  entropy:           323.9537919
  heat_capacity:     147.3954078
  energy:            121.5557559

- temperature:       810.0000000
  free_energy:      -140.8559908
  entropy:           325.7851557
  heat_capacity:     147.4501483
  energy:            123.0299853

- temperature:       820.0000000
  free_energy:      -144.1229081
  entropy:           327.5947078
  heat_capacity:     147.5029359
  energy:            124.5047523

- temperature:       830.0000000
  free_energy:      -147.4078139
  entropy:           329.3829539
  heat_capacity:     147.5538621
  energy:            125.9800378

- temperature:       840.0000000
  free_energy:      -150.7104978
  entropy:           331.1503826
  heat_capacity:     147.6030128
  energy:            127.4558237

- temperature:       850.0000000
  free_energy:      -154.0307538
  entropy:           332.8974661
  heat_capacity:     147.6504694
  energy:            128.9320925

- temperature:       860.0000000
  free_energy:      -157.3683808
  entropy:           334.6246610
  heat_capacity:     147.6963085
  energy:            130.4088277

- temperature:       870.0000000
  free_energy:      -160.7231822
  entropy:           336.3324088
  heat_capacity:     147.7406024
  energy:            131.8860135

- temperature:       880.0000000
  free_energy:      -164.0949656
  entropy:           338.0211368
  heat_capacity:     147.7834196
  energy:            133.3636348

- temperature:       890.0000000
  free_energy:      -167.4835429
  entropy:           339.6912585
  heat_capacity:     147.8248246
  energy:            134.8416772

- temperature:       900.0000000
  free_energy:      -170.8887300
  entropy:           341.3431742
  heat_capacity:     147.8648787
  energy:            136.3201268

- temperature:       910.0000000
  free_energy:      -174.3103470
  entropy:           342.9772719
  heat_capacity:     147.9036398
  energy:            137.7989704

- temperature:       920.0000000
  free_energy:      -177.7482173
  entropy:           344.5939269
  heat_capacity:     147.9411627
  energy:            139.2781954

- temperature:       930.0000000
  free_energy:      -181.2021686
  entropy:           346.1935036
  heat_capacity:     147.9774995
  energy:            140.7577897

- temperature:       940.0000000
  free_energy:      -184.6720317
  entropy:           347.7763546
  heat_capacity:     148.0126993
  energy:            142.2377416

- temperature:       950.0000000
  free_energy:      -188.1576411
  entropy:           349.3428223
  heat_capacity:     148.0468091
  energy:            143.7180401

- temperature:       960.0000000
  free_energy:      -191.6588346
  entropy:           350.8932385
  heat_capacity:     148.0798731
  energy:            145.1986743

- temperature:       970.0000000
  free_energy:      -195.1754534
  entropy:           352.4279254
  heat_capacity:     148.1119335
  energy:            146.6796342

- temperature:       980.0000000
  free_energy:      -198.7073417
  entropy:           353.9471954
  heat_capacity:     148.1430305
  energy:            148.1609098

- temperature:       990.0000000
  free_energy:      -202.2543469
  entropy:           355.4513522
  heat_capacity:     148.1732021
  energy:            149.6424917

- temperature:      1000.0000000
  free_energy:      -205.8163194
  entropy:           356.9406903
  heat_capacity:     148.2024845
  energy:            151.1243709
