# Tetrahedron method
       -1.1726592012        0.0000000000
       -1.1022996546        0.0000000000
       -1.0319401081        0.0000000000
       -0.9615805615        0.0000000000
       -0.8912210150        0.0000000000
       -0.8208614684        0.0000000000
       -0.7505019219        0.0000000000
       -0.6801423753        0.0000000000
       -0.6097828288        0.0000000000
       -0.5394232822        0.0000000000
       -0.4690637357        0.0000000000
       -0.3987041891        0.0000000000
       -0.3283446426        0.0000000000
       -0.2579850960        0.0000000000
       -0.1876255495        0.0000000000
       -0.1172660029        0.0000000000
       -0.0469064564        0.0000000000
        0.0234530902        0.0002047179
        0.0938126367        0.0035966953
        0.1641721833        0.0168948935
        0.2345317298        0.0331555619
        0.3048912764        0.0552213387
        0.3752508229        0.0873538686
        0.4456103695        0.1206415044
        0.5159699160        0.1627084046
        0.5863294626        0.2059787460
        0.6566890091        0.2598217558
        0.7270485557        0.3155705731
        0.7974081022        0.3842862928
        0.8677676488        0.4589980112
        0.9381271953        0.5467842615
        1.0084867419        0.6500794146
        1.0788462884        0.7733684197
        1.1492058350        0.9345069006
        1.2195653815        1.1753840091
        1.2899249281        1.3251490190
        1.3602844746        1.5006815048
        1.4306440212        1.7347882826
        1.5010035677        2.0743961376
        1.5713631143        2.2912953201
        1.6417226608        2.4110410991
        1.7120822074        2.8774923348
        1.7824417539        3.5560199326
        1.8528013005        4.3885500838
        1.9231608470        4.2437776384
        1.9935203936        2.7639543947
        2.0638799401        2.6814633042
        2.1342394867        3.1544827843
        2.2045990332        2.9748110596
        2.2749585798        2.9838032140
        2.3453181263        2.7118337993
        2.4156776729        2.3522491993
        2.4860372194        1.8140681180
        2.5563967660        1.5790710058
        2.6267563126        1.8704223316
        2.6971158591        2.3244007787
        2.7674754057        2.4464720409
        2.8378349522        1.8864280919
        2.9081944988        2.1966264980
        2.9785540453        3.2863330666
        3.0489135919        4.7211107748
        3.1192731384        3.2090815002
        3.1896326850        3.4825038209
        3.2599922315        3.9571637992
        3.3303517781        0.4848005661
        3.4007113246        0.0000000000
        3.4710708712        0.0000000000
        3.5414304177        0.0000000000
        3.6117899643        0.0000000000
        3.6821495108        0.0000000000
        3.7525090574        0.0000000000
        3.8228686039        0.0000000000
        3.8932281505        0.0000000000
        3.9635876970        0.0000000000
        4.0339472436        0.0000000000
        4.1043067901        0.0000000000
        4.1746663367        0.0000000000
        4.2450258832        0.0000000000
        4.3153854298        0.0000000000
        4.3857449763        0.0000000000
        4.4561045229        0.0000000000
        4.5264640694        0.0000000000
        4.5968236160        0.0000000000
        4.6671831625        0.0000000000
        4.7375427091        0.0000000000
        4.8079022556        0.0000000000
        4.8782618022        0.0000000000
        4.9486213487        0.0000000000
        5.0189808953        0.8550951044
        5.0893404418        0.9819880221
        5.1596999884        0.8296418820
        5.2300595349        0.6684303912
        5.3004190815        0.6220591926
        5.3707786280        0.5317078756
        5.4411381746        0.5335373816
        5.5114977211        0.5912187503
        5.5818572677        0.6880394081
        5.6522168142        0.8765256893
        5.7225763608        1.2357764674
        5.7929359073        1.2062776522
        5.8632954539        1.3146910319
        5.9336550004        1.3527391747
        6.0040145470        1.5334086781
        6.0743740935        1.5712875466
        6.1447336401        1.6492006705
        6.2150931866        1.7487908124
        6.2854527332        1.8303947327
        6.3558122797        1.8841376664
        6.4261718263        2.1336414132
        6.4965313728        2.0599736061
        6.5668909194        1.9624339412
        6.6372504659        1.9877537248
        6.7076100125        2.1819182947
        6.7779695590        1.6969280812
        6.8483291056        2.1146397645
        6.9186886521        2.7291012538
        6.9890481987        2.7825254565
        7.0594077452        2.4765653914
        7.1297672918        2.3147766628
        7.2001268383        2.1851571825
        7.2704863849        2.0807999652
        7.3408459314        2.2601993208
        7.4112054780        2.8469917886
        7.4815650245        2.1703794676
        7.5519245711        2.1244103398
        7.6222841176        2.7982543083
        7.6926436642        3.3993378715
        7.7630032107        3.2291572434
        7.8333627573        2.2169946946
        7.9037223038        2.1783315508
        7.9740818504        2.1772959381
        8.0444413969        2.0114013773
        8.1148009435        1.8042404544
        8.1851604900        1.8277034327
        8.2555200366        2.0405134781
        8.3258795831        2.7262913991
        8.3962391297        3.1422848637
        8.4665986762        2.6498580495
        8.5369582228        2.8384378295
        8.6073177693        2.7025528188
        8.6776773159        2.9088770341
        8.7480368624        2.1987421884
        8.8183964090        1.7919551794
        8.8887559555        1.5072255215
        8.9591155021        1.1673267620
        9.0294750486        0.9820267674
        9.0998345952        0.8603028645
        9.1701941417        0.7890255357
        9.2405536883        0.9829123454
        9.3109132348        0.9306342424
        9.3812727814        0.9384635630
        9.4516323279        1.0381607491
        9.5219918745        1.3128772127
        9.5923514210        1.6751304959
        9.6627109676        1.9201182714
        9.7330705141        2.2373887559
        9.8034300607        2.3989465300
        9.8737896072        3.0478810078
        9.9441491538        3.7276838908
       10.0145087003        2.8554958856
       10.0848682469        2.3994193788
       10.1552277934        1.8615492985
       10.2255873400        1.4205689903
       10.2959468865        1.2811216601
       10.3663064331        0.9559649041
       10.4366659796        0.9002236273
       10.5070255262        0.9592672946
       10.5773850727        0.9252045361
       10.6477446193        1.0338712911
       10.7181041658        1.5402140558
       10.7884637124        1.9551436942
       10.8588232589        2.3039357575
       10.9291828055        2.1836563964
       10.9995423520        2.2747218590
       11.0699018986        2.5314145612
       11.1402614451        2.6884982893
       11.2106209917        2.1182655941
       11.2809805382        1.7881839286
       11.3513400848        1.6155818793
       11.4216996313        1.4827313487
       11.4920591779        1.2577788561
       11.5624187244        0.7618129644
       11.6327782710        0.4898778969
       11.7031378175        0.2002246229
       11.7734973641        0.0000000000
       11.8438569106        0.0000000000
       11.9142164572        0.0000000000
       11.9845760037        0.0000000000
       12.0549355503        0.0000000000
       12.1252950968        0.0000000000
       12.1956546434        0.0000000000
       12.2660141899        0.0000000000
       12.3363737365        0.0000000000
       12.4067332830        0.0000000000
       12.4770928296        0.0000000000
       12.5474523761        0.0000000000
       12.6178119227        0.0000000000
       12.6881714692        0.0000000000
       12.7585310158        0.0000000000
       12.8288905623        0.0000000000
       12.8992501089        0.0000000000
