# Thermal properties / unit cell (natom)

unit:
  temperature:   K
  free_energy:   kJ/mol
  entropy:       J/K/mol
  heat_capacity: J/K/mol

natom: 8    
cutoff_frequency: 0.00000
num_modes: 155520
num_integrated_modes: 155519

zero_point_energy:      25.3570104

thermal_properties:
- temperature:         0.0000000
  free_energy:        25.3570104
  entropy:             0.0000000
  heat_capacity:       0.0000000
  energy:             25.3570104

- temperature:        10.0000000
  free_energy:        25.3539634
  entropy:             1.1664522
  heat_capacity:       3.6777365
  energy:             25.3656279

- temperature:        20.0000000
  free_energy:        25.3086688
  entropy:             9.3929162
  heat_capacity:      24.8523603
  energy:             25.4965271

- temperature:        30.0000000
  free_energy:        25.1441003
  entropy:            24.1305133
  heat_capacity:      48.4340003
  energy:             25.8680157

- temperature:        40.0000000
  free_energy:        24.8210344
  entropy:            40.4945389
  heat_capacity:      65.0369010
  energy:             26.4408160

- temperature:        50.0000000
  free_energy:        24.3361465
  entropy:            56.3311628
  heat_capacity:      76.8113847
  energy:             27.1527047

- temperature:        60.0000000
  free_energy:        23.6976396
  entropy:            71.2138252
  heat_capacity:      86.5589488
  energy:             27.9704691

- temperature:        70.0000000
  free_energy:        22.9147153
  entropy:            85.2440361
  heat_capacity:      95.6476593
  energy:             28.8817978

- temperature:        80.0000000
  free_energy:        21.9950223
  entropy:            98.5933070
  heat_capacity:     104.4430494
  energy:             29.8824869

- temperature:        90.0000000
  free_energy:        20.9446956
  entropy:           111.3868710
  heat_capacity:     112.8926821
  energy:             30.9695139

- temperature:       100.0000000
  free_energy:        19.7688889
  entropy:           123.6981078
  heat_capacity:     120.8515044
  energy:             32.1386997

- temperature:       110.0000000
  free_energy:        18.4722076
  entropy:           135.5665162
  heat_capacity:     128.2065177
  energy:             33.3845244

- temperature:       120.0000000
  free_energy:        17.0589612
  entropy:           147.0139148
  heat_capacity:     134.9034828
  energy:             34.7006310

- temperature:       130.0000000
  free_energy:        15.5332848
  entropy:           158.0545948
  heat_capacity:     140.9379736
  energy:             36.0803822

- temperature:       140.0000000
  free_energy:        13.8991848
  entropy:           168.7006503
  heat_capacity:     146.3386695
  energy:             37.5172758

- temperature:       150.0000000
  free_energy:        12.1605465
  entropy:           178.9643514
  heat_capacity:     151.1527047
  energy:             39.0051992

- temperature:       160.0000000
  free_energy:        10.3211282
  entropy:           188.8589373
  heat_capacity:     155.4352708
  energy:             40.5385582

- temperature:       170.0000000
  free_energy:         8.3845507
  entropy:           198.3986561
  heat_capacity:     159.2430449
  energy:             42.1123222

- temperature:       180.0000000
  free_energy:         6.3542881
  entropy:           207.5985010
  heat_capacity:     162.6304146
  energy:             43.7220182

- temperature:       190.0000000
  free_energy:         4.2336623
  entropy:           216.4738668
  heat_capacity:     165.6475478
  energy:             45.3636970

- temperature:       200.0000000
  free_energy:         2.0258407
  entropy:           225.0402273
  heat_capacity:     168.3396030
  energy:             47.0338862

- temperature:       210.0000000
  free_energy:        -0.2661632
  entropy:           233.3128698
  heat_capacity:     170.7466045
  energy:             48.7295394

- temperature:       220.0000000
  free_energy:        -2.6394873
  entropy:           241.3066955
  heat_capacity:     172.9036777
  energy:             50.4479857

- temperature:       230.0000000
  free_energy:        -5.0914157
  entropy:           249.0360791
  heat_capacity:     174.8414606
  energy:             52.1868824

- temperature:       240.0000000
  free_energy:        -7.6193734
  entropy:           256.5147769
  heat_capacity:     176.5865811
  energy:             53.9441731

- temperature:       250.0000000
  free_energy:       -10.2209194
  entropy:           263.7558742
  heat_capacity:     178.1621397
  energy:             55.7180492

- temperature:       260.0000000
  free_energy:       -12.8937402
  entropy:           270.7717614
  heat_capacity:     179.5881659
  energy:             57.5069177

- temperature:       270.0000000
  free_energy:       -15.6356429
  entropy:           277.5741303
  heat_capacity:     180.8820315
  energy:             59.3093722

- temperature:       280.0000000
  free_energy:       -18.4445479
  entropy:           284.1739863
  heat_capacity:     182.0588185
  energy:             61.1241683

- temperature:       290.0000000
  free_energy:       -21.3184822
  entropy:           290.5816703
  heat_capacity:     183.1316389
  energy:             62.9502022

- temperature:       300.0000000
  free_energy:       -24.2555731
  entropy:           296.8068863
  heat_capacity:     184.1119127
  energy:             64.7864928

- temperature:       310.0000000
  free_energy:       -27.2540421
  entropy:           302.8587336
  heat_capacity:     185.0096054
  energy:             66.6321654

- temperature:       320.0000000
  free_energy:       -30.3121984
  entropy:           308.7457411
  heat_capacity:     185.8334319
  energy:             68.4864388

- temperature:       330.0000000
  free_energy:       -33.4284341
  entropy:           314.4759014
  heat_capacity:     186.5910310
  energy:             70.3486133

- temperature:       340.0000000
  free_energy:       -36.6012186
  entropy:           320.0567050
  heat_capacity:     187.2891128
  energy:             72.2180611

- temperature:       350.0000000
  free_energy:       -39.8290938
  entropy:           325.4951737
  heat_capacity:     187.9335861
  energy:             74.0942170

- temperature:       360.0000000
  free_energy:       -43.1106696
  entropy:           330.7978922
  heat_capacity:     188.5296657
  energy:             75.9765716

- temperature:       370.0000000
  free_energy:       -46.4446198
  entropy:           335.9710384
  heat_capacity:     189.0819649
  energy:             77.8646644

- temperature:       380.0000000
  free_energy:       -49.8296779
  entropy:           341.0204117
  heat_capacity:     189.5945742
  energy:             79.7580786

- temperature:       390.0000000
  free_energy:       -53.2646336
  entropy:           345.9514600
  heat_capacity:     190.0711284
  energy:             81.6564358

- temperature:       400.0000000
  free_energy:       -56.7483297
  entropy:           350.7693039
  heat_capacity:     190.5148652
  energy:             83.5593918

- temperature:       410.0000000
  free_energy:       -60.2796585
  entropy:           355.4787605
  heat_capacity:     190.9286742
  energy:             85.4666333

- temperature:       420.0000000
  free_energy:       -63.8575588
  entropy:           360.0843643
  heat_capacity:     191.3151403
  energy:             87.3778742

- temperature:       430.0000000
  free_energy:       -67.4810138
  entropy:           364.5903874
  heat_capacity:     191.6765803
  energy:             89.2928527

- temperature:       440.0000000
  free_energy:       -71.1490481
  entropy:           369.0008577
  heat_capacity:     192.0150750
  energy:             91.2113293

- temperature:       450.0000000
  free_energy:       -74.8607252
  entropy:           373.3195760
  heat_capacity:     192.3324972
  energy:             93.1330840

- temperature:       460.0000000
  free_energy:       -78.6151457
  entropy:           377.5501313
  heat_capacity:     192.6305352
  energy:             95.0579147

- temperature:       470.0000000
  free_energy:       -82.4114452
  entropy:           381.6959159
  heat_capacity:     192.9107142
  energy:             96.9856352

- temperature:       480.0000000
  free_energy:       -86.2487922
  entropy:           385.7601380
  heat_capacity:     193.1744144
  energy:             98.9160740

- temperature:       490.0000000
  free_energy:       -90.1263863
  entropy:           389.7458348
  heat_capacity:     193.4228870
  energy:            100.8490728

- temperature:       500.0000000
  free_energy:       -94.0434567
  entropy:           393.6558832
  heat_capacity:     193.6572682
  energy:            102.7844848

- temperature:       510.0000000
  free_energy:       -97.9992609
  entropy:           397.4930108
  heat_capacity:     193.8785916
  energy:            104.7221746

- temperature:       520.0000000
  free_energy:      -101.9930825
  entropy:           401.2598054
  heat_capacity:     194.0877987
  energy:            106.6620163

- temperature:       530.0000000
  free_energy:      -106.0242308
  entropy:           404.9587242
  heat_capacity:     194.2857488
  energy:            108.6038931

- temperature:       540.0000000
  free_energy:      -110.0920386
  entropy:           408.5921017
  heat_capacity:     194.4732269
  energy:            110.5476964

- temperature:       550.0000000
  free_energy:      -114.1958617
  entropy:           412.1621579
  heat_capacity:     194.6509517
  energy:            112.4933251

- temperature:       560.0000000
  free_energy:      -118.3350777
  entropy:           415.6710050
  heat_capacity:     194.8195818
  energy:            114.4406851

- temperature:       570.0000000
  free_energy:      -122.5090845
  entropy:           419.1206543
  heat_capacity:     194.9797218
  energy:            116.3896884

- temperature:       580.0000000
  free_energy:      -126.7172999
  entropy:           422.5130223
  heat_capacity:     195.1319271
  energy:            118.3402531

- temperature:       590.0000000
  free_energy:      -130.9591601
  entropy:           425.8499362
  heat_capacity:     195.2767090
  energy:            120.2923022

- temperature:       600.0000000
  free_energy:      -135.2341196
  entropy:           429.1331394
  heat_capacity:     195.4145386
  energy:            122.2457641

- temperature:       610.0000000
  free_energy:      -139.5416494
  entropy:           432.3642963
  heat_capacity:     195.5458505
  energy:            124.2005713

- temperature:       620.0000000
  free_energy:      -143.8812373
  entropy:           435.5449968
  heat_capacity:     195.6710462
  energy:            126.1566607

- temperature:       630.0000000
  free_energy:      -148.2523863
  entropy:           438.6767608
  heat_capacity:     195.7904968
  energy:            128.1139731

- temperature:       640.0000000
  free_energy:      -152.6546142
  entropy:           441.7610420
  heat_capacity:     195.9045461
  energy:            130.0724526

- temperature:       650.0000000
  free_energy:      -157.0874535
  entropy:           444.7992316
  heat_capacity:     196.0135126
  energy:            132.0320470

- temperature:       660.0000000
  free_energy:      -161.5504497
  entropy:           447.7926616
  heat_capacity:     196.1176920
  energy:            133.9927069

- temperature:       670.0000000
  free_energy:      -166.0431618
  entropy:           450.7426084
  heat_capacity:     196.2173588
  energy:            135.9543858

- temperature:       680.0000000
  free_energy:      -170.5651610
  entropy:           453.6502955
  heat_capacity:     196.3127682
  energy:            137.9170399

- temperature:       690.0000000
  free_energy:      -175.1160307
  entropy:           456.5168964
  heat_capacity:     196.4041579
  energy:            139.8806278

- temperature:       700.0000000
  free_energy:      -179.6953657
  entropy:           459.3435374
  heat_capacity:     196.4917492
  energy:            141.8451104

- temperature:       710.0000000
  free_energy:      -184.3027719
  entropy:           462.1312996
  heat_capacity:     196.5757484
  energy:            143.8104508

- temperature:       720.0000000
  free_energy:      -188.9378656
  entropy:           464.8812217
  heat_capacity:     196.6563484
  energy:            145.7766141

- temperature:       730.0000000
  free_energy:      -193.6002735
  entropy:           467.5943021
  heat_capacity:     196.7337290
  energy:            147.7435671

- temperature:       740.0000000
  free_energy:      -198.2896320
  entropy:           470.2715007
  heat_capacity:     196.8080585
  energy:            149.7112785

- temperature:       750.0000000
  free_energy:      -203.0055870
  entropy:           472.9137408
  heat_capacity:     196.8794945
  energy:            151.6797186

- temperature:       760.0000000
  free_energy:      -207.7477933
  entropy:           475.5219112
  heat_capacity:     196.9481844
  energy:            153.6488592

- temperature:       770.0000000
  free_energy:      -212.5159145
  entropy:           478.0968677
  heat_capacity:     197.0142666
  energy:            155.6186736

- temperature:       780.0000000
  free_energy:      -217.3096227
  entropy:           480.6394346
  heat_capacity:     197.0778707
  energy:            157.5891363

- temperature:       790.0000000
  free_energy:      -222.1285979
  entropy:           483.1504064
  heat_capacity:     197.1391186
  energy:            159.5602231

- temperature:       800.0000000
  free_energy:      -226.9725280
  entropy:           485.6305490
  heat_capacity:     197.1981246
  energy:            161.5319112

- temperature:       810.0000000
  free_energy:      -231.8411086
  entropy:           488.0806014
  heat_capacity:     197.2549965
  energy:            163.5041785

- temperature:       820.0000000
  free_energy:      -236.7340421
  entropy:           490.5012762
  heat_capacity:     197.3098355
  energy:            165.4770043

- temperature:       830.0000000
  free_energy:      -241.6510385
  entropy:           492.8932617
  heat_capacity:     197.3627368
  energy:            167.4503688

- temperature:       840.0000000
  free_energy:      -246.5918140
  entropy:           495.2572225
  heat_capacity:     197.4137904
  energy:            169.4242529

- temperature:       850.0000000
  free_energy:      -251.5560916
  entropy:           497.5938004
  heat_capacity:     197.4630810
  energy:            171.3986387

- temperature:       860.0000000
  free_energy:      -256.5436008
  entropy:           499.9036159
  heat_capacity:     197.5106885
  energy:            173.3735089

- temperature:       870.0000000
  free_energy:      -261.5540768
  entropy:           502.1872688
  heat_capacity:     197.5566884
  energy:            175.3488471

- temperature:       880.0000000
  free_energy:      -266.5872609
  entropy:           504.4453391
  heat_capacity:     197.6011520
  energy:            177.3246376

- temperature:       890.0000000
  free_energy:      -271.6429001
  entropy:           506.6783881
  heat_capacity:     197.6441466
  energy:            179.3008653

- temperature:       900.0000000
  free_energy:      -276.7207470
  entropy:           508.8869587
  heat_capacity:     197.6857362
  energy:            181.2775158

- temperature:       910.0000000
  free_energy:      -281.8205595
  entropy:           511.0715769
  heat_capacity:     197.7259810
  energy:            183.2545755

- temperature:       920.0000000
  free_energy:      -286.9421004
  entropy:           513.2327517
  heat_capacity:     197.7649381
  energy:            185.2320312

- temperature:       930.0000000
  free_energy:      -292.0851380
  entropy:           515.3709765
  heat_capacity:     197.8026619
  energy:            187.2098702

- temperature:       940.0000000
  free_energy:      -297.2494451
  entropy:           517.4867293
  heat_capacity:     197.8392035
  energy:            189.1880805

- temperature:       950.0000000
  free_energy:      -302.4347992
  entropy:           519.5804733
  heat_capacity:     197.8746118
  energy:            191.1666505

- temperature:       960.0000000
  free_energy:      -307.6409827
  entropy:           521.6526581
  heat_capacity:     197.9089329
  energy:            193.1455691

- temperature:       970.0000000
  free_energy:      -312.8677820
  entropy:           523.7037192
  heat_capacity:     197.9422109
  energy:            195.1248256

- temperature:       980.0000000
  free_energy:      -318.1149880
  entropy:           525.7340796
  heat_capacity:     197.9744874
  energy:            197.1044099

- temperature:       990.0000000
  free_energy:      -323.3823959
  entropy:           527.7441496
  heat_capacity:     198.0058021
  energy:            199.0843122

- temperature:      1000.0000000
  free_energy:      -328.6698047
  entropy:           529.7343276
  heat_capacity:     198.0361927
  energy:            201.0645229
