phonopy:
  version: "2.37.1"
  frequency_unit_conversion_factor: 15.633302
  symmetry_tolerance: 1.00000e-05

space_group:
  type: "I-43d"
  number: 220
  Hall_symbol: "I -4bd 2c 3"

primitive_matrix:
- [  0.000000000000000,  0.000000000000000,  1.000000000000000 ]
- [  1.000000000000000,  0.000000000000000,  0.000000000000000 ]
- [  0.000000000000000,  1.000000000000000,  0.000000000000000 ]

supercell_matrix:
- [   2,   0,   0 ]
- [   0,   2,   0 ]
- [   0,   0,   2 ]

primitive_cell:
  lattice:
  - [    -1.980571229560937,     5.601901389579158,     0.000000000000000 ] # a
  - [    -1.980571229560939,    -2.800950693858189,     4.851388913408637 ] # b
  - [     5.941713689999999,     0.000000000000000,     0.000000000000000 ] # c
  points:
  - symbol: Li # 1
    coordinates: [  0.500000000000000,  0.000000000000000,  0.011942000000000 ]
    mass: 6.940000
  - symbol: Li # 2
    coordinates: [  0.011942000000000,  0.500000000000000,  0.000000000000000 ]
    mass: 6.940000
  - symbol: Li # 3
    coordinates: [  0.988058000000000,  0.988058000000000,  0.988058000000000 ]
    mass: 6.940000
  - symbol: Li # 4
    coordinates: [  0.511942000000000,  0.500000000000000,  1.000000000000000 ]
    mass: 6.940000
  - symbol: Li # 5
    coordinates: [  0.500000000000000,  0.000000000000000,  0.511942000000000 ]
    mass: 6.940000
  - symbol: Li # 6
    coordinates: [  0.488058000000000,  0.488058000000000,  0.488058000000000 ]
    mass: 6.940000
  - symbol: Li # 7
    coordinates: [  0.000000000000000,  0.011942000000000,  0.500000000000000 ]
    mass: 6.940000
  - symbol: Li # 8
    coordinates: [  0.000000000000000,  0.511942000000000,  0.500000000000000 ]
    mass: 6.940000
  reciprocal_lattice: # without 2pi
  - [     0.000000000000000,     0.178510818105480,     0.103063268840764 ] # a*
  - [     0.000000000000000,     0.000000000000000,     0.206126537750071 ] # b*
  - [     0.168301613334721,     0.059503606021969,     0.103063268840764 ] # c*

unit_cell:
  lattice:
  - [     5.941713690000000,     0.000000000000000,     0.000000000000000 ] # a
  - [    -1.980571229560938,     5.601901389579157,     0.000000000000000 ] # b
  - [    -1.980571229560938,    -2.800950693858188,     4.851388913408636 ] # c
  points:
  - symbol: Li # 1
    coordinates: [  0.011942000000000,  0.500000000000000,  0.000000000000000 ]
    mass: 6.940000
    reduced_to: 1
  - symbol: Li # 2
    coordinates: [  0.000000000000000,  0.011942000000000,  0.500000000000000 ]
    mass: 6.940000
    reduced_to: 2
  - symbol: Li # 3
    coordinates: [  0.988058000000000,  0.988058000000000,  0.988058000000000 ]
    mass: 6.940000
    reduced_to: 3
  - symbol: Li # 4
    coordinates: [  0.000000000000000,  0.511942000000000,  0.500000000000000 ]
    mass: 6.940000
    reduced_to: 4
  - symbol: Li # 5
    coordinates: [  0.511942000000000,  0.500000000000000,  0.000000000000000 ]
    mass: 6.940000
    reduced_to: 5
  - symbol: Li # 6
    coordinates: [  0.488058000000000,  0.488058000000000,  0.488058000000000 ]
    mass: 6.940000
    reduced_to: 6
  - symbol: Li # 7
    coordinates: [  0.500000000000000,  0.000000000000000,  0.011942000000000 ]
    mass: 6.940000
    reduced_to: 7
  - symbol: Li # 8
    coordinates: [  0.500000000000000,  0.000000000000000,  0.511942000000000 ]
    mass: 6.940000
    reduced_to: 8

supercell:
  lattice:
  - [    11.883427380000001,     0.000000000000000,     0.000000000000000 ] # a
  - [    -3.961142459121877,    11.203802779158314,     0.000000000000000 ] # b
  - [    -3.961142459121877,    -5.601901387716376,     9.702777826817272 ] # c
  points:
  - symbol: Li # 1
    coordinates: [  0.005971000000000,  0.250000000000000,  0.000000000000000 ]
    mass: 6.940000
    reduced_to: 1
  - symbol: Li # 2
    coordinates: [  0.505971000000000,  0.250000000000000,  0.000000000000000 ]
    mass: 6.940000
    reduced_to: 1
  - symbol: Li # 3
    coordinates: [  0.005971000000000,  0.750000000000000,  0.000000000000000 ]
    mass: 6.940000
    reduced_to: 1
  - symbol: Li # 4
    coordinates: [  0.505971000000000,  0.750000000000000,  0.000000000000000 ]
    mass: 6.940000
    reduced_to: 1
  - symbol: Li # 5
    coordinates: [  0.005971000000000,  0.250000000000000,  0.500000000000000 ]
    mass: 6.940000
    reduced_to: 1
  - symbol: Li # 6
    coordinates: [  0.505971000000000,  0.250000000000000,  0.500000000000000 ]
    mass: 6.940000
    reduced_to: 1
  - symbol: Li # 7
    coordinates: [  0.005971000000000,  0.750000000000000,  0.500000000000000 ]
    mass: 6.940000
    reduced_to: 1
  - symbol: Li # 8
    coordinates: [  0.505971000000000,  0.750000000000000,  0.500000000000000 ]
    mass: 6.940000
    reduced_to: 1
  - symbol: Li # 9
    coordinates: [  0.000000000000000,  0.005971000000000,  0.250000000000000 ]
    mass: 6.940000
    reduced_to: 9
  - symbol: Li # 10
    coordinates: [  0.500000000000000,  0.005971000000000,  0.250000000000000 ]
    mass: 6.940000
    reduced_to: 9
  - symbol: Li # 11
    coordinates: [  0.000000000000000,  0.505971000000000,  0.250000000000000 ]
    mass: 6.940000
    reduced_to: 9
  - symbol: Li # 12
    coordinates: [  0.500000000000000,  0.505971000000000,  0.250000000000000 ]
    mass: 6.940000
    reduced_to: 9
  - symbol: Li # 13
    coordinates: [  0.000000000000000,  0.005971000000000,  0.750000000000000 ]
    mass: 6.940000
    reduced_to: 9
  - symbol: Li # 14
    coordinates: [  0.500000000000000,  0.005971000000000,  0.750000000000000 ]
    mass: 6.940000
    reduced_to: 9
  - symbol: Li # 15
    coordinates: [  0.000000000000000,  0.505971000000000,  0.750000000000000 ]
    mass: 6.940000
    reduced_to: 9
  - symbol: Li # 16
    coordinates: [  0.500000000000000,  0.505971000000000,  0.750000000000000 ]
    mass: 6.940000
    reduced_to: 9
  - symbol: Li # 17
    coordinates: [  0.494029000000000,  0.494029000000000,  0.494029000000000 ]
    mass: 6.940000
    reduced_to: 17
  - symbol: Li # 18
    coordinates: [  0.994029000000000,  0.494029000000000,  0.494029000000000 ]
    mass: 6.940000
    reduced_to: 17
  - symbol: Li # 19
    coordinates: [  0.494029000000000,  0.994029000000000,  0.494029000000000 ]
    mass: 6.940000
    reduced_to: 17
  - symbol: Li # 20
    coordinates: [  0.994029000000000,  0.994029000000000,  0.494029000000000 ]
    mass: 6.940000
    reduced_to: 17
  - symbol: Li # 21
    coordinates: [  0.494029000000000,  0.494029000000000,  0.994029000000000 ]
    mass: 6.940000
    reduced_to: 17
  - symbol: Li # 22
    coordinates: [  0.994029000000000,  0.494029000000000,  0.994029000000000 ]
    mass: 6.940000
    reduced_to: 17
  - symbol: Li # 23
    coordinates: [  0.494029000000000,  0.994029000000000,  0.994029000000000 ]
    mass: 6.940000
    reduced_to: 17
  - symbol: Li # 24
    coordinates: [  0.994029000000000,  0.994029000000000,  0.994029000000000 ]
    mass: 6.940000
    reduced_to: 17
  - symbol: Li # 25
    coordinates: [  0.000000000000000,  0.255971000000000,  0.250000000000000 ]
    mass: 6.940000
    reduced_to: 25
  - symbol: Li # 26
    coordinates: [  0.500000000000000,  0.255971000000000,  0.250000000000000 ]
    mass: 6.940000
    reduced_to: 25
  - symbol: Li # 27
    coordinates: [  0.000000000000000,  0.755971000000000,  0.250000000000000 ]
    mass: 6.940000
    reduced_to: 25
  - symbol: Li # 28
    coordinates: [  0.500000000000000,  0.755971000000000,  0.250000000000000 ]
    mass: 6.940000
    reduced_to: 25
  - symbol: Li # 29
    coordinates: [  0.000000000000000,  0.255971000000000,  0.750000000000000 ]
    mass: 6.940000
    reduced_to: 25
  - symbol: Li # 30
    coordinates: [  0.500000000000000,  0.255971000000000,  0.750000000000000 ]
    mass: 6.940000
    reduced_to: 25
  - symbol: Li # 31
    coordinates: [  0.000000000000000,  0.755971000000000,  0.750000000000000 ]
    mass: 6.940000
    reduced_to: 25
  - symbol: Li # 32
    coordinates: [  0.500000000000000,  0.755971000000000,  0.750000000000000 ]
    mass: 6.940000
    reduced_to: 25
  - symbol: Li # 33
    coordinates: [  0.255971000000000,  0.250000000000000,  0.000000000000000 ]
    mass: 6.940000
    reduced_to: 33
  - symbol: Li # 34
    coordinates: [  0.755971000000000,  0.250000000000000,  0.000000000000000 ]
    mass: 6.940000
    reduced_to: 33
  - symbol: Li # 35
    coordinates: [  0.255971000000000,  0.750000000000000,  0.000000000000000 ]
    mass: 6.940000
    reduced_to: 33
  - symbol: Li # 36
    coordinates: [  0.755971000000000,  0.750000000000000,  0.000000000000000 ]
    mass: 6.940000
    reduced_to: 33
  - symbol: Li # 37
    coordinates: [  0.255971000000000,  0.250000000000000,  0.500000000000000 ]
    mass: 6.940000
    reduced_to: 33
  - symbol: Li # 38
    coordinates: [  0.755971000000000,  0.250000000000000,  0.500000000000000 ]
    mass: 6.940000
    reduced_to: 33
  - symbol: Li # 39
    coordinates: [  0.255971000000000,  0.750000000000000,  0.500000000000000 ]
    mass: 6.940000
    reduced_to: 33
  - symbol: Li # 40
    coordinates: [  0.755971000000000,  0.750000000000000,  0.500000000000000 ]
    mass: 6.940000
    reduced_to: 33
  - symbol: Li # 41
    coordinates: [  0.244029000000000,  0.244029000000000,  0.244029000000000 ]
    mass: 6.940000
    reduced_to: 41
  - symbol: Li # 42
    coordinates: [  0.744029000000000,  0.244029000000000,  0.244029000000000 ]
    mass: 6.940000
    reduced_to: 41
  - symbol: Li # 43
    coordinates: [  0.244029000000000,  0.744029000000000,  0.244029000000000 ]
    mass: 6.940000
    reduced_to: 41
  - symbol: Li # 44
    coordinates: [  0.744029000000000,  0.744029000000000,  0.244029000000000 ]
    mass: 6.940000
    reduced_to: 41
  - symbol: Li # 45
    coordinates: [  0.244029000000000,  0.244029000000000,  0.744029000000000 ]
    mass: 6.940000
    reduced_to: 41
  - symbol: Li # 46
    coordinates: [  0.744029000000000,  0.244029000000000,  0.744029000000000 ]
    mass: 6.940000
    reduced_to: 41
  - symbol: Li # 47
    coordinates: [  0.244029000000000,  0.744029000000000,  0.744029000000000 ]
    mass: 6.940000
    reduced_to: 41
  - symbol: Li # 48
    coordinates: [  0.744029000000000,  0.744029000000000,  0.744029000000000 ]
    mass: 6.940000
    reduced_to: 41
  - symbol: Li # 49
    coordinates: [  0.250000000000000,  0.000000000000000,  0.005971000000000 ]
    mass: 6.940000
    reduced_to: 49
  - symbol: Li # 50
    coordinates: [  0.750000000000000,  0.000000000000000,  0.005971000000000 ]
    mass: 6.940000
    reduced_to: 49
  - symbol: Li # 51
    coordinates: [  0.250000000000000,  0.500000000000000,  0.005971000000000 ]
    mass: 6.940000
    reduced_to: 49
  - symbol: Li # 52
    coordinates: [  0.750000000000000,  0.500000000000000,  0.005971000000000 ]
    mass: 6.940000
    reduced_to: 49
  - symbol: Li # 53
    coordinates: [  0.250000000000000,  0.000000000000000,  0.505971000000000 ]
    mass: 6.940000
    reduced_to: 49
  - symbol: Li # 54
    coordinates: [  0.750000000000000,  0.000000000000000,  0.505971000000000 ]
    mass: 6.940000
    reduced_to: 49
  - symbol: Li # 55
    coordinates: [  0.250000000000000,  0.500000000000000,  0.505971000000000 ]
    mass: 6.940000
    reduced_to: 49
  - symbol: Li # 56
    coordinates: [  0.750000000000000,  0.500000000000000,  0.505971000000000 ]
    mass: 6.940000
    reduced_to: 49
  - symbol: Li # 57
    coordinates: [  0.250000000000000,  0.000000000000000,  0.255971000000000 ]
    mass: 6.940000
    reduced_to: 57
  - symbol: Li # 58
    coordinates: [  0.750000000000000,  0.000000000000000,  0.255971000000000 ]
    mass: 6.940000
    reduced_to: 57
  - symbol: Li # 59
    coordinates: [  0.250000000000000,  0.500000000000000,  0.255971000000000 ]
    mass: 6.940000
    reduced_to: 57
  - symbol: Li # 60
    coordinates: [  0.750000000000000,  0.500000000000000,  0.255971000000000 ]
    mass: 6.940000
    reduced_to: 57
  - symbol: Li # 61
    coordinates: [  0.250000000000000,  0.000000000000000,  0.755971000000000 ]
    mass: 6.940000
    reduced_to: 57
  - symbol: Li # 62
    coordinates: [  0.750000000000000,  0.000000000000000,  0.755971000000000 ]
    mass: 6.940000
    reduced_to: 57
  - symbol: Li # 63
    coordinates: [  0.250000000000000,  0.500000000000000,  0.755971000000000 ]
    mass: 6.940000
    reduced_to: 57
  - symbol: Li # 64
    coordinates: [  0.750000000000000,  0.500000000000000,  0.755971000000000 ]
    mass: 6.940000
    reduced_to: 57

displacements:
- atom:    1
  displacement:
    [  -0.0033333333325944,  0.0094280904160819,  0.0000000000000000 ]
  forces:
  - [  -0.0063663902692497, -0.0107196001335979, -0.0000494625419378 ]
  - [  -0.0101666068658233, -0.0000213100574911, -0.0000002137385309 ]
  - [  -0.0101643539965153,  0.0000691772002028, -0.0000002881378123 ]
  - [  -0.0101199466735125,  0.0000075865536928,  0.0000019657891244 ]
  - [  -0.0101223103702068, -0.0000051921233535, -0.0000259340740740 ]
  - [  -0.0101489759981632, -0.0000036866404116, -0.0000203142408282 ]
  - [  -0.0101517420262098, -0.0000044871121645,  0.0000179968774319 ]
  - [  -0.0101216658949852, -0.0000058545265347,  0.0000259273219854 ]
  - [   0.0033353460021317, -0.0101481396704912,  0.0004038445185870 ]
  - [   0.0033752322196960, -0.0095391282811761, -0.0000085165956989 ]
  - [   0.0029655927792192, -0.0091212149709463,  0.0003879282739945 ]
  - [   0.0033373730257154, -0.0095278983935714,  0.0000149812258314 ]
  - [   0.0027862563729286, -0.0090298680588603,  0.0007134061306715 ]
  - [   0.0033725276589394, -0.0095343617722392,  0.0000336495577358 ]
  - [   0.0033742990344763, -0.0103784594684839,  0.0004931026487611 ]
  - [   0.0033784750849009, -0.0095402635633945, -0.0000008578645065 ]
  - [   0.0033878211397678,  0.0047887717373669,  0.0082977432757616 ]
  - [   0.0033872043713927,  0.0047897081822157,  0.0082640247419477 ]
  - [   0.0033770464360714,  0.0047864159569144,  0.0082773361355066 ]
  - [   0.0033785060513765,  0.0047869929112494,  0.0082780513912439 ]
  - [   0.0033590588718653,  0.0047785127535462,  0.0082798143848777 ]
  - [   0.0016885919030756,  0.0090253828093410,  0.0081831766292453 ]
  - [   0.0033772431779653,  0.0047858948819339,  0.0082793086767197 ]
  - [   0.0020590182393789,  0.0090407449752092,  0.0083719016984105 ]
  - [   0.0039350604638457, -0.0090629085898399, -0.0011310423724353 ]
  - [   0.0034019940067083, -0.0095631498843431,  0.0000167684629560 ]
  - [   0.0034037758596241, -0.0095884250476956, -0.0000098035670817 ]
  - [   0.0033675348386168, -0.0095791360363364, -0.0000076328869909 ]
  - [   0.0039350716397166, -0.0088428985327482, -0.0014006017008796 ]
  - [   0.0034039309248328, -0.0095677897334099,  0.0000022796666599 ]
  - [   0.0034011839888990, -0.0095893861725926, -0.0000340026163030 ]
  - [   0.0033674868755043, -0.0095754070207477, -0.0000164607445186 ]
  - [  -0.0116624049842358, -0.0001273860689253,  0.0000009578798199 ]
  - [  -0.0116518205031753, -0.0001351232931484,  0.0000009066679922 ]
  - [  -0.0101590761914849, -0.0000417583505623,  0.0000046816421673 ]
  - [  -0.0101440018042922, -0.0000352424103767, -0.0000054496340454 ]
  - [  -0.0101337293162942, -0.0000065369531512,  0.0000158911570907 ]
  - [  -0.0101409964263439, -0.0000182024668902,  0.0000257864594460 ]
  - [  -0.0101407067850232, -0.0000086751533672, -0.0000206875847653 ]
  - [  -0.0101332776248455, -0.0000156312016770, -0.0000214257743210 ]
  - [   0.0027454239316285,  0.0053527369163930,  0.0075429528951645 ]
  - [   0.0033636903390288,  0.0047928332351148,  0.0082527585327625 ]
  - [   0.0033674384467304,  0.0042110444046557,  0.0079072508960962 ]
  - [   0.0033788969740272,  0.0048013003543019,  0.0082814702764153 ]
  - [   0.0033434592187405,  0.0048249512910843,  0.0082500977441669 ]
  - [   0.0029949275776744,  0.0052134748548269,  0.0079128015786409 ]
  - [   0.0033715059980750,  0.0048005296848714,  0.0082864454016089 ]
  - [   0.0033421711996198,  0.0040328353643417,  0.0078032743185759 ]
  - [   0.0040022600442171,  0.0043805874884129, -0.0082552023231983 ]
  - [   0.0036211749538779,  0.0054313875734806, -0.0082713784649968 ]
  - [   0.0039149927906692,  0.0057648355141282, -0.0082724392414093 ]
  - [   0.0041700005531311,  0.0042877714149654, -0.0083034150302410 ]
  - [   0.0033646970987320,  0.0047963303513825, -0.0082766683772206 ]
  - [   0.0033918116241693,  0.0048422412946820, -0.0082746678963304 ]
  - [   0.0033977716229856,  0.0048055602237582, -0.0082858260720968 ]
  - [   0.0033708226401359,  0.0047999471426010, -0.0082816146314144 ]
  - [   0.0034048743546009,  0.0047541097737849, -0.0082499040290713 ]
  - [   0.0033734003081918,  0.0047675371170044, -0.0082666277885437 ]
  - [   0.0038840398192406,  0.0053554032929242, -0.0069894641637802 ]
  - [   0.0033930074423552,  0.0047749686054885, -0.0082775074988604 ]
  - [   0.0034150124993175,  0.0047744549810886, -0.0083004478365183 ]
  - [   0.0040006134659052,  0.0054073664359748, -0.0070386603474617 ]
  - [   0.0033598598092794,  0.0047549884766340, -0.0082663362845778 ]
  - [   0.0034005278721452,  0.0047507435083389, -0.0082656610757113 ]
- atom:    1
  displacement:
    [   0.0033333333325944, -0.0094280904160819,  0.0000000000000000 ]
  forces:
  - [  -0.0139850564301014,  0.0107786608859897, -0.0000497144646943 ]
  - [  -0.0101125147193670,  0.0000218180939555, -0.0000001771841198 ]
  - [  -0.0101148979738355, -0.0000697609939380, -0.0000005177532785 ]
  - [  -0.0101600829511881, -0.0000070519745350, -0.0000016328849597 ]
  - [  -0.0101572237908840,  0.0000049746595323,  0.0000260884407908 ]
  - [  -0.0101305469870567,  0.0000027311034501,  0.0000192462466657 ]
  - [  -0.0101278070360422,  0.0000042561441660, -0.0000181347131729 ]
  - [  -0.0101577918976545,  0.0000055895652622, -0.0000258074142039 ]
  - [   0.0034242048859596, -0.0090246517211199, -0.0003749341703951 ]
  - [   0.0033860527910292, -0.0095809474587440,  0.0000086295185611 ]
  - [   0.0037872893735766, -0.0099947713315487, -0.0003806030144915 ]
  - [   0.0034263525158167, -0.0095901284366846, -0.0000133855792228 ]
  - [   0.0039734467864037, -0.0100865066051483, -0.0007166073191911 ]
  - [   0.0033833421766758, -0.0095868092030287, -0.0000362620339729 ]
  - [   0.0033852807246149, -0.0087829008698463, -0.0004681067657657 ]
  - [   0.0033809831365943, -0.0095795486122370,  0.0000005920883268 ]
  - [   0.0033723176456988,  0.0047711888328195,  0.0082609308883548 ]
  - [   0.0033721725922078,  0.0047700568102300,  0.0082949232310057 ]
  - [   0.0033822515979409,  0.0047747343778610,  0.0082801943644881 ]
  - [   0.0033821002580225,  0.0047738431021571,  0.0082797221839428 ]
  - [   0.0034017818979919,  0.0047815516591072,  0.0082793757319450 ]
  - [   0.0050298604182899,  0.0006355342920870,  0.0083714239299297 ]
  - [   0.0033817570656538,  0.0047737802378833,  0.0082801543176174 ]
  - [   0.0047318912111223,  0.0004148099687882,  0.0081822741776705 ]
  - [   0.0028257679659873, -0.0100446678698063,  0.0011225186754018 ]
  - [   0.0033579252194613, -0.0095568140968680, -0.0000163936056197 ]
  - [   0.0033556590788066, -0.0095318295061588,  0.0000085819046944 ]
  - [   0.0033927552867681, -0.0095393620431423,  0.0000073073897511 ]
  - [   0.0028259824030101, -0.0102866478264332,  0.0014044223353267 ]
  - [   0.0033557224087417, -0.0095518669113517, -0.0000017466099962 ]
  - [   0.0033570388332009, -0.0095292394980788,  0.0000349698239006 ]
  - [   0.0033927306067199, -0.0095438715070486,  0.0000166521531355 ]
  - [  -0.0086277220398188,  0.0001358795707347, -0.0000007983180694 ]
  - [  -0.0086170677095652,  0.0001281197182834, -0.0000007219277904 ]
  - [  -0.0101204449310899,  0.0000401248689741, -0.0000053648836911 ]
  - [  -0.0101344939321280,  0.0000365709420294,  0.0000056182034314 ]
  - [  -0.0101457200944424,  0.0000063921324909, -0.0000155665911734 ]
  - [  -0.0101383253931999,  0.0000184136442840, -0.0000253240577877 ]
  - [  -0.0101390210911632,  0.0000091764377430,  0.0000213815364987 ]
  - [  -0.0101461866870522,  0.0000154152512550,  0.0000224966788664 ]
  - [   0.0040154526941478,  0.0042089270427823,  0.0090182777494192 ]
  - [   0.0033927089534700,  0.0047646593302488,  0.0083072641864419 ]
  - [   0.0033901920542121,  0.0054024709388614,  0.0086797662079334 ]
  - [   0.0033810918685049,  0.0047576827928424,  0.0082757687196136 ]
  - [   0.0034203175455332,  0.0047354474663734,  0.0083050811663270 ]
  - [   0.0037601422518492,  0.0043478682637215,  0.0086376275867224 ]
  - [   0.0033878497779369,  0.0047595249488950,  0.0082713328301907 ]
  - [   0.0034204209223390,  0.0055659990757704,  0.0087793385609984 ]
  - [   0.0028070770204067,  0.0051414333283901, -0.0083021754398942 ]
  - [   0.0031316690146923,  0.0041220989078283, -0.0082860514521599 ]
  - [   0.0028496980667114,  0.0037954272702336, -0.0082856267690659 ]
  - [   0.0026292675174773,  0.0052484343759716, -0.0082552898675203 ]
  - [   0.0033950363285840,  0.0047627622261643, -0.0082809682935476 ]
  - [   0.0033684340305626,  0.0047173127532005, -0.0082885008305311 ]
  - [   0.0033617736771703,  0.0047544068656862, -0.0082676894962788 ]
  - [   0.0033897485118359,  0.0047597605735064, -0.0082765221595764 ]
  - [   0.0033545759506524,  0.0048071998171508, -0.0083081480115652 ]
  - [   0.0033853426575661,  0.0047920700162649, -0.0082916868850589 ]
  - [   0.0028765834867954,  0.0041931923478842, -0.0095743816345930 ]
  - [   0.0033673089928925,  0.0047862976789474, -0.0082810465246439 ]
  - [   0.0033449602779001,  0.0047854725271463, -0.0082578929141164 ]
  - [   0.0027607739903033,  0.0041629634797573, -0.0095125921070576 ]
  - [   0.0033987406641245,  0.0048044160939753, -0.0082913376390934 ]
  - [   0.0033610537648201,  0.0048079336993396, -0.0082902386784554 ]

force_constants:
  format: "full"
  shape: [ 64, 64 ]
  elements:
  - # (1, 1)
    - [     1.142797367818184,    -0.000000000001548,    -0.000000000002972 ]
    - [    -0.000000000001548,     1.140118711364217,    -0.000000000004007 ]
    - [    -0.000000000002972,    -0.000000000004007,     1.140118711360511 ]
  - # (1, 2)
    - [    -0.008116378531283,    -0.000000000000897,     0.000000000000501 ]
    - [    -0.000000000000107,     0.002288465719463,    -0.000000000000873 ]
    - [     0.000000000002042,    -0.000000000001482,     0.002288465716329 ]
  - # (1, 3)
    - [     0.001076613469891,     0.002999353354206,    -0.000036880727551 ]
    - [     0.002999353354257,    -0.006308393930857,    -0.000026157417297 ]
    - [    -0.000036880726424,    -0.000026157417022,     0.002162746955122 ]
  - # (1, 4)
    - [    -0.000113942743582,    -0.002167270115972,     0.000166771985413 ]
    - [    -0.002167270116202,    -0.001541088015070,    -0.000129525618917 ]
    - [     0.000166771987258,    -0.000129525616940,     0.001562060373369 ]
  - # (1, 5)
    - [     0.001076613469786,    -0.001467737034004,     0.002615956559587 ]
    - [    -0.001467737033220,     0.000022308750865,     0.003681190308514 ]
    - [     0.002615956561053,     0.003681190307912,    -0.004167955723947 ]
  - # (1, 6)
    - [    -0.000113942743510,     0.000939206280506,    -0.001960296972034 ]
    - [     0.000939206282022,     0.000674100800407,     0.001408465475750 ]
    - [    -0.001960296970718,     0.001408465475494,    -0.000653128442552 ]
  - # (1, 7)
    - [    -0.000113942743429,     0.001228063832378,     0.001793524978713 ]
    - [     0.001228063833439,     0.000898445754143,    -0.001278939865044 ]
    - [     0.001793524981010,    -0.001278939865217,    -0.000877473396498 ]
  - # (1, 8)
    - [     0.001076613469623,    -0.001531616321236,    -0.002579075841098 ]
    - [    -0.001531616321538,     0.000067614718019,    -0.003655032900374 ]
    - [    -0.002579075839899,    -0.003655032898460,    -0.004213261690826 ]
  - # (1, 9)
    - [    -0.004415009087509,     0.004545559116350,     0.000908695402000 ]
    - [     0.003155614456440,     0.061181934305433,    -0.040983528222563 ]
    - [     0.001414402718897,    -0.040271529855961,     0.016242304063497 ]
  - # (1, 10)
    - [    -0.002160591003386,     0.000104053485204,    -0.000676257727405 ]
    - [    -0.000189132941210,    -0.002190671132408,     0.000673634071714 ]
    - [    -0.000860527542754,     0.000413037201052,    -0.002023986352110 ]
  - # (1, 11)
    - [    -0.054873390447858,     0.021326481788471,     0.036967082228236 ]
    - [     0.024177273185377,    -0.038785383596033,    -0.027681984324547 ]
    - [     0.038421185857367,    -0.025625571251960,    -0.068990589347778 ]
  - # (1, 12)
    - [     0.051473139694944,     0.024305003610842,     0.038439830024295 ]
    - [     0.022915058943766,     0.005293785535138,     0.012090331599922 ]
    - [     0.038942539406925,     0.012804449820242,     0.016242304036092 ]
  - # (1, 13)
    - [    -0.069597438854862,     0.039456425075913,     0.072305685453257 ]
    - [     0.038354772811260,    -0.042087026016341,    -0.050274899782886 ]
    - [     0.071501525204191,    -0.051412154063829,    -0.105338510293297 ]
  - # (1, 14)
    - [     0.075037795630754,     0.026216433968676,     0.048884976939951 ]
    - [     0.027108730189588,     0.006483295451929,     0.013575552613935 ]
    - [     0.048061047085076,     0.012415976294643,     0.024631845370026 ]
  - # (1, 15)
    - [    -0.002658020166232,    -0.001253185134400,     0.004314454310687 ]
    - [    -0.000360888920577,     0.084179111239331,    -0.049451048525110 ]
    - [     0.003495838562980,    -0.050614382492740,     0.024631845394473 ]
  - # (1, 16)
    - [    -0.001892165209839,    -0.000940690014884,    -0.000287114467894 ]
    - [    -0.000535068016060,    -0.002413924464429,    -0.000020069441757 ]
    - [    -0.000076783170102,     0.000277383931303,    -0.001842334210487 ]
  - # (1, 17)
    - [     0.001034905991376,    -0.000449983745522,     0.003403691275080 ]
    - [    -0.000451988008475,    -0.001088167017707,    -0.000745868990868 ]
    - [     0.002538402437040,    -0.001007999981011,     0.004344029693187 ]
  - # (1, 18)
    - [     0.001458000775688,     0.000703724580603,    -0.002429199730606 ]
    - [    -0.000278860531413,    -0.000793652866438,     0.000772949644864 ]
    - [    -0.001980413455359,    -0.000615516989545,     0.003234478322076 ]
  - # (1, 19)
    - [     0.001550409174267,     0.000732326424692,     0.001079235388693 ]
    - [     0.000826951896533,    -0.000363691223932,     0.000531709054232 ]
    - [     0.001837911327355,     0.000663763837126,     0.002817534359936 ]
  - # (1, 20)
    - [     0.001069163774204,    -0.000198154297995,    -0.001749757673124 ]
    - [     0.000573784841978,    -0.000762454910327,    -0.000529353686421 ]
    - [    -0.002313946450547,     0.000947305788086,     0.003592117368504 ]
  - # (1, 21)
    - [     0.003569631857406,     0.003564213036313,     0.000051296183534 ]
    - [     0.003527452589008,     0.001421169843600,    -0.000000436703920 ]
    - [    -0.000793926165688,    -0.000319324301885,    -0.000700033033094 ]
  - # (1, 22)
    - [    -0.049591365185874,     0.159105897169495,    -0.003536197328763 ]
    - [     0.159646916577021,    -0.388685684204398,     0.008702838429699 ]
    - [    -0.004003852606981,     0.009867159388766,     0.013345332109640 ]
  - # (1, 23)
    - [     0.003468905107626,     0.001304419890305,    -0.000034285614886 ]
    - [     0.001462921227941,    -0.000176388521017,     0.000033871821634 ]
    - [     0.000687511575222,     0.000270235454599,     0.000711735719915 ]
  - # (1, 24)
    - [    -0.027805233811656,     0.132728516196283,     0.002798639788461 ]
    - [     0.131913361344110,    -0.410540055470039,    -0.009096591552224 ]
    - [     0.003113972059603,    -0.010146893814026,     0.013413572107750 ]
  - # (1, 25)
    - [    -0.049591365186726,    -0.076490511862869,     0.139557847505564 ]
    - [    -0.076356020231153,    -0.079121377038929,     0.168859876708331 ]
    - [     0.140260211682952,     0.170024197615736,    -0.296218975056262 ]
  - # (1, 26)
    - [     0.003569631857555,    -0.001826530318098,     0.003061050939505 ]
    - [    -0.001076166069132,    -0.000308192886889,    -0.000679123741800 ]
    - [     0.003451826631664,    -0.000998011339285,     0.001029329697921 ]
  - # (1, 27)
    - [     0.001550409173811,    -0.001300808479368,     0.000094595594895 ]
    - [    -0.002005153847813,     0.002539882913859,     0.001012615473220 ]
    - [    -0.000202794309859,     0.001144670257043,    -0.000086039777433 ]
  - # (1, 28)
    - [     0.001069163773854,     0.001614411741015,     0.000703272179717 ]
    - [     0.001717043986420,     0.002684452869734,     0.001042767345450 ]
    - [     0.001653885474932,     0.002519426818433,     0.000145209585506 ]
  - # (1, 29)
    - [    -0.027805233812524,    -0.068787951255059,     0.113546946942322 ]
    - [    -0.068653459613061,    -0.100907508414516,     0.188913328305632 ]
    - [     0.112683336013578,     0.187863025985409,    -0.296218975056339 ]
  - # (1, 30)
    - [     0.003468905111281,    -0.000622517736607,     0.001146803570352 ]
    - [    -0.001326863103870,     0.000621386976874,     0.000190360441463 ]
    - [     0.000923171159882,     0.000426724073427,    -0.000086039777043 ]
  - # (1, 31)
    - [     0.001034905996522,    -0.002722691243504,    -0.002091542992635 ]
    - [    -0.001972326993549,     0.002226532976384,     0.002921742910168 ]
    - [    -0.001660634317890,     0.002659611922432,     0.001029329694893 ]
  - # (1, 32)
    - [     0.001458000778356,     0.001751886382315,     0.001824043225600 ]
    - [     0.001854518627713,     0.002295615867462,     0.002399107114922 ]
    - [     0.000748706418444,     0.001010640482946,     0.000145209586135 ]
  - # (1, 33)
    - [    -0.455210236911786,     0.000000000016534,     0.000000000028783 ]
    - [     0.000000000018420,     0.013962418999896,    -0.000087622451053 ]
    - [     0.000000000030142,     0.000087622443836,     0.013962418995623 ]
  - # (1, 34)