# Thermal properties / unit cell (natom)

unit:
  temperature:   K
  free_energy:   kJ/mol
  entropy:       J/K/mol
  heat_capacity: J/K/mol

natom: 8    
cutoff_frequency: 0.00000
num_modes: 222264
num_integrated_modes: 222263

zero_point_energy:      28.1428064

thermal_properties:
- temperature:         0.0000000
  free_energy:        28.1428064
  entropy:             0.0000000
  heat_capacity:       0.0000000
  energy:             28.1428064

- temperature:        10.0000000
  free_energy:        28.1422215
  entropy:             0.1618558
  heat_capacity:       0.4247904
  energy:             28.1438401

- temperature:        20.0000000
  free_energy:        28.1362089
  entropy:             1.3410250
  heat_capacity:       4.4301064
  energy:             28.1630294

- temperature:        30.0000000
  free_energy:        28.1073080
  entropy:             4.8853228
  heat_capacity:      14.6044724
  energy:             28.2538677

- temperature:        40.0000000
  free_energy:        28.0301479
  entropy:            10.9160022
  heat_capacity:      28.3314180
  energy:             28.4667880

- temperature:        50.0000000
  free_energy:        27.8826963
  entropy:            18.8372994
  heat_capacity:      43.3162975
  energy:             28.8245613

- temperature:        60.0000000
  free_energy:        27.6490339
  entropy:            28.0736155
  heat_capacity:      58.4152686
  energy:             29.3334509

- temperature:        70.0000000
  free_energy:        27.3183343
  entropy:            38.1802563
  heat_capacity:      72.9475688
  energy:             29.9909523

- temperature:        80.0000000
  free_energy:        26.8836705
  entropy:            48.8170373
  heat_capacity:      86.4760010
  energy:             30.7890335

- temperature:        90.0000000
  free_energy:        26.3410981
  entropy:            59.7246639
  heat_capacity:      98.7634530
  energy:             31.7163178

- temperature:       100.0000000
  free_energy:        25.6889252
  entropy:            70.7097019
  heat_capacity:     109.7323193
  energy:             32.7598954

- temperature:       110.0000000
  free_energy:        24.9271170
  entropy:            81.6322515
  heat_capacity:     119.4133377
  energy:             33.9066646

- temperature:       120.0000000
  free_energy:        24.0568175
  entropy:            92.3946514
  heat_capacity:     127.8993254
  energy:             35.1441757

- temperature:       130.0000000
  free_energy:        23.0799785
  entropy:           102.9314803
  heat_capacity:     135.3114433
  energy:             36.4610709

- temperature:       140.0000000
  free_energy:        21.9990801
  entropy:           113.2012340
  heat_capacity:     141.7778562
  energy:             37.8472528

- temperature:       150.0000000
  free_energy:        20.8169260
  entropy:           123.1797439
  heat_capacity:     147.4217442
  energy:             39.2938876

- temperature:       160.0000000
  free_energy:        19.5364964
  entropy:           132.8551593
  heat_capacity:     152.3554561
  energy:             40.7933219

- temperature:       170.0000000
  free_energy:        18.1608446
  entropy:           142.2242203
  heat_capacity:     156.6783442
  energy:             42.3389621

- temperature:       180.0000000
  free_energy:        16.6930250
  entropy:           151.2895365
  heat_capacity:     160.4766309
  energy:             43.9251415

- temperature:       190.0000000
  free_energy:        15.1360449
  entropy:           160.0576259
  heat_capacity:     163.8242968
  energy:             45.5469938

- temperature:       200.0000000
  free_energy:        13.4928333
  entropy:           168.5375168
  heat_capacity:     166.7843978
  energy:             47.2003366

- temperature:       210.0000000
  free_energy:        11.7662202
  entropy:           176.7397580
  heat_capacity:     169.4104914
  energy:             48.8815693

- temperature:       220.0000000
  free_energy:         9.9589257
  entropy:           184.6757253
  heat_capacity:     171.7480063
  energy:             50.5875853

- temperature:       230.0000000
  free_energy:         8.0735542
  entropy:           192.3571412
  heat_capacity:     173.8354809
  energy:             52.3156966

- temperature:       240.0000000
  free_energy:         6.1125922
  entropy:           199.7957451
  heat_capacity:     175.7056457
  energy:             54.0635711

- temperature:       250.0000000
  free_energy:         4.0784101
  entropy:           207.0030733
  heat_capacity:     177.3863501
  energy:             55.8291785

- temperature:       260.0000000
  free_energy:         1.9732644
  entropy:           213.9903144
  heat_capacity:     178.9013454
  energy:             57.6107461

- temperature:       270.0000000
  free_energy:        -0.2006984
  entropy:           220.7682202
  heat_capacity:     180.2709413
  energy:             59.4067210

- temperature:       280.0000000
  free_energy:        -2.4414365
  entropy:           227.3470540
  heat_capacity:     181.5125546
  energy:             61.2157386

- temperature:       290.0000000
  free_energy:        -4.7470085
  entropy:           233.7365661
  heat_capacity:     182.6411659
  energy:             63.0365957

- temperature:       300.0000000
  free_energy:        -7.1155676
  entropy:           239.9459870
  heat_capacity:     183.6696991
  energy:             64.8682285

- temperature:       310.0000000
  free_energy:        -9.5453570
  entropy:           245.9840340
  heat_capacity:     184.6093388
  energy:             66.7096935

- temperature:       320.0000000
  free_energy:       -12.0347045
  entropy:           251.8589249
  heat_capacity:     185.4697934
  energy:             68.5601515

- temperature:       330.0000000
  free_energy:       -14.5820175
  entropy:           257.5783977
  heat_capacity:     186.2595157
  energy:             70.4188537

- temperature:       340.0000000
  free_energy:       -17.1857787
  entropy:           263.1497336
  heat_capacity:     186.9858872
  energy:             72.2851307

- temperature:       350.0000000
  free_energy:       -19.8445413
  entropy:           268.5797806
  heat_capacity:     187.6553725
  energy:             74.1583819

- temperature:       360.0000000
  free_energy:       -22.5569249
  entropy:           273.8749789
  heat_capacity:     188.2736495
  energy:             76.0380675

- temperature:       370.0000000
  free_energy:       -25.3216116
  entropy:           279.0413853
  heat_capacity:     188.8457187
  energy:             77.9237010

- temperature:       380.0000000
  free_energy:       -28.1373423
  entropy:           284.0846973
  heat_capacity:     189.3759962
  energy:             79.8148427

- temperature:       390.0000000
  free_energy:       -31.0029131
  entropy:           289.0102764
  heat_capacity:     189.8683918
  energy:             81.7110947

- temperature:       400.0000000
  free_energy:       -33.9171722
  entropy:           293.8231702
  heat_capacity:     190.3263760
  energy:             83.6120958

- temperature:       410.0000000
  free_energy:       -36.8790168
  entropy:           298.5281332
  heat_capacity:     190.7530370
  energy:             85.5175178

- temperature:       420.0000000
  free_energy:       -39.8873901
  entropy:           303.1296464
  heat_capacity:     191.1511291
  energy:             87.4270614

- temperature:       430.0000000
  free_energy:       -42.9412790
  entropy:           307.6319358
  heat_capacity:     191.5231146
  energy:             89.3404534

- temperature:       440.0000000
  free_energy:       -46.0397114
  entropy:           312.0389896
  heat_capacity:     191.8711995
  energy:             91.2574440

- temperature:       450.0000000
  free_energy:       -49.1817539
  entropy:           316.3545739
  heat_capacity:     192.1973647
  energy:             93.1778043

- temperature:       460.0000000
  free_energy:       -52.3665098
  entropy:           320.5822480
  heat_capacity:     192.5033924
  energy:             95.1013242

- temperature:       470.0000000
  free_energy:       -55.5931171
  entropy:           324.7253777
  heat_capacity:     192.7908891
  energy:             97.0278104

- temperature:       480.0000000
  free_energy:       -58.8607462
  entropy:           328.7871486
  heat_capacity:     193.0613063
  energy:             98.9570851

- temperature:       490.0000000
  free_energy:       -62.1685989
  entropy:           332.7705775
  heat_capacity:     193.3159574
  energy:            100.8889840

- temperature:       500.0000000
  free_energy:       -65.5159062
  entropy:           336.6785237
  heat_capacity:     193.5560332
  energy:            102.8233557

- temperature:       510.0000000
  free_energy:       -68.9019268
  entropy:           340.5136991
  heat_capacity:     193.7826152
  energy:            104.7600597

- temperature:       520.0000000
  free_energy:       -72.3259462
  entropy:           344.2786778
  heat_capacity:     193.9966873
  energy:            106.6989663

- temperature:       530.0000000
  free_energy:       -75.7872746
  entropy:           347.9759044
  heat_capacity:     194.1991463
  energy:            108.6399548

- temperature:       540.0000000
  free_energy:       -79.2852462
  entropy:           351.6077026
  heat_capacity:     194.3908104
  energy:            110.5829132

- temperature:       550.0000000
  free_energy:       -82.8192179
  entropy:           355.1762825
  heat_capacity:     194.5724279
  energy:            112.5277375

- temperature:       560.0000000
  free_energy:       -86.3885681
  entropy:           358.6837477
  heat_capacity:     194.7446836
  energy:            114.4743306

- temperature:       570.0000000
  free_energy:       -89.9926958
  entropy:           362.1321016
  heat_capacity:     194.9082055
  energy:            116.4226021

- temperature:       580.0000000
  free_energy:       -93.6310195
  entropy:           365.5232535
  heat_capacity:     195.0635702
  energy:            118.3724675

- temperature:       590.0000000
  free_energy:       -97.3029763
  entropy:           368.8590243
  heat_capacity:     195.2113078
  energy:            120.3238480

- temperature:       600.0000000
  free_energy:      -101.0080212
  entropy:           372.1411518
  heat_capacity:     195.3519062
  energy:            122.2766699

- temperature:       610.0000000
  free_energy:      -104.7456261
  entropy:           375.3712950
  heat_capacity:     195.4858152
  energy:            124.2308639

- temperature:       620.0000000
  free_energy:      -108.5152791
  entropy:           378.5510393
  heat_capacity:     195.6134502
  energy:            126.1863653

- temperature:       630.0000000
  free_energy:      -112.3164839
  entropy:           381.6819003
  heat_capacity:     195.7351946
  energy:            128.1431132

- temperature:       640.0000000
  free_energy:      -116.1487590
  entropy:           384.7653277
  heat_capacity:     195.8514035
  energy:            130.1010507

- temperature:       650.0000000
  free_energy:      -120.0116370
  entropy:           387.8027092
  heat_capacity:     195.9624056
  energy:            132.0601240

- temperature:       660.0000000
  free_energy:      -123.9046641
  entropy:           390.7953737
  heat_capacity:     196.0685057
  energy:            134.0202825

- temperature:       670.0000000
  free_energy:      -127.8273997
  entropy:           393.7445945
  heat_capacity:     196.1699868
  energy:            135.9814787

- temperature:       680.0000000
  free_energy:      -131.7794153
  entropy:           396.6515926
  heat_capacity:     196.2671118
  energy:            137.9436677

- temperature:       690.0000000
  free_energy:      -135.7602947
  entropy:           399.5175390
  heat_capacity:     196.3601254
  energy:            139.9068072

- temperature:       700.0000000
  free_energy:      -139.7696330
  entropy:           402.3435575
  heat_capacity:     196.4492553
  energy:            141.8708573

- temperature:       710.0000000
  free_energy:      -143.8070363
  entropy:           405.1307274
  heat_capacity:     196.5347137
  energy:            143.8357801

- temperature:       720.0000000
  free_energy:      -147.8721215
  entropy:           407.8800854
  heat_capacity:     196.6166986
  energy:            145.8015400

- temperature:       730.0000000
  free_energy:      -151.9645153
  entropy:           410.5926280
  heat_capacity:     196.6953950
  energy:            147.7681031

- temperature:       740.0000000
  free_energy:      -156.0838545
  entropy:           413.2693135
  heat_capacity:     196.7709757
  energy:            149.7354375

- temperature:       750.0000000
  free_energy:      -160.2297852
  entropy:           415.9110639
  heat_capacity:     196.8436024
  energy:            151.7035128

- temperature:       760.0000000
  free_energy:      -164.4019623
  entropy:           418.5187665
  heat_capacity:     196.9134264
  energy:            153.6723002

- temperature:       770.0000000
  free_energy:      -168.6000498
  entropy:           421.0932757
  heat_capacity:     196.9805894
  energy:            155.6417724

- temperature:       780.0000000
  free_energy:      -172.8237199
  entropy:           423.6354147
  heat_capacity:     197.0452246
  energy:            157.6119035

- temperature:       790.0000000
  free_energy:      -177.0726529
  entropy:           426.1459770
  heat_capacity:     197.1074568
  energy:            159.5826689

- temperature:       800.0000000
  free_energy:      -181.3465368
  entropy:           428.6257273
  heat_capacity:     197.1674031
  energy:            161.5540451

- temperature:       810.0000000
  free_energy:      -185.6450672
  entropy:           431.0754036
  heat_capacity:     197.2251738
  energy:            163.5260097

- temperature:       820.0000000
  free_energy:      -189.9679470
  entropy:           433.4957178
  heat_capacity:     197.2808725
  energy:            165.4985416

- temperature:       830.0000000
  free_energy:      -194.3148860
  entropy:           435.8873573
  heat_capacity:     197.3345968
  energy:            167.4716206

- temperature:       840.0000000
  free_energy:      -198.6856008
  entropy:           438.2509858
  heat_capacity:     197.3864387
  energy:            169.4452273

- temperature:       850.0000000
  free_energy:      -203.0798145
  entropy:           440.5872445
  heat_capacity:     197.4364848
  energy:            171.4193434

- temperature:       860.0000000
  free_energy:      -207.4972565
  entropy:           442.8967532
  heat_capacity:     197.4848168
  energy:            173.3939513

- temperature:       870.0000000
  free_energy:      -211.9376623
  entropy:           445.1801110
  heat_capacity:     197.5315119
  energy:            175.3690343

- temperature:       880.0000000
  free_energy:      -216.4007735
  entropy:           447.4378975
  heat_capacity:     197.5766430
  energy:            177.3445763

- temperature:       890.0000000
  free_energy:      -220.8863369
  entropy:           449.6706731
  heat_capacity:     197.6202789
  energy:            179.3205621

- temperature:       900.0000000
  free_energy:      -225.3941054
  entropy:           451.8789805
  heat_capacity:     197.6624848
  energy:            181.2969771

- temperature:       910.0000000
  free_energy:      -229.9238367
  entropy:           454.0633451
  heat_capacity:     197.7033223
  energy:            183.2738073

- temperature:       920.0000000
  free_energy:      -234.4752942
  entropy:           456.2242754
  heat_capacity:     197.7428498
  energy:            185.2510392

- temperature:       930.0000000
  free_energy:      -239.0482458
  entropy:           458.3622644
  heat_capacity:     197.7811225
  energy:            187.2286601

- temperature:       940.0000000
  free_energy:      -243.6424646
  entropy:           460.4777896
  heat_capacity:     197.8181929
  energy:            189.2066576

- temperature:       950.0000000
  free_energy:      -248.2577282
  entropy:           462.5713140
  heat_capacity:     197.8541107
  energy:            191.1850201

- temperature:       960.0000000
  free_energy:      -252.8938190
  entropy:           464.6432866
  heat_capacity:     197.8889231
  energy:            193.1637362

- temperature:       970.0000000
  free_energy:      -257.5505236
  entropy:           466.6941429
  heat_capacity:     197.9226748
  energy:            195.1427950

- temperature:       980.0000000
  free_energy:      -262.2276329
  entropy:           468.7243053
  heat_capacity:     197.9554085
  energy:            197.1221863

- temperature:       990.0000000
  free_energy:      -266.9249421
  entropy:           470.7341838
  heat_capacity:     197.9871644
  energy:            199.1018999

- temperature:      1000.0000000
  free_energy:      -271.6422503
  entropy:           472.7241767
  heat_capacity:     198.0179812
  energy:            201.0819264
