4
Lattice="3.994879913311174 0.08673066979738049 -3.873884758729466 -0.656476707402357 3.9415258686588337 -3.8738847023273038 -0.07187778107320203 -0.08673065027103966 5.564250578835356" Properties=species:S:1:pos:R:3:forces:R:3 structure_index=0 total_energy=-12.658437728881836 stress="-0.005693480838090181 0.01775331422686577 -0.03414742276072502 0.01775333844125271 0.0010147300781682134 -0.0412047877907753 -0.0341474786400795 -0.041204921901226044 0.058847576379776" pbc="T T T"
Li      -0.00000001       0.00000003      -0.00000003       0.00000082      -0.00000026       0.00000037
Li       2.79610186       1.00706415      -1.09175944      -0.00000046       0.00000025       0.00000019
Sn       1.66920159       2.01412824      -3.87388478      -0.00000057       0.00000053       0.00000016
Sn       0.47042359       2.93446173      -1.09175936       0.00000023      -0.00000052      -0.00000072
4
Lattice="3.4577883197559354 0.05780128590449873 6.492388523920987e-08 -0.046948169394576085 3.4579530474830786 4.748841685796474e-08 1.7752563092938068e-07 1.3528930891131784e-07 8.318226287320954" Properties=species:S:1:pos:R:3:forces:R:3 structure_index=1 total_energy=-13.90988826751709 stress="-0.034893445670604706 0.021558791399002075 2.946041831819457e-06 0.021558798849582672 -0.03359294310212135 -1.6018550468288595e-06 2.945643700513756e-06 -1.620255716261454e-06 -0.032386425882577896" pbc="T T T"
Li       0.00000002       0.00000007       0.00000009       0.00000079      -0.00000018       0.00000051
Sn       1.70542023       1.75787721       6.47280611       0.00000009       0.00000015      -0.00775570
Sn       0.00000005       0.00000008       4.15911305      -0.00000072       0.00000023      -0.00000307
Sn       1.70542012       1.75787718       1.84542029      -0.00000017      -0.00000020       0.00775826
6
Lattice="5.38581482075961 -0.024027019256333222 -1.623141672023809 -2.979453017443966 4.4866958359351035 -1.6231415986648854 0.012955761217613325 0.024026931818131866 5.625070930960369" Properties=species:S:1:pos:R:3:forces:R:3 structure_index=2 total_energy=-17.07479476928711 stress="-0.003980136476457119 -0.006015107501298189 0.004376173950731754 -0.0060149673372507095 -0.011891192756593227 0.008116009645164013 0.004375980701297522 0.008115948177874088 -0.006637132726609707" pbc="T T T"
Li      -0.71661280       3.67711007      -1.05871169       0.00987962       0.01832239       0.03251080
Li       3.13593039       0.80958569       3.43749934      -0.00987957      -0.01832200      -0.03251088
Li       0.01815192       1.44577563       2.00096464      -0.03397854       0.01832232      -0.00000048
Li       2.40116565       3.04092014       0.37782299       0.03397885      -0.01832188       0.00000024
Sn       0.60159041       1.11566714      -0.81157077      -0.00000006      -0.00000126       0.00000231
Sn       1.80477136       3.34700164      -2.43471245      -0.00000030       0.00000044      -0.00000198
105
Lattice="12.032776464265512 1.2724801302518652e-07 6.947126928297882 4.010925548195809 11.344610429688965 6.947127031984059 9.46883999322578e-08 1.939439625071604e-07 13.894253692590674" Properties=species:S:1:pos:R:3:forces:R:3 structure_index=3 total_energy=-273.3559875488281 stress="-0.0038133913185447454 -1.1898762153350617e-07 3.3032074497896247e-07 -1.627298473749761e-07 -0.0038162716664373875 3.216170227915427e-07 -4.28093983373401e-07 1.1825991208525011e-07 -0.0038138949312269688" pbc="T T T"
Li      10.65404113       1.94982639       9.33516667      -0.02043308       0.02889687       0.03539082
Li       5.38966098       9.39478439      18.45334094       0.02043272      -0.02889553      -0.03538855
Li      13.28623136       9.39478441      13.89425394      -0.04086474      -0.02889588       0.00000015
Li       2.75747080       1.94982643      13.89425373       0.04086577       0.02889714       0.00000032
Li      10.65404119       1.94982651      18.45334084      -0.02043264       0.02889753      -0.03538855
Li       5.38966089       9.39478427       9.33516673       0.02043221      -0.02889558       0.03539018
Li      10.96999172       7.75695568      19.00058330      -0.00486763      -0.00344200      -0.00843143
Li      12.03277664      10.76296520      20.84138076      -0.00000043       0.01032634      -0.00000066
Li      10.96999169       7.75695570      22.68217807      -0.00486787      -0.00344247       0.00843081
Li      14.15834627       7.75695569      20.84138067       0.00973621      -0.00344161      -0.00000101
Li       8.02185107       8.48413906      13.89425385      -0.00000118      -0.01213495       0.00000042
Li       6.69633992       4.73502745      11.59840112       0.00571993       0.00404507       0.00990818
Li      10.67287333       4.73502749      13.89425386      -0.01144037       0.00404497       0.00000060
Li       6.69633994       4.73502752      16.19010648       0.00572019       0.00404544      -0.00990933
Li       8.92193802       6.30876294      15.45325018       0.00595132       0.00420744       0.01030830
Li       8.02185106       3.76293269      13.89425379      -0.00000082      -0.01262447       0.00000116
Li       8.92193796       6.30876293      12.33525752       0.00595175       0.00420826      -0.01030800
Li       6.22167718       6.30876291      13.89425381      -0.01190258       0.00420774       0.00000108
Li       9.29358762       3.62975098       6.94712696      -0.03219437       0.00824358       0.00000017
Li       0.11504498       0.08134920       9.34910302       0.01757593       0.01242793      -0.02531810
Li       6.52002447       7.55216151       6.94712700      -0.00295936      -0.03310093       0.00000026
Li       0.11504499       0.08134911       4.54515073       0.01757643       0.01242858       0.02531965
Li       8.03903815       0.08134922       9.12007033      -0.03071403       0.01242861      -0.00256301
Li       1.36959445       3.62975087       2.37220724       0.01609673       0.00824309       0.02788107
Li       3.87869348       0.08134925      11.52204649       0.01313721       0.01242880      -0.02787989
Li       2.75637600       7.55216144       4.77418348       0.00147968      -0.03310038       0.00256370
Li       8.03903807       0.08134914       4.77418343      -0.03071371       0.01242881       0.00256355
Li       2.75637607       7.55216151       9.12007043       0.00147921      -0.03310057      -0.00256309
Li       3.87869343       0.08134909       2.37220722       0.01313799       0.01242869       0.02788171
Li       1.36959449       3.62975102      11.52204658       0.01609708       0.00824430      -0.02788074
Li      12.03277662       5.82417466      20.84138067      -0.00000066      -0.01477506      -0.00000016
Li      13.29815995       9.40321923      23.03308908       0.00696613       0.00492438       0.01206387
Li       9.50200990       9.40321919      20.84138068      -0.01393055       0.00492368      -0.00000039
Li      13.29815995       9.40321913      18.64967244       0.00696643       0.00492448      -0.01206066
Li      12.21218904       8.63532179      16.40357773      -0.01581556      -0.01118348      -0.00719003
Li       5.28027180       0.66043470      13.89425373       0.01166356       0.01705366      -0.00000017
Li      12.21218905       8.63532175      11.38493000      -0.01581533      -0.01118297       0.00719049
Li       2.38275425       4.75814327      13.89425378       0.01996659       0.00531269       0.00000004
Li       9.39264070       0.66043474      16.26853103      -0.00583323       0.01705369      -0.01010293
Li       8.09982023       8.63532174       9.01065273       0.00168168      -0.01118359       0.01729118
Li      10.84139948       4.75814336      18.77785505      -0.00998238       0.00531287      -0.01729107
Li       3.75354382       8.63532178      11.51997650       0.01413292      -0.01118333       0.01010236
Li      10.84139940       4.75814322       9.01065270      -0.00998241       0.00531328       0.01729152
Li       8.09982026       8.63532185      18.77785505       0.00168206      -0.01118264      -0.01729064
Li       9.39264063       0.66043468      11.51997649      -0.00583334       0.01705378       0.01010226
Li       3.75354389       8.63532180      16.26853110       0.01413301      -0.01118309      -0.01010272
Li      -0.00000001       0.00000001       0.00000003      -0.00000209       0.00000077       0.00000021
Li       2.31166719       3.43693121       6.94712691       0.01389984      -0.00491413       0.00000034
Li       4.86055469       3.43693122       5.47552598      -0.00695015      -0.00491414       0.01203904
Li       4.01092552       1.03381705       6.94712688       0.00000001       0.01474354      -0.00000009
Li       4.86055470       3.43693128       8.41872786      -0.00695003      -0.00491419      -0.01203802
Li       2.61381168       4.81196998       4.52725474      -0.00381443       0.00539506      -0.00660620
Li       5.40803937       0.86033541       9.36699914       0.00381428      -0.00539458       0.00660836
Li       2.61381172       4.81197003       9.36699913      -0.00381481       0.00539433       0.00660818
Li       5.40803936       0.86033535       4.52725473       0.00381392      -0.00539436      -0.00660697
Li       1.21669782       0.86033534       6.94712686      -0.00762995      -0.00539498       0.00000037
Li       6.80515318       4.81197004       6.94712694       0.00762849       0.00539419       0.00000029
Li       4.01092554       8.80355522       6.94712703      -0.00000087      -0.03509131      -0.00000002
Li       1.19786490       0.84701842       2.07476291       0.01654221       0.01169738       0.02865241
Li       9.63704663       0.84701849       6.94712697      -0.03308406       0.01169717       0.00000022
Li       1.19786497       0.84701855      11.81949085       0.01654188       0.01169664      -0.02865105
Li      11.56623940       5.89643425      11.48189919      -0.02340011       0.02803781      -0.03227609
Li       4.16049652       5.89643429      15.75760693      -0.01625204       0.02803862      -0.03640247
Li       9.41462469       8.93927716      16.30660851       0.01863555      -0.03140733       0.03227755
Li       6.94604363       1.95707577      12.03090064       0.02101800      -0.02466872       0.03640348
Li      11.56623942       5.89643433      16.30660841      -0.02339961       0.02803864       0.03227745
Li       4.16049651       5.89643423      12.03090070      -0.01625228       0.02803857       0.03640323
Li       6.94604364       1.95707582      15.75760691       0.02101789      -0.02466894      -0.03640250
Li       9.41462461       8.93927711      11.48189921       0.01863515      -0.03140768      -0.03227617
Li      10.17346584       1.95707581      13.89425378      -0.04203475      -0.02466941       0.00000105
Li       5.23630392       8.93927712      13.89425387      -0.03727037      -0.03140748       0.00000102
Li       8.33881720       5.89643422       9.61854604       0.03965187       0.02803827       0.00412602
Li       8.33881720       5.89643433      18.16996154       0.03965177       0.02803887      -0.00412717
Li      13.27015945       6.25040487      13.89425390      -0.01255872       0.04431248      -0.00000010
Li       4.25046012       3.00552931      16.45234973      -0.01251654      -0.00885040      -0.04343428
Li      10.31632462      10.42775811      13.89425392       0.03759313      -0.02661279      -0.00000047
Li       4.25046005       3.00552922      11.33615772      -0.01251713      -0.00885086       0.04343113
Li      12.12292275       3.00552928      15.88132624      -0.03135534      -0.00885013       0.03255475
Li       5.39769684       6.25040477       9.34908534       0.00627888       0.04431246       0.01087428
Li       7.69217042       3.00552930      18.43942235       0.04387142      -0.00885098      -0.01087651
Li       6.87461428      10.42775807      11.90718149      -0.01879597      -0.02661210      -0.03255660
Li      12.12292273       3.00552923      11.90718142      -0.03135496      -0.00885088      -0.03255664
Li       6.87461429      10.42775817      15.88132631      -0.01879629      -0.02661289       0.03255520
Li       7.69217039       3.00552923       9.34908535       0.04387093      -0.00885099       0.01087485
Li       5.39769686       6.25040488      18.43942241       0.00627859       0.04431248      -0.01087624
Sn      10.87765650       7.69166477      13.89425388      -0.03497732      -0.02473149      -0.00000031
Sn       5.16604554       3.65294594      13.89425378       0.03497645       0.02473189       0.00000161
Sn       9.44975377       3.65294602      16.36745394      -0.01748787       0.02473232      -0.03029167
Sn       6.59394831       7.69166474      11.42105375       0.01748843      -0.02473124       0.03029116
Sn       9.44975366       3.65294590      11.42105365      -0.01748689       0.02473157       0.03028991
Sn       6.59394836       7.69166484      16.36745401       0.01748844      -0.02473208      -0.03029221
Sn      12.03277663       2.84110703      20.84138066       0.00000017       0.00518107      -0.00000116
Sn      14.70439157      10.39757507      25.46875355      -0.00244133      -0.00172909      -0.00423108
Sn       6.68954677      10.39757500      20.84138078       0.00488641      -0.00172906      -0.00000186
Sn      14.70439150      10.39757495      16.21400786      -0.00244134      -0.00172828       0.00422695
Sn      13.46740975       6.47958054      23.32623822      -0.00899712       0.01272360      -0.01558370
Sn      10.59814349      10.53733555      18.35652340       0.00899560      -0.01272292       0.01558113
Sn      13.46740962       6.47958052      18.35652345      -0.00899718       0.01272205       0.01558163
Sn      10.59814350      10.53733565      23.32623820       0.00899659      -0.01272244      -0.01558392
Sn      14.90204277      10.53733561      20.84138081      -0.01798903      -0.01272223      -0.00000217
Sn       9.16351047       6.47958049      20.84138076       0.01799353       0.01272302      -0.00000030
Sn       4.01092552       5.86409510       6.94712688       0.00000141      -0.04822858       0.00000056
Sn       2.58353972       1.82683856       4.47482221       0.02273417       0.01607595       0.03937864
Sn       6.86569704       1.82683857       6.94712687      -0.04546851       0.01607687       0.00000081
Sn       2.58353979       1.82683859       9.41943156       0.02273556       0.01607768      -0.03937832
4
Lattice="3.8289750742259003 -0.7511267496708864 -2.519371685268824 -1.1699194748711716 3.4613238687615544 -2.8675775211320134 0.32875942399993513 0.7511267461074979 4.571673700738265" Properties=species:S:1:pos:R:3:forces:R:3 structure_index=4 total_energy=-11.110490798950195 stress="0.07928909361362457 0.02508324570953846 -0.009616960771381855 0.0250837579369545 -0.0012837994145229459 -0.05081650987267494 -0.009617417119443417 -0.05081665888428688 0.09402413666248322" pbc="T T T"
Li       0.64158590       1.42331075       3.06447909       0.01342038       0.01214366      -0.02339545
Li       1.98164186       2.78913986       0.34967576      -0.01040982      -0.01214330       0.02488239
Li       3.06163017       1.35509865      -1.83849040       0.00032813      -0.00000184       0.00016091
Sn       1.73308117      -0.00000009       0.85546732      -0.00333867       0.00000146      -0.00164786
6
Lattice="5.453016941140913 6.951401853957291e-08 3.1483007084737933 1.817672385635847 5.141153628417537 3.1483006974167895 9.854474966051182e-10 -1.2845192317785732e-08 6.2966014152407395" Properties=species:S:1:pos:R:3:forces:R:3 structure_index=5 total_energy=-20.719738006591797 stress="0.01986166462302208 -1.2110731084646886e-08 -1.7060132222468383e-06 -1.5937206399030401e-07 0.0198633074760437 2.1559501419687876e-06 -2.2246069875109242e-06 1.8320092749490868e-06 0.019864775240421295" pbc="T T T"
Li       0.00000000      -0.00000000       0.00000000       0.00000021       0.00000029      -0.00000065
Sn       1.81767232       1.28528842       3.14830071      -0.00000013      -0.00000097      -0.00000234
Sn       4.54540228       3.21408475       7.87286737      -0.02004860      -0.01417729      -0.03472616
Sn       4.54540227       3.21408475       4.72033545      -0.02004732      -0.01417532       0.03472582
Sn       1.81522948       3.21408471       6.29660141       0.04009609      -0.01417669       0.00000027
Sn       3.63534464       0.64005317       6.29660141      -0.00000028       0.04252999       0.00000310
24
Lattice="7.83088111818895 1.0635325869835525e-07 4.5211617771334724 2.6102937259892625 7.38302573008503 4.521161916294298 -9.283263144926901e-09 1.638722490784845e-07 9.042323570346037" Properties=species:S:1:pos:R:3:forces:R:3 structure_index=6 total_energy=-68.42330932617188 stress="0.009463729336857796 2.2978354081715224e-06 1.916681867442094e-06 2.271949142595986e-06 0.00946132279932499 -6.621760917369102e-07 1.7022283600454102e-06 -6.413415007955336e-07 0.009469385258853436" pbc="T T T"
Li       3.91544053       0.00000015       6.78174269       0.00000046       0.00000111      -0.00000031
Li       3.91544056       0.00000006       2.26058088       0.00000130      -0.00000080      -0.00000139
Li      -0.00000000       0.00000008       4.52116178      -0.00000025       0.00000086      -0.00000115
Li       5.22058742       3.69151303       9.04232361       0.00000031      -0.00000035      -0.00000043
Li       4.85804716       6.20379301      13.56348548       0.00885824       0.00626342      -0.00000026
Li       9.31729814       6.20379297      10.98893544      -0.00442955       0.00626360       0.00767134
Li       9.31729812       6.20379309      16.13803546      -0.00443013       0.00626371      -0.00767099
Li       3.73417044       3.02498945       6.46777362       0.00442894      -0.00626310       0.00767270
Li       3.73417042       3.02498954      11.61687364       0.00442888      -0.00626475      -0.00767346
Li       8.19342141       3.02498946       9.04232362      -0.00885820      -0.00626508      -0.00000035
Li       5.58312768       1.17923300       4.52116179      -0.00885773      -0.00626370       0.00000077
Li       1.12387672       1.17923302       7.09571183       0.00443048      -0.00626391      -0.00767157
Li       1.12387670       1.17923293       1.94661180       0.00443013      -0.00626414       0.00767096
Li       6.70700439       4.35803654      11.61687362      -0.00442912       0.00626396      -0.00767248
Li       6.70700441       4.35803649       6.46777365      -0.00442958       0.00626338       0.00767380
Li       2.24775343       4.35803651       9.04232364       0.00885909       0.00626500      -0.00000045
Sn       7.83088112       6.26272885      13.56348551       0.00000022      -0.04082877       0.00000057
Sn       3.29426333       1.60393677       9.04232359      -0.03849439       0.01361148       0.00000185
Sn       6.18374948       1.60393678       7.37407783       0.01924583       0.01360928      -0.03333577
Sn       6.18374945       1.60393682      10.71056936       0.01924504       0.01361015       0.03333598
Sn       2.61029369       1.12029712       4.52116178      -0.00000028       0.04082925       0.00000284
Sn       7.14691151       5.77908919       9.04232366       0.03849350      -0.01361018      -0.00000234
Sn       4.25742538       5.77908922      10.71056944      -0.01924637      -0.01361042       0.03333560
Sn       4.25742540       5.77908917       7.37407790      -0.01924682      -0.01361000      -0.03333543
2
Lattice="3.3384630600843583 3.2658005027390363e-09 -2.2370358070190897e-08 -1.6692315272139098 2.8911934989238373 3.4493417064673275e-08 -3.151913940283849e-08 3.7921038186524376e-08 4.595601544822697" Properties=species:S:1:pos:R:3:forces:R:3 structure_index=7 total_energy=-6.265839099884033 stress="0.154275581240654 -4.050872917105153e-07 -3.195214759443843e-08 -3.356696254286362e-07 0.15428116917610168 -3.0600764944210823e-07 -4.78017696536881e-08 -3.2896554102990194e-07 0.01064680889248848" pbc="T T T"
Li       0.00000000       0.00000001       0.00000001       0.00000003       0.00000007      -0.00000003
Sn       1.66923151       0.96373118       2.29780076      -0.00000003      -0.00000007       0.00000003
8
Lattice="5.160914762299278 -5.4748064281655576e-08 2.979655553429295 1.7203048711946403 4.865757104274984 2.9796555498869317 -6.579597287260711e-09 -8.990968912857824e-09 5.959311118254786" Properties=species:S:1:pos:R:3:forces:R:3 structure_index=8 total_energy=-18.622604370117188 stress="0.045710571110248566 6.43787984699884e-07 -6.282006665969675e-07 8.671831324136292e-07 0.045710351318120956 -3.0815706963949197e-07 -6.479858143393358e-07 -3.7763385307698627e-07 0.04571179300546646" pbc="T T T"
Li       2.58045738      -0.00000003       1.48982778       0.00000011       0.00000022       0.00000005
Li       0.86015244       2.43287855       1.48982777       0.00000035       0.00000013      -0.00000010
Li      -0.00000000      -0.00000000       2.97965556       0.00000019      -0.00000031       0.00000020
Li       0.86015243       2.43287855       4.46948333      -0.00000005       0.00000016       0.00000001
Li       2.58045738      -0.00000003       4.46948334      -0.00000017      -0.00000010      -0.00000025
Li       3.44060982       2.43287853       2.97965555      -0.00000016      -0.00000010      -0.00000009
Li       3.44060981       2.43287852       5.95931111      -0.00000020       0.00000012       0.00000020
Sn       0.00000000      -0.00000000       0.00000000      -0.00000008      -0.00000012      -0.00000001
6
Lattice="3.2928316834466806 0.07836693740076592 -13.361364422392931 0.0275206690173444 3.2936499696953763 -13.361364510538309 -0.07716593942494224 -0.0783669704910533 13.76091734983092" Properties=species:S:1:pos:R:3:forces:R:3 structure_index=9 total_energy=-20.177108764648438 stress="0.008153269998729229 -0.000343689025612548 0.0027242142241448164 -0.00034369633067399263 0.008125148713588715 0.0027638052124530077 0.0027243774384260178 0.0027636585291475058 -0.0134260393679142" pbc="T T T"
Li      -0.00000005       0.00000002      -0.00000003       0.00000029      -0.00000004       0.00000107
Li       2.43792099       0.84300424      -6.48090573       0.00000029      -0.00000083       0.00000001
Sn       1.41304224       1.43502908     -11.37239058      -0.00525580      -0.00533768       0.04229983
Sn       1.05239940       2.70162506      -8.46987969       0.00525541       0.00533818      -0.04230051
Sn       1.90731015       1.93698780     -15.35033825       0.00525560       0.00533845      -0.04230438
Sn       0.55813149       2.19966637      -4.49193206      -0.00525579      -0.00533808       0.04230399
6
Lattice="4.552813771008297 0.10280872137152672 2.2367924926758715 3.4870152082859067 2.9290627749939313 2.236792559594301 -0.0059391652947242786 -0.0022395478840818404 8.934693451670864" Properties=species:S:1:pos:R:3:forces:R:3 structure_index=10 total_energy=-17.6031436920166 stress="-0.0032162750139832497 -0.006891909055411816 0.0004758489376399666 -0.006891806609928608 0.012465978041291237 0.00017776827735360712 0.0004755363042932004 0.00017769687110558152 0.057017236948013306" pbc="T T T"
Li       6.71744187       2.53319070       4.47318048       0.04783756       0.01804044      -0.00055601
Li       1.31644802       0.49644119       8.93509814      -0.04783820      -0.01804021       0.00055523
Li       6.71329386       2.53162659       8.93903725       0.04915223       0.01853574       0.00127892
Li       1.32059588       0.49800525       4.46924140      -0.04915211      -0.01853566      -0.00128008
Sn       4.01427604       1.51380971       8.93727900       0.00174082       0.00065622       0.00054667
Sn       4.01961378       1.51582241       4.47099924      -0.00174033      -0.00065654      -0.00054472
2
Lattice="3.4547203275862013 3.5629598657087316e-09 6.131969476276333e-09 3.562960421270133e-09 3.4547202945019726 -7.852736017648343e-09 6.131969264735725e-09 -7.852736229188953e-09 3.454720303434715" Properties=species:S:1:pos:R:3:forces:R:3 structure_index=11 total_energy=-6.3817548751831055 stress="-0.17809399962425232 -4.0279203972204414e-07 -4.880953952124401e-07 -4.481611881601566e-07 -0.17809323966503143 -1.007141690934077e-06 -4.5879346544097643e-07 -9.508331686447491e-07 -0.17809291183948517" pbc="T T T"
Li      -0.00000001      -0.00000001      -0.00000001      -0.00000001       0.00000005       0.00000004
Sn       1.72736018       1.72736015       1.72736016       0.00000001      -0.00000005      -0.00000004
4
Lattice="3.3351942689116623 1.6096938958069784e-08 -7.405975013654777e-09 -1.6675971205154723 2.8883626820053547 -7.701172917448859e-10 -2.0720071616018047e-08 -1.4450652875087985e-08 9.257924139179364" Properties=species:S:1:pos:R:3:forces:R:3 structure_index=12 total_energy=-12.51527214050293 stress="0.06413374841213226 8.894471648090985e-07 -7.813945899215469e-07 7.520038138864038e-07 0.06413822621107101 -9.424652347433948e-08 -8.517775427208107e-07 -1.2593571341312781e-07 0.048688966780900955" pbc="T T T"
Li       1.66759713       0.96278757       2.31448101      -0.00000012      -0.00000019      -0.00000078
Li      -0.00000001       1.92557512       6.94344306      -0.00000008       0.00000014      -0.00000149
Sn       0.00000000      -0.00000000       0.00000004       0.00000010       0.00000005       0.00000202
Sn      -0.00000001      -0.00000001       4.62896209       0.00000009      -0.00000001       0.00000024
3
Lattice="3.300600128366183 -0.05313026129724711 -3.9255192752107275 -0.47899961616975123 3.266089803468668 -3.9255194363741377 0.046658902429812986 0.05313028594429657 5.128497630991532" Properties=species:S:1:pos:R:3:forces:R:3 structure_index=13 total_energy=-8.665740966796875 stress="-0.017844494432210922 -0.009292895905673504 0.022714203223586082 -0.00929292757064104 -0.02027047611773014 0.025861067697405815 0.022714583203196526 0.025861255824565887 -0.07287907600402832" pbc="T T T"
Li       2.81228275       3.20234939      -7.82511223       0.01503023       0.01711691      -0.04182237
Li       0.94985129       1.08159664      -2.64293939      -0.01503095      -0.01711433       0.04182263
Sn       1.88106699       2.14197305      -5.23402581       0.00000072      -0.00000259      -0.00000029
12
Lattice="4.411645524931669 0.16737811773209793 -13.365763315979668 0.04470468042798839 4.414594212537018 -13.365764202056475 -0.1627865438737184 -0.16737800701409608 14.074081927664087" Properties=species:S:1:pos:R:3:forces:R:3 structure_index=14 total_energy=-38.01075744628906 stress="0.02416129969060421 -0.0010357641149312258 0.006042127497494221 -0.0010357641149312258 0.024095995351672173 0.006208470556885004 0.006043012719601393 0.006208432838320732 -0.011055553331971169" pbc="T T T"
Li       0.91129210       2.02913759      -5.46640797      -0.00315882      -0.00324824       0.01894717
Li       1.92163405       0.88364462       1.57063313      -0.00315931      -0.00324749       0.01894784
Li       3.38227147       2.38545673      -7.19103760       0.00315852       0.00324762      -0.01894831
Li       2.37192958       3.53094977     -14.22807867       0.00315921       0.00324766      -0.01894784
Li       2.65195282       1.63455069      -2.81020218       0.00000088       0.00000035      -0.00000034
Li       1.64161088       2.78004366      -9.84724335      -0.00000023       0.00000018      -0.00000006
Sn       0.46848235       3.75815868      -2.81020278      -0.00000148      -0.00000001      -0.00000068
Sn       3.82508129       0.65643565      -9.84724286       0.00000098      -0.00000077       0.00000140
Sn       0.15986773       1.25653090      -0.95896978      -0.00129140      -0.00132719       0.00774315
Sn       1.17020970       0.11103789       6.07807135      -0.00129199      -0.00132770       0.00774390
Sn       4.13369599       3.15806340     -11.69847602       0.00129130       0.00132794      -0.00774490
Sn       3.12335402       4.30355635     -18.73551680       0.00129234       0.00132766      -0.00774134
6
Lattice="4.551387907012053 0.09886252325545478 2.234349396244741 3.4865805157363576 2.92722800920648 2.2343494702185533 -0.0020459232323528174 -0.0007700719347487422 8.93315283954182" Properties=species:S:1:pos:R:3:forces:R:3 structure_index=15 total_energy=-17.60470199584961 stress="-0.009640203788876534 -0.02722303755581379 4.9786362069426104e-05 -0.02722311206161976 0.05242085084319115 1.663212970015593e-05 4.985772102372721e-05 1.667788455961272e-05 0.041043587028980255" pbc="T T T"
Li       0.24838209       0.09350974       8.56058709       0.01576086       0.00593345      -0.00026901
Li       2.87058210       1.08070123       4.09472330      -0.00630450      -0.00237373      -0.00035723
Li       2.87397088       1.08197712       8.56211451      -0.01576107      -0.00593448       0.00027034
Li       0.25381677       0.09555569       4.09482555       0.00630483       0.00237289       0.00035754
Sn       5.58319979       2.10193253       8.56303969      -0.00353575      -0.00132938       0.00220776
Sn       5.57916786       2.10041463       4.09520804       0.00353563       0.00133125      -0.00220941
5
Lattice="3.4065504920061476 0.04306098055312764 11.73554613527197 1.704878622133253 2.9495474379558697 11.735546138099256 0.07354908539442077 0.04306108054702429 12.219746945236269" Properties=species:S:1:pos:R:3:forces:R:3 structure_index=16 total_energy=-16.220510482788086 stress="-0.05343113839626312 0.0006422230508178473 0.007540686056017876 0.0006422815495170653 -0.05414501205086708 0.004414172377437353 0.007541358005255461 0.004414155147969723 -0.0026115437503904104" pbc="T T T"
Li       2.05864806       1.20528476      14.17072051      -0.00616111      -0.00360727      -0.04240832
Li       3.12632995       1.83038465      21.52011749       0.00616117       0.00360715       0.04241316