phonopy:
  version: "2.37.1"
  frequency_unit_conversion_factor: 15.633302
  symmetry_tolerance: 1.00000e-05

space_group:
  type: "P1"
  number: 1
  Hall_symbol: "P 1"

primitive_matrix:
- [  1.000000000000000, -0.000000000000000, -0.000000000000000 ]
- [  0.000000000000000,  1.000000000000000,  0.000000000000000 ]
- [  0.000000000000000,  0.000000000000000,  1.000000000000000 ]

supercell_matrix:
- [   3,   0,   0 ]
- [   0,   3,   0 ]
- [   0,   0,   1 ]

primitive_cell:
  lattice:
  - [     4.451213791072036,     0.000000000000000,     0.000000000000000 ] # a
  - [     0.000487001405923,     4.466761083927661,     0.000000000000000 ] # b
  - [     2.222229160168850,     0.000382421531516,    10.141911287254457 ] # c
  points:
  - symbol: Li # 1
    coordinates: [  0.952146187888843,  0.259487123591479,  0.662071989159540 ]
    mass: 6.940000
  - symbol: Li # 2
    coordinates: [  0.155409803505041,  0.259548733286937,  0.258804345607331 ]
    mass: 6.940000
  - symbol: Li # 3
    coordinates: [  0.652871361728649,  0.759517189034861,  0.263586663084540 ]
    mass: 6.940000
  - symbol: Li # 4
    coordinates: [  0.256355632696408,  0.759654168876225,  0.056262150348500 ]
    mass: 6.940000
  - symbol: Li # 5
    coordinates: [  0.449753279910159,  0.759453622331511,  0.666928131154747 ]
    mass: 6.940000
  - symbol: Li # 6
    coordinates: [  0.349249834547325,  0.259613209185695,  0.869420628182997 ]
    mass: 6.940000
  - symbol: Sn # 7
    coordinates: [  0.549684657896271,  0.259406472725625,  0.468021150403244 ]
    mass: 118.710000
  - symbol: Sn # 8
    coordinates: [  0.854005348659089,  0.759633914352325,  0.859474506056109 ]
    mass: 118.710000
  - symbol: Sn # 9
    coordinates: [  0.751515250529878,  0.259651616674626,  0.066242652093729 ]
    mass: 118.710000
  - symbol: Sn # 10
    coordinates: [  0.055096883355176,  0.759426147358287,  0.457677181356600 ]
    mass: 118.710000
  reciprocal_lattice: # without 2pi
  - [     0.224657822997794,    -0.000024493961865,    -0.049225549486529 ] # a*
  - [     0.000000000000000,     0.223875864683743,    -0.000008441697883 ] # b*
  - [     0.000000000000000,     0.000000000000000,     0.098600744147380 ] # c*

unit_cell:
  lattice:
  - [     4.451213791072036,     0.000000000000000,     0.000000000000000 ] # a
  - [     0.000487001405923,     4.466761083927661,     0.000000000000000 ] # b
  - [     2.222229160168850,     0.000382421531515,    10.141911287254457 ] # c
  points:
  - symbol: Li # 1
    coordinates: [  0.952146187888843,  0.259487123591479,  0.662071989159540 ]
    mass: 6.940000
    reduced_to: 1
  - symbol: Li # 2
    coordinates: [  0.155409803505041,  0.259548733286937,  0.258804345607331 ]
    mass: 6.940000
    reduced_to: 2
  - symbol: Li # 3
    coordinates: [  0.652871361728649,  0.759517189034861,  0.263586663084540 ]
    mass: 6.940000
    reduced_to: 3
  - symbol: Li # 4
    coordinates: [  0.256355632696408,  0.759654168876225,  0.056262150348500 ]
    mass: 6.940000
    reduced_to: 4
  - symbol: Li # 5
    coordinates: [  0.449753279910159,  0.759453622331511,  0.666928131154747 ]
    mass: 6.940000
    reduced_to: 5
  - symbol: Li # 6
    coordinates: [  0.349249834547325,  0.259613209185695,  0.869420628182997 ]
    mass: 6.940000
    reduced_to: 6
  - symbol: Sn # 7
    coordinates: [  0.549684657896271,  0.259406472725626,  0.468021150403244 ]
    mass: 118.710000
    reduced_to: 7
  - symbol: Sn # 8
    coordinates: [  0.854005348659089,  0.759633914352325,  0.859474506056109 ]
    mass: 118.710000
    reduced_to: 8
  - symbol: Sn # 9
    coordinates: [  0.751515250529878,  0.259651616674626,  0.066242652093729 ]
    mass: 118.710000
    reduced_to: 9
  - symbol: Sn # 10
    coordinates: [  0.055096883355176,  0.759426147358287,  0.457677181356600 ]
    mass: 118.710000
    reduced_to: 10

supercell:
  lattice:
  - [    13.353641373216110,     0.000000000000000,     0.000000000000000 ] # a
  - [     0.001461004217770,    13.400283251782984,     0.000000000000000 ] # b
  - [     2.222229160168850,     0.000382421531515,    10.141911287254457 ] # c
  points:
  - symbol: Li # 1
    coordinates: [  0.317382062629614,  0.086495707863826,  0.662071989159540 ]
    mass: 6.940000
    reduced_to: 1
  - symbol: Li # 2
    coordinates: [  0.650715395962947,  0.086495707863826,  0.662071989159540 ]
    mass: 6.940000
    reduced_to: 1
  - symbol: Li # 3
    coordinates: [  0.984048729296281,  0.086495707863826,  0.662071989159540 ]
    mass: 6.940000
    reduced_to: 1
  - symbol: Li # 4
    coordinates: [  0.317382062629614,  0.419829041197160,  0.662071989159540 ]
    mass: 6.940000
    reduced_to: 1
  - symbol: Li # 5
    coordinates: [  0.650715395962947,  0.419829041197160,  0.662071989159540 ]
    mass: 6.940000
    reduced_to: 1
  - symbol: Li # 6
    coordinates: [  0.984048729296281,  0.419829041197160,  0.662071989159540 ]
    mass: 6.940000
    reduced_to: 1
  - symbol: Li # 7
    coordinates: [  0.317382062629614,  0.753162374530493,  0.662071989159540 ]
    mass: 6.940000
    reduced_to: 1
  - symbol: Li # 8
    coordinates: [  0.650715395962947,  0.753162374530493,  0.662071989159540 ]
    mass: 6.940000
    reduced_to: 1
  - symbol: Li # 9
    coordinates: [  0.984048729296281,  0.753162374530493,  0.662071989159540 ]
    mass: 6.940000
    reduced_to: 1
  - symbol: Li # 10
    coordinates: [  0.051803267835014,  0.086516244428979,  0.258804345607331 ]
    mass: 6.940000
    reduced_to: 10
  - symbol: Li # 11
    coordinates: [  0.385136601168347,  0.086516244428979,  0.258804345607331 ]
    mass: 6.940000
    reduced_to: 10
  - symbol: Li # 12
    coordinates: [  0.718469934501680,  0.086516244428979,  0.258804345607331 ]
    mass: 6.940000
    reduced_to: 10
  - symbol: Li # 13
    coordinates: [  0.051803267835014,  0.419849577762312,  0.258804345607331 ]
    mass: 6.940000
    reduced_to: 10
  - symbol: Li # 14
    coordinates: [  0.385136601168347,  0.419849577762312,  0.258804345607331 ]
    mass: 6.940000
    reduced_to: 10
  - symbol: Li # 15
    coordinates: [  0.718469934501680,  0.419849577762312,  0.258804345607331 ]
    mass: 6.940000
    reduced_to: 10
  - symbol: Li # 16
    coordinates: [  0.051803267835014,  0.753182911095646,  0.258804345607331 ]
    mass: 6.940000
    reduced_to: 10
  - symbol: Li # 17
    coordinates: [  0.385136601168347,  0.753182911095646,  0.258804345607331 ]
    mass: 6.940000
    reduced_to: 10
  - symbol: Li # 18
    coordinates: [  0.718469934501680,  0.753182911095646,  0.258804345607331 ]
    mass: 6.940000
    reduced_to: 10
  - symbol: Li # 19
    coordinates: [  0.217623787242883,  0.253172396344954,  0.263586663084540 ]
    mass: 6.940000
    reduced_to: 19
  - symbol: Li # 20
    coordinates: [  0.550957120576216,  0.253172396344954,  0.263586663084540 ]
    mass: 6.940000
    reduced_to: 19
  - symbol: Li # 21
    coordinates: [  0.884290453909550,  0.253172396344954,  0.263586663084540 ]
    mass: 6.940000
    reduced_to: 19
  - symbol: Li # 22
    coordinates: [  0.217623787242883,  0.586505729678287,  0.263586663084540 ]
    mass: 6.940000
    reduced_to: 19
  - symbol: Li # 23
    coordinates: [  0.550957120576216,  0.586505729678287,  0.263586663084540 ]
    mass: 6.940000
    reduced_to: 19
  - symbol: Li # 24
    coordinates: [  0.884290453909550,  0.586505729678287,  0.263586663084540 ]
    mass: 6.940000
    reduced_to: 19
  - symbol: Li # 25
    coordinates: [  0.217623787242883,  0.919839063011620,  0.263586663084540 ]
    mass: 6.940000
    reduced_to: 19
  - symbol: Li # 26
    coordinates: [  0.550957120576216,  0.919839063011620,  0.263586663084540 ]
    mass: 6.940000
    reduced_to: 19
  - symbol: Li # 27
    coordinates: [  0.884290453909550,  0.919839063011620,  0.263586663084540 ]
    mass: 6.940000
    reduced_to: 19
  - symbol: Li # 28
    coordinates: [  0.085451877565469,  0.253218056292075,  0.056262150348500 ]
    mass: 6.940000
    reduced_to: 28
  - symbol: Li # 29
    coordinates: [  0.418785210898802,  0.253218056292075,  0.056262150348500 ]
    mass: 6.940000
    reduced_to: 28
  - symbol: Li # 30
    coordinates: [  0.752118544232136,  0.253218056292075,  0.056262150348500 ]
    mass: 6.940000
    reduced_to: 28
  - symbol: Li # 31
    coordinates: [  0.085451877565469,  0.586551389625408,  0.056262150348500 ]
    mass: 6.940000
    reduced_to: 28
  - symbol: Li # 32
    coordinates: [  0.418785210898802,  0.586551389625408,  0.056262150348500 ]
    mass: 6.940000
    reduced_to: 28
  - symbol: Li # 33
    coordinates: [  0.752118544232136,  0.586551389625408,  0.056262150348500 ]
    mass: 6.940000
    reduced_to: 28
  - symbol: Li # 34
    coordinates: [  0.085451877565469,  0.919884722958742,  0.056262150348500 ]
    mass: 6.940000
    reduced_to: 28
  - symbol: Li # 35
    coordinates: [  0.418785210898802,  0.919884722958742,  0.056262150348500 ]
    mass: 6.940000
    reduced_to: 28
  - symbol: Li # 36
    coordinates: [  0.752118544232136,  0.919884722958742,  0.056262150348500 ]
    mass: 6.940000
    reduced_to: 28
  - symbol: Li # 37
    coordinates: [  0.149917759970053,  0.253151207443837,  0.666928131154747 ]
    mass: 6.940000
    reduced_to: 37
  - symbol: Li # 38
    coordinates: [  0.483251093303386,  0.253151207443837,  0.666928131154747 ]
    mass: 6.940000
    reduced_to: 37
  - symbol: Li # 39
    coordinates: [  0.816584426636719,  0.253151207443837,  0.666928131154747 ]
    mass: 6.940000
    reduced_to: 37
  - symbol: Li # 40
    coordinates: [  0.149917759970053,  0.586484540777170,  0.666928131154747 ]
    mass: 6.940000
    reduced_to: 37
  - symbol: Li # 41
    coordinates: [  0.483251093303386,  0.586484540777170,  0.666928131154747 ]
    mass: 6.940000
    reduced_to: 37
  - symbol: Li # 42
    coordinates: [  0.816584426636719,  0.586484540777170,  0.666928131154747 ]
    mass: 6.940000
    reduced_to: 37
  - symbol: Li # 43
    coordinates: [  0.149917759970053,  0.919817874110504,  0.666928131154747 ]
    mass: 6.940000
    reduced_to: 37
  - symbol: Li # 44
    coordinates: [  0.483251093303386,  0.919817874110504,  0.666928131154747 ]
    mass: 6.940000
    reduced_to: 37
  - symbol: Li # 45
    coordinates: [  0.816584426636719,  0.919817874110504,  0.666928131154747 ]
    mass: 6.940000
    reduced_to: 37
  - symbol: Li # 46
    coordinates: [  0.116416611515775,  0.086537736395232,  0.869420628182997 ]
    mass: 6.940000
    reduced_to: 46
  - symbol: Li # 47
    coordinates: [  0.449749944849108,  0.086537736395232,  0.869420628182997 ]
    mass: 6.940000
    reduced_to: 46
  - symbol: Li # 48
    coordinates: [  0.783083278182442,  0.086537736395232,  0.869420628182997 ]
    mass: 6.940000
    reduced_to: 46
  - symbol: Li # 49
    coordinates: [  0.116416611515775,  0.419871069728565,  0.869420628182997 ]
    mass: 6.940000
    reduced_to: 46
  - symbol: Li # 50
    coordinates: [  0.449749944849108,  0.419871069728565,  0.869420628182997 ]
    mass: 6.940000
    reduced_to: 46
  - symbol: Li # 51
    coordinates: [  0.783083278182442,  0.419871069728565,  0.869420628182997 ]
    mass: 6.940000
    reduced_to: 46
  - symbol: Li # 52
    coordinates: [  0.116416611515775,  0.753204403061898,  0.869420628182997 ]
    mass: 6.940000
    reduced_to: 46
  - symbol: Li # 53
    coordinates: [  0.449749944849108,  0.753204403061898,  0.869420628182997 ]
    mass: 6.940000
    reduced_to: 46
  - symbol: Li # 54
    coordinates: [  0.783083278182442,  0.753204403061898,  0.869420628182997 ]
    mass: 6.940000
    reduced_to: 46
  - symbol: Sn # 55
    coordinates: [  0.183228219298757,  0.086468824241875,  0.468021150403244 ]
    mass: 118.710000
    reduced_to: 55
  - symbol: Sn # 56
    coordinates: [  0.516561552632090,  0.086468824241875,  0.468021150403244 ]
    mass: 118.710000
    reduced_to: 55
  - symbol: Sn # 57
    coordinates: [  0.849894885965424,  0.086468824241875,  0.468021150403244 ]
    mass: 118.710000
    reduced_to: 55
  - symbol: Sn # 58
    coordinates: [  0.183228219298757,  0.419802157575209,  0.468021150403244 ]
    mass: 118.710000
    reduced_to: 55
  - symbol: Sn # 59
    coordinates: [  0.516561552632090,  0.419802157575209,  0.468021150403244 ]
    mass: 118.710000
    reduced_to: 55
  - symbol: Sn # 60
    coordinates: [  0.849894885965424,  0.419802157575209,  0.468021150403244 ]
    mass: 118.710000
    reduced_to: 55
  - symbol: Sn # 61
    coordinates: [  0.183228219298757,  0.753135490908542,  0.468021150403244 ]
    mass: 118.710000
    reduced_to: 55
  - symbol: Sn # 62
    coordinates: [  0.516561552632090,  0.753135490908542,  0.468021150403244 ]
    mass: 118.710000
    reduced_to: 55
  - symbol: Sn # 63
    coordinates: [  0.849894885965424,  0.753135490908542,  0.468021150403244 ]
    mass: 118.710000
    reduced_to: 55
  - symbol: Sn # 64
    coordinates: [  0.284668449553030,  0.253211304784108,  0.859474506056109 ]
    mass: 118.710000
    reduced_to: 64
  - symbol: Sn # 65
    coordinates: [  0.618001782886363,  0.253211304784108,  0.859474506056109 ]
    mass: 118.710000
    reduced_to: 64
  - symbol: Sn # 66
    coordinates: [  0.951335116219696,  0.253211304784108,  0.859474506056109 ]
    mass: 118.710000
    reduced_to: 64
  - symbol: Sn # 67
    coordinates: [  0.284668449553030,  0.586544638117442,  0.859474506056109 ]
    mass: 118.710000
    reduced_to: 64
  - symbol: Sn # 68
    coordinates: [  0.618001782886363,  0.586544638117442,  0.859474506056109 ]
    mass: 118.710000
    reduced_to: 64
  - symbol: Sn # 69
    coordinates: [  0.951335116219696,  0.586544638117442,  0.859474506056109 ]
    mass: 118.710000
    reduced_to: 64
  - symbol: Sn # 70
    coordinates: [  0.284668449553030,  0.919877971450775,  0.859474506056109 ]
    mass: 118.710000
    reduced_to: 64
  - symbol: Sn # 71
    coordinates: [  0.618001782886363,  0.919877971450775,  0.859474506056109 ]
    mass: 118.710000
    reduced_to: 64
  - symbol: Sn # 72
    coordinates: [  0.951335116219696,  0.919877971450775,  0.859474506056109 ]
    mass: 118.710000
    reduced_to: 64
  - symbol: Sn # 73
    coordinates: [  0.250505083509959,  0.086550538891542,  0.066242652093729 ]
    mass: 118.710000
    reduced_to: 73
  - symbol: Sn # 74
    coordinates: [  0.583838416843293,  0.086550538891542,  0.066242652093729 ]
    mass: 118.710000
    reduced_to: 73
  - symbol: Sn # 75
    coordinates: [  0.917171750176626,  0.086550538891542,  0.066242652093729 ]
    mass: 118.710000
    reduced_to: 73
  - symbol: Sn # 76
    coordinates: [  0.250505083509959,  0.419883872224875,  0.066242652093729 ]
    mass: 118.710000
    reduced_to: 73
  - symbol: Sn # 77
    coordinates: [  0.583838416843293,  0.419883872224875,  0.066242652093729 ]
    mass: 118.710000
    reduced_to: 73
  - symbol: Sn # 78
    coordinates: [  0.917171750176626,  0.419883872224875,  0.066242652093729 ]
    mass: 118.710000
    reduced_to: 73
  - symbol: Sn # 79
    coordinates: [  0.250505083509959,  0.753217205558209,  0.066242652093729 ]
    mass: 118.710000
    reduced_to: 73
  - symbol: Sn # 80
    coordinates: [  0.583838416843293,  0.753217205558209,  0.066242652093729 ]
    mass: 118.710000
    reduced_to: 73
  - symbol: Sn # 81
    coordinates: [  0.917171750176626,  0.753217205558209,  0.066242652093729 ]
    mass: 118.710000
    reduced_to: 73
  - symbol: Sn # 82
    coordinates: [  0.018365627785059,  0.253142049119429,  0.457677181356600 ]
    mass: 118.710000
    reduced_to: 82
  - symbol: Sn # 83
    coordinates: [  0.351698961118392,  0.253142049119429,  0.457677181356600 ]
    mass: 118.710000
    reduced_to: 82
  - symbol: Sn # 84
    coordinates: [  0.685032294451725,  0.253142049119429,  0.457677181356600 ]
    mass: 118.710000
    reduced_to: 82
  - symbol: Sn # 85
    coordinates: [  0.018365627785059,  0.586475382452762,  0.457677181356600 ]
    mass: 118.710000
    reduced_to: 82
  - symbol: Sn # 86
    coordinates: [  0.351698961118392,  0.586475382452762,  0.457677181356600 ]
    mass: 118.710000
    reduced_to: 82
  - symbol: Sn # 87
    coordinates: [  0.685032294451725,  0.586475382452762,  0.457677181356600 ]
    mass: 118.710000
    reduced_to: 82
  - symbol: Sn # 88
    coordinates: [  0.018365627785059,  0.919808715786096,  0.457677181356600 ]
    mass: 118.710000
    reduced_to: 82
  - symbol: Sn # 89
    coordinates: [  0.351698961118392,  0.919808715786096,  0.457677181356600 ]
    mass: 118.710000
    reduced_to: 82
  - symbol: Sn # 90
    coordinates: [  0.685032294451725,  0.919808715786096,  0.457677181356600 ]
    mass: 118.710000
    reduced_to: 82

displacements:
- atom:    1
  displacement:
    [   0.0100000000000000,  0.0000000000000000,  0.0000000000000000 ]
  forces:
  - [  -0.0132699459791183,  0.0000376424286515,  0.0006093140691519 ]
  - [   0.0031838179565966,  0.0000355236697942,  0.0009540691971779 ]
  - [   0.0031905211508274,  0.0000350552145392,  0.0001887548714876 ]
  - [   0.0030923115555197,  0.0000369390472770,  0.0005694031715393 ]
  - [   0.0029001724906266, -0.0001608571037650,  0.0005611833184958 ]
  - [   0.0029009312856942,  0.0002297619357705,  0.0005737338215113 ]
  - [   0.0030917776748538,  0.0000345231965184,  0.0005701668560505 ]
  - [   0.0028999331407249,  0.0002319968771189,  0.0005615781992674 ]
  - [   0.0029019140638411, -0.0001584736164659,  0.0005732607096434 ]
  - [  -0.0029166662134230, -0.0001432490535080,  0.0043621063232422 ]
  - [  -0.0021532240789384, -0.0001434928562958,  0.0050137415528297 ]
  - [  -0.0029631014913321, -0.0001438693725504,  0.0056740120053291 ]
  - [  -0.0021758766379207, -0.0001250691711903,  0.0050046071410179 ]
  - [  -0.0020758979953825, -0.0001475548488088,  0.0050172582268715 ]
  - [  -0.0021759637165815, -0.0001605653960723,  0.0050315856933594 ]
  - [  -0.0021761306561530, -0.0001629958860576,  0.0050048530101776 ]
  - [  -0.0020758491009474, -0.0001409449614584,  0.0050171911716461 ]
  - [  -0.0021768675651401, -0.0001274387468584,  0.0050321146845818 ]
  - [  -0.0022378116846085,  0.0003396660322323,  0.0001644324511290 ]
  - [  -0.0022290018387139, -0.0000331687551807,  0.0002550091594458 ]
  - [  -0.0024398299865425,  0.0001533928152639,  0.0002123042941093 ]
  - [  -0.0024137389846146,  0.0001541152596474,  0.0002018883824348 ]
  - [  -0.0024130684323609,  0.0001539548684377,  0.0002153888344765 ]
  - [  -0.0024104714393616,  0.0001535312912893,  0.0002138111740351 ]
  - [  -0.0022380703594536, -0.0000316204750561,  0.0001641139388084 ]
  - [  -0.0022281405981630,  0.0003419307467993,  0.0002558864653111 ]
  - [  -0.0024404707364738,  0.0001546029234305,  0.0002126991748810 ]
  - [  -0.0016105758259073, -0.0003517228760757, -0.0060344929806888 ]
  - [  -0.0016045236261562, -0.0003224124666303, -0.0056496243923903 ]
  - [  -0.0017367815598845, -0.0003511010436341, -0.0058386162854731 ]
  - [  -0.0017492738552392, -0.0003418218693696, -0.0058439755812287 ]
  - [  -0.0017548680771142, -0.0003419675049372, -0.0058371806517243 ]
  - [  -0.0017517136875540, -0.0003414459933992, -0.0058405520394444 ]
  - [  -0.0016106530092657, -0.0003332724154461, -0.0060352492146194 ]
  - [  -0.0016052918508649, -0.0003622468793765, -0.0056487563997507 ]
  - [  -0.0017368020489812, -0.0003333109198138, -0.0058384155854583 ]
  - [   0.0035689305514097, -0.0008996273390949, -0.0055959299206734 ]
  - [   0.0035962131805718,  0.0016878271708265, -0.0057521760463715 ]
  - [   0.0024517052806914,  0.0003799709083978, -0.0056705400347710 ]
  - [   0.0024555879645050,  0.0003796723613050, -0.0056572183966637 ]
  - [   0.0024559325538576,  0.0003796225646511, -0.0056844651699066 ]
  - [   0.0024509825743735,  0.0003790953487623, -0.0056710913777351 ]
  - [   0.0035663815215230,  0.0016561992233619, -0.0055965185165405 ]
  - [   0.0035957684740424, -0.0009287897264585, -0.0057522505521774 ]
  - [   0.0024501471780241,  0.0003791822819039, -0.0056700110435486 ]
  - [   0.0020784111693501, -0.0001429858675692,  0.0042839851230383 ]
  - [   0.0020777089521289, -0.0001419050822733,  0.0079928152263165 ]
  - [   0.0002924422733486, -0.0001425713562639,  0.0061280843801796 ]
  - [   0.0003704791888595, -0.0003616406756919,  0.0060780080966651 ]
  - [   0.0003692563623190,  0.0000741272524465,  0.0061824037693441 ]
  - [   0.0002268706448376, -0.0001429076073691,  0.0061287493444979 ]
  - [   0.0003708214499056,  0.0000768545141909,  0.0060788588598371 ]
  - [   0.0003681089729071, -0.0003608629922383,  0.0061828382313251 ]
  - [   0.0002275309525430, -0.0001425866794307,  0.0061294352635741 ]
  - [   0.0052771512418985,  0.0004978878423572, -0.0072288438677788 ]
  - [   0.0053189927712083,  0.0004966395208612, -0.0170911699533463 ]
  - [   0.0013688057661057,  0.0004986549029127, -0.0121296308934689 ]
  - [   0.0010240385308862,  0.0005320012569427, -0.0120961815118790 ]
  - [   0.0010233083739877,  0.0004617683589458, -0.0121631883084774 ]
  - [   0.0012990906834602,  0.0004967320710421, -0.0121327787637711 ]
  - [   0.0010211542248726,  0.0004625692963600, -0.0120965093374252 ]
  - [   0.0010216245427728,  0.0005320981144905, -0.0121645405888557 ]
  - [   0.0013016667217016,  0.0004981718957424, -0.0121336914598942 ]
  - [   0.0011905112769455, -0.0002831606252585, -0.0183925349265337 ]
  - [   0.0011812465963885, -0.0002370569563936, -0.0182800963521004 ]
  - [   0.0011775803286582, -0.0003613468143158, -0.0184478908777237 ]
  - [   0.0011149666970596, -0.0002898440288845, -0.0183751452714205 ]
  - [   0.0010967159178108, -0.0002899955143221, -0.0183710642158985 ]
  - [   0.0010978729696944, -0.0002898042439483, -0.0183694548904896 ]
  - [   0.0011890176683664, -0.0002973403607029, -0.0183950066566467 ]
  - [   0.0011836832854897, -0.0003447295457590, -0.0182824451476336 ]
  - [   0.0011793376179412, -0.0002211602986790, -0.0184491705149412 ]
  - [  -0.0022464399226010, -0.0004930380964652,  0.0181932877749205 ]
  - [  -0.0023315614089370, -0.0004924773238599,  0.0175169724971056 ]
  - [  -0.0022623464465141, -0.0004925925750285,  0.0182508081197739 ]
  - [  -0.0019962997175753, -0.0004972815513611,  0.0180093571543694 ]
  - [  -0.0020446581766009, -0.0005350681021810,  0.0179264992475510 ]
  - [  -0.0020521802362055, -0.0004493184387684,  0.0180271156132221 ]
  - [  -0.0019971970468760, -0.0004923800006509,  0.0180078037083149 ]
  - [  -0.0020437519997358, -0.0004541864618659,  0.0179253593087196 ]
  - [  -0.0020495522767305, -0.0005399147048593,  0.0180253852158785 ]
  - [   0.0002439292147756,  0.0002667247317731,  0.0120226126164198 ]
  - [   0.0005855680210516,  0.0003391299978830,  0.0121104437857866 ]
  - [   0.0002495588269085,  0.0004249738703948,  0.0121809765696526 ]
  - [   0.0002813328464981,  0.0003482410684228,  0.0121061243116856 ]
  - [   0.0004703318409156,  0.0003477888240013,  0.0121020730584860 ]
  - [   0.0002811313315760,  0.0003460204170551,  0.0120978578925133 ]
  - [   0.0002457265218254,  0.0004260051064193,  0.0120217744261026 ]
  - [   0.0005875509232283,  0.0003543721686583,  0.0121122375130653 ]
  - [   0.0002480791881680,  0.0002681588521227,  0.0121800806373358 ]
- atom:    1
  displacement:
    [  -0.0100000000000000,  0.0000000000000000,  0.0000000000000000 ]
  forces:
  - [   0.0194760449230671,  0.0000328694004565,  0.0007453504949808 ]
  - [   0.0030135056003928,  0.0000350628979504,  0.0001836400479078 ]
  - [   0.0030201289337128,  0.0000354999210685,  0.0009469147771597 ]
  - [   0.0031130742281675,  0.0000301534309983,  0.0005661901086569 ]
  - [   0.0033032023347914,  0.0002298876643181,  0.0005748495459557 ]
  - [   0.0033041760325432, -0.0001610126346350,  0.0005628801882267 ]
  - [   0.0031124793458730,  0.0000407251063734,  0.0005667470395565 ]
  - [   0.0033031632192433, -0.0001589546445757,  0.0005755964666605 ]
  - [   0.0033048060722649,  0.0002316129393876,  0.0005624722689390 ]
  - [  -0.0014088285388425, -0.0001436695456505,  0.0056704729795456 ]
  - [  -0.0021686751861125, -0.0001431167474948,  0.0050240457057953 ]
  - [  -0.0013551597949117, -0.0001435504818801,  0.0043591409921646 ]
  - [  -0.0021453425288200, -0.0001625027507544,  0.0050299093127251 ]
  - [  -0.0022475223522633, -0.0001376451982651,  0.0050154328346252 ]
  - [  -0.0021460226271302, -0.0001270141801797,  0.0050021111965179 ]
  - [  -0.0021454496309161, -0.0001255399547517,  0.0050302445888519 ]
  - [  -0.0022473915014416, -0.0001501278020442,  0.0050158128142357 ]
  - [  -0.0021467832848430, -0.0001609959872440,  0.0050023868680000 ]
  - [  -0.0025880364701152, -0.0000336049270118,  0.0002592820674181 ]
  - [  -0.0025960409548134,  0.0003388398035895,  0.0001679267734289 ]
  - [  -0.0023853208404034,  0.0001534525945317,  0.0002091936767101 ]
  - [  -0.0024116146378219,  0.0001541835081298,  0.0002169832587242 ]
  - [  -0.0024112181272358,  0.0001539695076644,  0.0002057664096355 ]
  - [  -0.0024144940543920,  0.0001536840281915,  0.0002071931958199 ]
  - [  -0.0025883526541293,  0.0003420885477681,  0.0002589933574200 ]
  - [  -0.0025955312885344, -0.0000310113027808,  0.0001687705516815 ]
  - [  -0.0023860470391810,  0.0001547966094222,  0.0002092625945807 ]
  - [  -0.0018933286191896, -0.0003309733001515, -0.0056459903717041 ]
  - [  -0.0019000323954970, -0.0003610837738961, -0.0060306205414236 ]
  - [  -0.0017669547814876, -0.0003321167896502, -0.0058421967551112 ]
  - [  -0.0017530880868435, -0.0003419332206249, -0.0058369506150484 ]
  - [  -0.0017499022651464, -0.0003420468419790, -0.0058438153937459 ]
  - [  -0.0017528105527163, -0.0003415796090849, -0.0058407527394593 ]
  - [  -0.0018945273477584, -0.0003539760364220, -0.0056457989849150 ]
  - [  -0.0019015494035557, -0.0003238401259296, -0.0060307555831969 ]
  - [  -0.0017669028602540, -0.0003520926693454, -0.0058418144471943 ]
  - [   0.0013131066225469,  0.0016936456086114, -0.0057526677846909 ]
  - [   0.0013360879383981, -0.0008931680349633, -0.0055954828858376 ]
  - [   0.0024572187103331,  0.0003800621780101, -0.0056720077991486 ]
  - [   0.0024515050463378,  0.0003797686658800, -0.0056834667921066 ]
  - [   0.0024526654742658,  0.0003796651435550, -0.0056577622890472 ]
  - [   0.0024582440964878,  0.0003790876653511, -0.0056709200143814 ]
  - [   0.0013149604201317, -0.0009325160644948, -0.0057510584592819 ]
  - [   0.0013360446318984,  0.0016527764964849, -0.0055962726473808 ]
  - [   0.0024556689895689,  0.0003791580384132, -0.0056715309619904 ]
  - [  -0.0016257436946034, -0.0001418024621671,  0.0080163078382611 ]
  - [  -0.0015766783617437, -0.0001428094692528,  0.0043066898360848 ]
  - [   0.0001840628683567, -0.0001426008093404,  0.0061293006874621 ]
  - [   0.0001084241084754,  0.0000744024728192,  0.0061811702325940 ]
  - [   0.0001093144528568, -0.0003624587552622,  0.0060764476656914 ]
  - [   0.0002486384473741, -0.0001434723380953,  0.0061307810246944 ]
  - [   0.0001080213114619, -0.0003602917422540,  0.0061821290291846 ]
  - [   0.0001073628664017,  0.0000771017803345,  0.0060766730457544 ]
  - [   0.0002494212239981, -0.0001421376655344,  0.0061316052451730 ]
  - [  -0.0031333458609879,  0.0004973059985787, -0.0171726308763027 ]
  - [  -0.0029491102322936,  0.0004985643317923, -0.0073086470365524 ]
  - [   0.0008897911757231,  0.0004982355167158, -0.0121312700212002 ]
  - [   0.0012342631816864,  0.0004627648741007, -0.0121667981147766 ]
  - [   0.0012355400249362,  0.0005328338593245, -0.0120992064476013 ]
  - [   0.0009551942348480,  0.0004987008869648, -0.0121290031820536 ]
  - [   0.0012316033244133,  0.0005314480513334, -0.0121665764600039 ]
  - [   0.0012344736605883,  0.0004617385566235, -0.0121002309024334 ]
  - [   0.0009577535092831,  0.0004956983029842, -0.0121299475431442 ]
  - [   0.0010178774828091, -0.0003327310550958, -0.0183825548738241 ]
  - [   0.0010270830243826, -0.0003443434834480, -0.0184599123895168 ]
  - [   0.0010303191374987, -0.0002201019378845, -0.0182938668876886 ]
  - [   0.0010904325172305, -0.0002895960933529, -0.0183661393821239 ]
  - [   0.0011089436011389, -0.0002900047693402, -0.0183720514178276 ]
  - [   0.0011102175340056, -0.0002897739177570, -0.0183760989457369 ]
  - [   0.0010196811053902, -0.0002501111594029, -0.0183834675699472 ]
  - [   0.0010287858312950, -0.0002377359924139, -0.0184627827256918 ]
  - [   0.0010321710724384, -0.0003618590708356, -0.0182952024042606 ]
  - [  -0.0018457160331309, -0.0004925125977024,  0.0177780315279961 ]
  - [  -0.0017612213268876, -0.0004924797685817,  0.0184555482119322 ]
  - [  -0.0018311403691769, -0.0004931238945574,  0.0177255533635616 ]
  - [  -0.0020968022290617, -0.0004849862307310,  0.0179706364870071 ]
  - [  -0.0020460623782128, -0.0004534507170320,  0.0180474705994129 ]
  - [  -0.0020435061305761, -0.0005397861823440,  0.0179470721632242 ]
  - [  -0.0020973887294531, -0.0005041453987360,  0.0179679840803146 ]
  - [  -0.0020452570170164, -0.0005354639142752,  0.0180464312434196 ]
  - [  -0.0020405109971762, -0.0004494162276387,  0.0179455354809761 ]
  - [   0.0004411143308971,  0.0004243818111718,  0.0121806599199772 ]
  - [   0.0001034223823808,  0.0003279890515842,  0.0121202711015940 ]
  - [   0.0004446959646884,  0.0002677341690287,  0.0120236687362194 ]
  - [   0.0004060110950377,  0.0003487179055810,  0.0120972264558077 ]
  - [   0.0002203834592365,  0.0003473955148365,  0.0121031738817692 ]
  - [   0.0004071701841895,  0.0003458891878836,  0.0121054500341415 ]
  - [   0.0004437669995241,  0.0002693645656109,  0.0121809244155884 ]
  - [   0.0001050028949976,  0.0003633043379523,  0.0121191702783108 ]
  - [   0.0004424061626196,  0.0004266636678949,  0.0120227895677090 ]
- atom:    1
  displacement:
    [   0.0000010902786021,  0.0099999999405646,  0.0000000000000000 ]
  forces:
  - [   0.0031020308379084, -0.0146344220265746,  0.0005662627518177 ]
  - [   0.0031003714539111,  0.0002049971371889,  0.0005676355212927 ]
  - [   0.0031032632105052,  0.0002048439055216,  0.0005674138665199 ]