# Thermal properties / unit cell (natom)

unit:
  temperature:   K
  free_energy:   kJ/mol
  entropy:       J/K/mol
  heat_capacity: J/K/mol

natom: 4    
cutoff_frequency: 0.00000
num_modes: 183456
num_integrated_modes: 182101

zero_point_energy:      11.4037201

thermal_properties:
- temperature:         0.0000000
  free_energy:        11.4037201
  entropy:             0.0000000
  heat_capacity:       0.0000000
  energy:             11.4037201

- temperature:        10.0000000
  free_energy:        11.3980794
  entropy:             1.9271097
  heat_capacity:       4.7307096
  energy:             11.4173505

- temperature:        20.0000000
  free_energy:        11.3478698
  entropy:             8.6530236
  heat_capacity:      16.0822561
  energy:             11.5209303

- temperature:        30.0000000
  free_energy:        11.2192405
  entropy:            17.1939810
  heat_capacity:      26.3756954
  energy:             11.7350599

- temperature:        40.0000000
  free_energy:        11.0034179
  entropy:            25.9420293
  heat_capacity:      34.5275191
  energy:             12.0410991

- temperature:        50.0000000
  free_energy:        10.7014350
  entropy:            34.3916330
  heat_capacity:      41.2853486
  energy:             12.4210166

- temperature:        60.0000000
  free_energy:        10.3168872
  entropy:            42.4531025
  heat_capacity:      47.2112377
  energy:             12.8640734

- temperature:        70.0000000
  free_energy:         9.8536351
  entropy:            50.1361467
  heat_capacity:      52.5105679
  energy:             13.3631654

- temperature:        80.0000000
  free_energy:         9.3153491
  entropy:            57.4636552
  heat_capacity:      57.2562034
  energy:             13.9124415

- temperature:        90.0000000
  free_energy:         8.7054763
  entropy:            64.4567876
  heat_capacity:      61.4911526
  energy:             14.5065872

- temperature:       100.0000000
  free_energy:         8.0272652
  entropy:            71.1343184
  heat_capacity:      65.2559168
  energy:             15.1406970

- temperature:       110.0000000
  free_energy:         7.2837841
  entropy:            77.5135892
  heat_capacity:      68.5927088
  energy:             15.8102789

- temperature:       120.0000000
  free_energy:         6.4779325
  entropy:            83.6111279
  heat_capacity:      71.5444436
  energy:             16.5112678

- temperature:       130.0000000
  free_energy:         5.6124474
  entropy:            89.4429002
  heat_capacity:      74.1530831
  energy:             17.2400244

- temperature:       140.0000000
  free_energy:         4.6899088
  entropy:            95.0243550
  heat_capacity:      76.4583220
  energy:             17.9933185

- temperature:       150.0000000
  free_energy:         3.7127450
  entropy:           100.3703793
  heat_capacity:      78.4967537
  energy:             18.7683019

- temperature:       160.0000000
  free_energy:         2.6832384
  entropy:           105.4952281
  heat_capacity:      80.3014567
  energy:             19.5624749

- temperature:       170.0000000
  free_energy:         1.6035324
  entropy:           110.4124596
  heat_capacity:      81.9018946
  energy:             20.3736505

- temperature:       180.0000000
  free_energy:         0.4756384
  entropy:           115.1348908
  heat_capacity:      83.3240288
  energy:             21.1999188

- temperature:       190.0000000
  free_energy:        -0.6985564
  entropy:           119.6745742
  heat_capacity:      84.5905576
  energy:             22.0396127

- temperature:       200.0000000
  free_energy:        -1.9172816
  entropy:           124.0427946
  heat_capacity:      85.7212202
  energy:             22.8912773

- temperature:       210.0000000
  free_energy:        -3.1788759
  entropy:           128.2500829
  heat_capacity:      86.7331225
  energy:             23.7536415

- temperature:       220.0000000
  free_energy:        -4.4817796
  entropy:           132.3062410
  heat_capacity:      87.6410585
  energy:             24.6255934

- temperature:       230.0000000
  free_energy:        -5.8245274
  entropy:           136.2203753
  heat_capacity:      88.4578109
  energy:             25.5061589

- temperature:       240.0000000
  free_energy:        -7.2057419
  entropy:           140.0009358
  heat_capacity:      89.1944240
  energy:             26.3944827

- temperature:       250.0000000
  free_energy:        -8.6241270
  entropy:           143.6557571
  heat_capacity:      89.8604463
  energy:             27.2898123

- temperature:       260.0000000
  free_energy:       -10.0784622
  entropy:           147.1921006
  heat_capacity:      90.4641416
  energy:             28.1914840

- temperature:       270.0000000
  free_energy:       -11.5675966
  entropy:           150.6166960
  heat_capacity:      91.0126734
  energy:             29.0989113

- temperature:       280.0000000
  free_energy:       -13.0904444
  entropy:           153.9357816
  heat_capacity:      91.5122620
  energy:             30.0115744

- temperature:       290.0000000
  free_energy:       -14.6459799
  entropy:           157.1551427
  heat_capacity:      91.9683193
  energy:             30.9290115

- temperature:       300.0000000
  free_energy:       -16.2332328
  entropy:           160.2801477
  heat_capacity:      92.3855643
  energy:             31.8508115

- temperature:       310.0000000
  free_energy:       -17.8512850
  entropy:           163.3157813
  heat_capacity:      92.7681208
  energy:             32.7766072

- temperature:       320.0000000
  free_energy:       -19.4992660
  entropy:           166.2666762
  heat_capacity:      93.1196005
  energy:             33.7060704

- temperature:       330.0000000
  free_energy:       -21.1763504
  entropy:           169.1371415
  heat_capacity:      93.4431745
  energy:             34.6389063

- temperature:       340.0000000
  free_energy:       -22.8817541
  entropy:           171.9311892
  heat_capacity:      93.7416331
  energy:             35.5748502

- temperature:       350.0000000
  free_energy:       -24.6147320
  entropy:           174.6525583
  heat_capacity:      94.0174375
  energy:             36.5136634

- temperature:       360.0000000
  free_energy:       -26.3745747
  entropy:           177.3047372
  heat_capacity:      94.2727636
  energy:             37.4551307

- temperature:       370.0000000
  free_energy:       -28.1606070
  entropy:           179.8909834
  heat_capacity:      94.5095393
  energy:             38.3990569

- temperature:       380.0000000
  free_energy:       -29.9721848
  entropy:           182.4143425
  heat_capacity:      94.7294771
  energy:             39.3452654

- temperature:       390.0000000
  free_energy:       -31.8086937
  entropy:           184.8776644
  heat_capacity:      94.9341010
  energy:             40.2935954

- temperature:       400.0000000
  free_energy:       -33.6695469
  entropy:           187.2836193
  heat_capacity:      95.1247704
  energy:             41.2439009

- temperature:       410.0000000
  free_energy:       -35.5541832
  entropy:           189.6347112
  heat_capacity:      95.3027005
  energy:             42.1960484

- temperature:       420.0000000
  free_energy:       -37.4620661
  entropy:           191.9332908
  heat_capacity:      95.4689798
  energy:             43.1499161

- temperature:       430.0000000
  free_energy:       -39.3926814
  entropy:           194.1815669
  heat_capacity:      95.6245854
  energy:             44.1053924

- temperature:       440.0000000
  free_energy:       -41.3455367
  entropy:           196.3816177
  heat_capacity:      95.7703957
  energy:             45.0623751

- temperature:       450.0000000
  free_energy:       -43.3201595
  entropy:           198.5353996
  heat_capacity:      95.9072024
  energy:             46.0207703

- temperature:       460.0000000
  free_energy:       -45.3160966
  entropy:           200.6447568
  heat_capacity:      96.0357201
  energy:             46.9804916

- temperature:       470.0000000
  free_energy:       -47.3329124
  entropy:           202.7114290
  heat_capacity:      96.1565951
  energy:             47.9414593

- temperature:       480.0000000
  free_energy:       -49.3701884
  entropy:           204.7370590
  heat_capacity:      96.2704128
  energy:             48.9035999

- temperature:       490.0000000
  free_energy:       -51.4275219
  entropy:           206.7231994
  heat_capacity:      96.3777043
  energy:             49.8668458

- temperature:       500.0000000
  free_energy:       -53.5045256
  entropy:           208.6713190
  heat_capacity:      96.4789527
  energy:             50.8311339

- temperature:       510.0000000
  free_energy:       -55.6008262
  entropy:           210.5828086
  heat_capacity:      96.5745977
  energy:             51.7964061

- temperature:       520.0000000
  free_energy:       -57.7160641
  entropy:           212.4589858
  heat_capacity:      96.6650400
  energy:             52.7626085

- temperature:       530.0000000
  free_energy:       -59.8498924
  entropy:           214.3011004
  heat_capacity:      96.7506458
  energy:             53.7296908

- temperature:       540.0000000
  free_energy:       -62.0019765
  entropy:           216.1103388
  heat_capacity:      96.8317501
  energy:             54.6976064

- temperature:       550.0000000
  free_energy:       -64.1719934
  entropy:           217.8878276
  heat_capacity:      96.9086595
  energy:             55.6663118

- temperature:       560.0000000
  free_energy:       -66.3596308
  entropy:           219.6346382
  heat_capacity:      96.9816553
  energy:             56.6357666

- temperature:       570.0000000
  free_energy:       -68.5645873
  entropy:           221.3517895
  heat_capacity:      97.0509960
  energy:             57.6059328

- temperature:       580.0000000
  free_energy:       -70.7865710
  entropy:           223.0402519
  heat_capacity:      97.1169190
  energy:             58.5767751

- temperature:       590.0000000
  free_energy:       -73.0252998
  entropy:           224.7009496
  heat_capacity:      97.1796434
  energy:             59.5482605

- temperature:       600.0000000
  free_energy:       -75.2805004
  entropy:           226.3347639
  heat_capacity:      97.2393707
  energy:             60.5203580

- temperature:       610.0000000
  free_energy:       -77.5519082
  entropy:           227.9425357
  heat_capacity:      97.2962873
  energy:             61.4930385

- temperature:       620.0000000
  free_energy:       -79.8392670
  entropy:           229.5250676
  heat_capacity:      97.3505652
  energy:             62.4662749

- temperature:       630.0000000
  free_energy:       -82.1423280
  entropy:           231.0831263
  heat_capacity:      97.4023638
  energy:             63.4400416

- temperature:       640.0000000
  free_energy:       -84.4608503
  entropy:           232.6174450
  heat_capacity:      97.4518305
  energy:             64.4143144

- temperature:       650.0000000
  free_energy:       -86.7946001
  entropy:           234.1287246
  heat_capacity:      97.4991021
  energy:             65.3890709

- temperature:       660.0000000
  free_energy:       -89.1433503
  entropy:           235.6176362
  heat_capacity:      97.5443056
  energy:             66.3642896

- temperature:       670.0000000
  free_energy:       -91.5068804
  entropy:           237.0848222
  heat_capacity:      97.5875591
  energy:             67.3399505

- temperature:       680.0000000
  free_energy:       -93.8849764
  entropy:           238.5308985
  heat_capacity:      97.6289723
  energy:             68.3160346

- temperature:       690.0000000
  free_energy:       -96.2774300
  entropy:           239.9564553
  heat_capacity:      97.6686474
  energy:             69.2925241

- temperature:       700.0000000
  free_energy:       -98.6840390
  entropy:           241.3620587
  heat_capacity:      97.7066797
  energy:             70.2694021

- temperature:       710.0000000
  free_energy:      -101.1046065
  entropy:           242.7482521
  heat_capacity:      97.7431580
  energy:             71.2466526

- temperature:       720.0000000
  free_energy:      -103.5389410
  entropy:           244.1155575
  heat_capacity:      97.7781654
  energy:             72.2242604

- temperature:       730.0000000
  free_energy:      -105.9868563
  entropy:           245.4644761
  heat_capacity:      97.8117793
  energy:             73.2022112

- temperature:       740.0000000
  free_energy:      -108.4481709
  entropy:           246.7954898
  heat_capacity:      97.8440723
  energy:             74.1804915

- temperature:       750.0000000
  free_energy:      -110.9227080
  entropy:           248.1090620
  heat_capacity:      97.8751124
  energy:             75.1590885

- temperature:       760.0000000
  free_energy:      -113.4102955
  entropy:           249.4056386
  heat_capacity:      97.9049631
  energy:             76.1379898

- temperature:       770.0000000
  free_energy:      -115.9107655
  entropy:           250.6856487
  heat_capacity:      97.9336841
  energy:             77.1171840

- temperature:       780.0000000
  free_energy:      -118.4239546
  entropy:           251.9495058
  heat_capacity:      97.9613314
  energy:             78.0966599

- temperature:       790.0000000
  free_energy:      -120.9497031
  entropy:           253.1976080
  heat_capacity:      97.9879575
  energy:             79.0764072

- temperature:       800.0000000
  free_energy:      -123.4878555
  entropy:           254.4303392
  heat_capacity:      98.0136119
  energy:             80.0564158

- temperature:       810.0000000
  free_energy:      -126.0382599
  entropy:           255.6480695
  heat_capacity:      98.0383411
  energy:             81.0366764

- temperature:       820.0000000
  free_energy:      -128.6007681
  entropy:           256.8511559
  heat_capacity:      98.0621888
  energy:             82.0171797

- temperature:       830.0000000
  free_energy:      -131.1752354
  entropy:           258.0399430
  heat_capacity:      98.0851961
  energy:             82.9979173

- temperature:       840.0000000
  free_energy:      -133.7615204
  entropy:           259.2147636
  heat_capacity:      98.1074020
  energy:             83.9788810

- temperature:       850.0000000
  free_energy:      -136.3594852
  entropy:           260.3759388
  heat_capacity:      98.1288431
  energy:             84.9600628

- temperature:       860.0000000
  free_energy:      -138.9689947
  entropy:           261.5237792
  heat_capacity:      98.1495539
  energy:             85.9414554

- temperature:       870.0000000
  free_energy:      -141.5899173
  entropy:           262.6585849
  heat_capacity:      98.1695671
  energy:             86.9230516

- temperature:       880.0000000
  free_energy:      -144.2221240
  entropy:           263.7806460
  heat_capacity:      98.1889135
  energy:             87.9048445

- temperature:       890.0000000
  free_energy:      -146.8654887
  entropy:           264.8902432
  heat_capacity:      98.2076223
  energy:             88.8868277

- temperature:       900.0000000
  free_energy:      -149.5198882
  entropy:           265.9876479
  heat_capacity:      98.2257211
  energy:             89.8689949

- temperature:       910.0000000
  free_energy:      -152.1852019
  entropy:           267.0731232
  heat_capacity:      98.2432360
  energy:             90.8513402

- temperature:       920.0000000
  free_energy:      -154.8613117
  entropy:           268.1469234
  heat_capacity:      98.2601918
  energy:             91.8338578

- temperature:       930.0000000
  free_energy:      -157.5481023
  entropy:           269.2092952
  heat_capacity:      98.2766119
  energy:             92.8165422

- temperature:       940.0000000
  free_energy:      -160.2454603
  entropy:           270.2604773
  heat_capacity:      98.2925186
  energy:             93.7993883

- temperature:       950.0000000
  free_energy:      -162.9532753
  entropy:           271.3007013
  heat_capacity:      98.3079330
  energy:             94.7823910

- temperature:       960.0000000
  free_energy:      -165.6714386
  entropy:           272.3301917
  heat_capacity:      98.3228751
  energy:             95.7655454

- temperature:       970.0000000
  free_energy:      -168.3998441
  entropy:           273.3491660
  heat_capacity:      98.3373639
  energy:             96.7488470

- temperature:       980.0000000
  free_energy:      -171.1383876
  entropy:           274.3578355
  heat_capacity:      98.3514176
  energy:             97.7322912

- temperature:       990.0000000
  free_energy:      -173.8869671
  entropy:           275.3564051
  heat_capacity:      98.3650533
  energy:             98.7158739

- temperature:      1000.0000000
  free_energy:      -176.6454827
  entropy:           276.3450736
  heat_capacity:      98.3782874
  energy:             99.6995910
