# Thermal properties / unit cell (natom)

unit:
  temperature:   K
  free_energy:   kJ/mol
  entropy:       J/K/mol
  heat_capacity: J/K/mol

natom: 12   
cutoff_frequency: 0.00000
num_modes: 197064
num_integrated_modes: 192273

zero_point_energy:      40.3264537

thermal_properties:
- temperature:         0.0000000
  free_energy:        40.3264537
  entropy:             0.0000000
  heat_capacity:       0.0000000
  energy:             40.3264537

- temperature:        10.0000000
  free_energy:        40.3087200
  entropy:             5.2156043
  heat_capacity:      10.1187643
  energy:             40.3608760

- temperature:        20.0000000
  free_energy:        40.1921164
  entropy:            19.3187051
  heat_capacity:      34.7206557
  energy:             40.5784905

- temperature:        30.0000000
  free_energy:        39.9059979
  entropy:            38.3348494
  heat_capacity:      59.9539102
  energy:             41.0560434

- temperature:        40.0000000
  free_energy:        39.4222873
  entropy:            58.3812165
  heat_capacity:      79.4497832
  energy:             41.7575360

- temperature:        50.0000000
  free_energy:        38.7405010
  entropy:            77.8326351
  heat_capacity:      95.0679260
  energy:             42.6321327

- temperature:        60.0000000
  free_energy:        37.8685095
  entropy:            96.4328372
  heat_capacity:     109.3094519
  energy:             43.6544797

- temperature:        70.0000000
  free_energy:        36.8141661
  entropy:           114.3360254
  heat_capacity:     123.3264301
  energy:             44.8176878

- temperature:        80.0000000
  free_energy:        35.5835266
  entropy:           131.7151114
  heat_capacity:     137.2490570
  energy:             46.1207355

- temperature:        90.0000000
  free_energy:        34.1812763
  entropy:           148.6682383
  heat_capacity:     150.7958395
  energy:             47.5614178

- temperature:       100.0000000
  free_energy:        32.6114678
  entropy:           165.2283941
  heat_capacity:     163.6427703
  energy:             49.1343072

- temperature:       110.0000000
  free_energy:        30.8780282
  entropy:           181.3921924
  heat_capacity:     175.5625671
  energy:             50.8311694

- temperature:       120.0000000
  free_energy:        28.9850027
  entropy:           197.1423579
  heat_capacity:     186.4435459
  energy:             52.6420856

- temperature:       130.0000000
  free_energy:        26.9366213
  entropy:           212.4606220
  heat_capacity:     196.2650396
  energy:             54.5565022

- temperature:       140.0000000
  free_energy:        24.7372753
  entropy:           227.3336054
  heat_capacity:     205.0656893
  energy:             56.5639800

- temperature:       150.0000000
  free_energy:        22.3914565
  entropy:           241.7546303
  heat_capacity:     212.9173266
  energy:             58.6546510

- temperature:       160.0000000
  free_energy:        19.9036904
  entropy:           255.7235120
  heat_capacity:     219.9067999
  energy:             60.8194524

- temperature:       170.0000000
  free_energy:        17.2784763
  entropy:           269.2455218
  heat_capacity:     226.1245483
  energy:             63.0502150

- temperature:       180.0000000
  free_energy:        14.5202383
  entropy:           282.3301378
  heat_capacity:     231.6580137
  energy:             65.3396631

- temperature:       190.0000000
  free_energy:        11.6332900
  entropy:           294.9898698
  heat_capacity:     236.5882252
  energy:             67.6813653

- temperature:       200.0000000
  free_energy:         8.6218088
  entropy:           307.2392636
  heat_capacity:     240.9883437
  energy:             70.0696616

- temperature:       210.0000000
  free_energy:         5.4898200
  entropy:           319.0941080
  heat_capacity:     244.9233495
  energy:             72.4995827

- temperature:       220.0000000
  free_energy:         2.2411871
  entropy:           330.5708284
  heat_capacity:     248.4503579
  energy:             74.9667694

- temperature:       230.0000000
  free_energy:        -1.1203916
  entropy:           341.6860364
  heat_capacity:     251.6192448
  energy:             77.4673968

- temperature:       240.0000000
  free_energy:        -4.5913835
  entropy:           352.4562055
  heat_capacity:     254.4733969
  energy:             79.9981058

- temperature:       250.0000000
  free_energy:        -8.1684193
  entropy:           362.8974441
  heat_capacity:     257.0504798
  energy:             82.5559417

- temperature:       260.0000000
  free_energy:       -11.8482880
  entropy:           373.0253432
  heat_capacity:     259.3831697
  energy:             85.1383012

- temperature:       270.0000000
  free_energy:       -15.6279317
  entropy:           382.8548781
  heat_capacity:     261.4998202
  energy:             87.7428854

- temperature:       280.0000000
  free_energy:       -19.5044388
  entropy:           392.4003525
  heat_capacity:     263.4250563
  energy:             90.3676599

- temperature:       290.0000000
  free_energy:       -23.4750373
  entropy:           401.6753706
  heat_capacity:     265.1802934
  energy:             93.0108202

- temperature:       300.0000000
  free_energy:       -27.5370878
  entropy:           410.6928311
  heat_capacity:     266.7841878
  energy:             95.6707616

- temperature:       310.0000000
  free_energy:       -31.6880761
  entropy:           419.4649358
  heat_capacity:     268.2530235
  energy:             98.3460540

- temperature:       320.0000000
  free_energy:       -35.9256071
  entropy:           428.0032082
  heat_capacity:     269.6010438
  energy:            101.0354195

- temperature:       330.0000000
  free_energy:       -40.2473972
  entropy:           436.3185184
  heat_capacity:     270.8407346
  energy:            103.7377139

- temperature:       340.0000000
  free_energy:       -44.6512685
  entropy:           444.4211127
  heat_capacity:     271.9830658
  energy:            106.4519098

- temperature:       350.0000000
  free_energy:       -49.1351426
  entropy:           452.3206447
  heat_capacity:     273.0376983
  energy:            109.1770830

- temperature:       360.0000000
  free_energy:       -53.6970349
  entropy:           460.0262080
  heat_capacity:     274.0131592
  energy:            111.9124000

- temperature:       370.0000000
  free_energy:       -58.3350488
  entropy:           467.5463685
  heat_capacity:     274.9169927
  energy:            114.6571075

- temperature:       380.0000000
  free_energy:       -63.0473712
  entropy:           474.8891965
  heat_capacity:     275.7558884
  energy:            117.4105235

- temperature:       390.0000000
  free_energy:       -67.8322670
  entropy:           482.0622969
  heat_capacity:     276.5357917
  energy:            120.1720287

- temperature:       400.0000000
  free_energy:       -72.6880753
  entropy:           489.0728392
  heat_capacity:     277.2619979
  energy:            122.9410604

- temperature:       410.0000000
  free_energy:       -77.6132045
  entropy:           495.9275855
  heat_capacity:     277.9392341
  energy:            125.7171055

- temperature:       420.0000000
  free_energy:       -82.6061290
  entropy:           502.6329166
  heat_capacity:     278.5717284
  energy:            128.4996960

- temperature:       430.0000000
  free_energy:       -87.6653849
  entropy:           509.1948571
  heat_capacity:     279.1632712
  energy:            131.2884036

- temperature:       440.0000000
  free_energy:       -92.7895672
  entropy:           515.6190988
  heat_capacity:     279.7172667
  energy:            134.0828363

- temperature:       450.0000000
  free_energy:       -97.9773259
  entropy:           521.9110221
  heat_capacity:     280.2367785
  energy:            136.8826340

- temperature:       460.0000000
  free_energy:      -103.2273636
  entropy:           528.0757168
  heat_capacity:     280.7245690
  energy:            139.6874661

- temperature:       470.0000000
  free_energy:      -108.5384322
  entropy:           534.1180005
  heat_capacity:     281.1831337
  energy:            142.4970280

- temperature:       480.0000000
  free_energy:      -113.9093308
  entropy:           540.0424369
  heat_capacity:     281.6147309
  energy:            145.3110389

- temperature:       490.0000000
  free_energy:      -119.3389026
  entropy:           545.8533514
  heat_capacity:     282.0214078
  energy:            148.1292396

- temperature:       500.0000000
  free_energy:      -124.8260331
  entropy:           551.5548467
  heat_capacity:     282.4050237
  energy:            150.9513903

- temperature:       510.0000000
  free_energy:      -130.3696478
  entropy:           557.1508170
  heat_capacity:     282.7672695
  energy:            153.7772689

- temperature:       520.0000000
  free_energy:      -135.9687100
  entropy:           562.6449608
  heat_capacity:     283.1096862
  energy:            156.6066696

- temperature:       530.0000000
  free_energy:      -141.6222193
  entropy:           568.0407934
  heat_capacity:     283.4336796
  energy:            159.4394012

- temperature:       540.0000000
  free_energy:      -147.3292094
  entropy:           573.3416581
  heat_capacity:     283.7405345
  energy:            162.2752860

- temperature:       550.0000000
  free_energy:      -153.0887465
  entropy:           578.5507368
  heat_capacity:     284.0314269
  energy:            165.1141587

- temperature:       560.0000000
  free_energy:      -158.8999283
  entropy:           583.6710593
  heat_capacity:     284.3074347
  energy:            167.9558650

- temperature:       570.0000000
  free_energy:      -164.7618815
  entropy:           588.7055133
  heat_capacity:     284.5695470
  energy:            170.8002611

- temperature:       580.0000000
  free_energy:      -170.6737615
  entropy:           593.6568519
  heat_capacity:     284.8186730
  energy:            173.6472126

- temperature:       590.0000000
  free_energy:      -176.6347503
  entropy:           598.5277022
  heat_capacity:     285.0556494
  energy:            176.4965940

- temperature:       600.0000000
  free_energy:      -182.6440556
  entropy:           603.3205722
  heat_capacity:     285.2812471
  energy:            179.3482877

- temperature:       610.0000000
  free_energy:      -188.7009098
  entropy:           608.0378577
  heat_capacity:     285.4961773
  energy:            182.2021834

- temperature:       620.0000000
  free_energy:      -194.8045685
  entropy:           612.6818489
  heat_capacity:     285.7010971
  energy:            185.0581779

- temperature:       630.0000000
  free_energy:      -200.9543098
  entropy:           617.2547362
  heat_capacity:     285.8966139
  energy:            187.9161740

- temperature:       640.0000000
  free_energy:      -207.1494332
  entropy:           621.7586154
  heat_capacity:     286.0832903
  energy:            190.7760807

- temperature:       650.0000000
  free_energy:      -213.3892587
  entropy:           626.1954936
  heat_capacity:     286.2616477
  energy:            193.6378121

- temperature:       660.0000000
  free_energy:      -219.6731261
  entropy:           630.5672934
  heat_capacity:     286.4321698
  energy:            196.5012875

- temperature:       670.0000000
  free_energy:      -226.0003938
  entropy:           634.8758578
  heat_capacity:     286.5953059
  energy:            199.3664309

- temperature:       680.0000000
  free_energy:      -232.3704384
  entropy:           639.1229541
  heat_capacity:     286.7514738
  energy:            202.2331704

- temperature:       690.0000000
  free_energy:      -238.7826537
  entropy:           643.3102784
  heat_capacity:     286.9010624
  energy:            205.1014384

- temperature:       700.0000000
  free_energy:      -245.2364502
  entropy:           647.4394587
  heat_capacity:     287.0444340
  energy:            207.9711710

- temperature:       710.0000000
  free_energy:      -251.7312543
  entropy:           651.5120588
  heat_capacity:     287.1819264
  energy:            210.8423075

- temperature:       720.0000000
  free_energy:      -258.2665077
  entropy:           655.5295815
  heat_capacity:     287.3138548
  energy:            213.7147909

- temperature:       730.0000000
  free_energy:      -264.8416671
  entropy:           659.4934715
  heat_capacity:     287.4405139
  energy:            216.5885671

- temperature:       740.0000000
  free_energy:      -271.4562030
  entropy:           663.4051184
  heat_capacity:     287.5621791
  energy:            219.4635846

- temperature:       750.0000000
  free_energy:      -278.1095998
  entropy:           667.2658595
  heat_capacity:     287.6791082
  energy:            222.3397949

- temperature:       760.0000000
  free_energy:      -284.8013548
  entropy:           671.0769824
  heat_capacity:     287.7915427
  energy:            225.2171518

- temperature:       770.0000000
  free_energy:      -291.5309782
  entropy:           674.8397269
  heat_capacity:     287.8997087
  energy:            228.0956115

- temperature:       780.0000000
  free_energy:      -298.2979921
  entropy:           678.5552878
  heat_capacity:     288.0038188
  energy:            230.9751324

- temperature:       790.0000000
  free_energy:      -305.1019305
  entropy:           682.2248171
  heat_capacity:     288.1040721
  energy:            233.8556750

- temperature:       800.0000000
  free_energy:      -311.9423387
  entropy:           685.8494254
  heat_capacity:     288.2006561
  energy:            236.7372016

- temperature:       810.0000000
  free_energy:      -318.8187729
  entropy:           689.4301844
  heat_capacity:     288.2937469
  energy:            239.6196765

- temperature:       820.0000000
  free_energy:      -325.7307997
  entropy:           692.9681282
  heat_capacity:     288.3835101
  energy:            242.5030655

- temperature:       830.0000000
  free_energy:      -332.6779960
  entropy:           696.4642556
  heat_capacity:     288.4701019
  energy:            245.3873361

- temperature:       840.0000000
  free_energy:      -339.6599486
  entropy:           699.9195310
  heat_capacity:     288.5536692
  energy:            248.2724574

- temperature:       850.0000000
  free_energy:      -346.6762536
  entropy:           703.3348865
  heat_capacity:     288.6343509
  energy:            251.1583999

- temperature:       860.0000000
  free_energy:      -353.7265163
  entropy:           706.7112227
  heat_capacity:     288.7122776
  energy:            254.0451353

- temperature:       870.0000000
  free_energy:      -360.8103509
  entropy:           710.0494110
  heat_capacity:     288.7875729
  energy:            256.9326367

- temperature:       880.0000000
  free_energy:      -367.9273802
  entropy:           713.3502938
  heat_capacity:     288.8603536
  energy:            259.8208783

- temperature:       890.0000000
  free_energy:      -375.0772351
  entropy:           716.6146864
  heat_capacity:     288.9307299
  energy:            262.7098357

- temperature:       900.0000000
  free_energy:      -382.2595549
  entropy:           719.8433780
  heat_capacity:     288.9988064
  energy:            265.5994853

- temperature:       910.0000000
  free_energy:      -389.4739863
  entropy:           723.0371327
  heat_capacity:     289.0646816
  energy:            268.4898045

- temperature:       920.0000000
  free_energy:      -396.7201836
  entropy:           726.1966907
  heat_capacity:     289.1284493
  energy:            271.3807719

- temperature:       930.0000000
  free_energy:      -403.9978085
  entropy:           729.3227691
  heat_capacity:     289.1901980
  energy:            274.2723668

- temperature:       940.0000000
  free_energy:      -411.3065297
  entropy:           732.4160628
  heat_capacity:     289.2500119
  energy:            277.1645694

- temperature:       950.0000000
  free_energy:      -418.6460227
  entropy:           735.4772458
  heat_capacity:     289.3079706
  energy:            280.0573608

- temperature:       960.0000000
  free_energy:      -426.0159697
  entropy:           738.5069715
  heat_capacity:     289.3641499
  energy:            282.9507229

- temperature:       970.0000000
  free_energy:      -433.4160594
  entropy:           741.5058737
  heat_capacity:     289.4186216
  energy:            285.8446381

- temperature:       980.0000000
  free_energy:      -440.8459865
  entropy:           744.4745677
  heat_capacity:     289.4714541
  energy:            288.7390898

- temperature:       990.0000000
  free_energy:      -448.3054520
  entropy:           747.4136505
  heat_capacity:     289.5227123
  energy:            291.6340620

- temperature:      1000.0000000
  free_energy:      -455.7941627
  entropy:           750.3237018
  heat_capacity:     289.5724579
  energy:            294.5295390
