33
Lattice="4.692889475237572 -2.7032269695938846e-08 5.174988558326458e-08 -2.346444761029416 4.064161555024201 -1.0235144192627231e-07 3.495336143883983e-07 -5.96453959693161e-07 31.447296452529557" Properties=species:S:1:pos:R:3:forces:R:3 structure_index=0 total_energy=-94.75963592529297 stress="-0.0054823290556669235 5.516225769497396e-07 -4.402948405868301e-08 4.734431513497839e-07 -0.005481261294335127 -1.0950570583645458e-07 -2.985363067864455e-09 -1.0349257451025551e-07 0.000571812444832176" pbc="T T T"
Li       0.00000002      -0.00000006       2.79400899      -0.00000006       0.00000079       0.04448510
Li       0.00000032      -0.00000054      28.65328747      -0.00000005       0.00000017      -0.04448758
Li       2.34644486       1.35472025      13.27644115       0.00000063       0.00000015       0.04448440
Li       2.34644480       1.35472035       7.68842315      -0.00000007      -0.00000016      -0.04448438
Li       0.00000025       2.70944058      23.75887327      -0.00000021       0.00000018       0.04448786
Li       0.00000018       2.70944070      18.17085528       0.00000013      -0.00000010      -0.04448198
Li       0.00000004      -0.00000010       5.60816564      -0.00000078      -0.00000053       0.00511391
Li       0.00000029      -0.00000049      25.83913083       0.00000003      -0.00000012      -0.00511318
Li       2.34644491       1.35472019      16.09059778       0.00000032       0.00000008       0.00511642
Li       2.34644476       1.35472041       4.87426651      -0.00000003       0.00000005      -0.00511489
Li       0.00000028       2.70944052      26.57302987       0.00000005       0.00000020       0.00511308
Li       0.00000014       2.70944074      15.35669862      -0.00000011       0.00000048      -0.00511536
Li       0.00000009      -0.00000016       8.57509829       0.00000009      -0.00000022       0.00418291
Li       0.00000025      -0.00000043      22.87219813       0.00000010      -0.00000024      -0.00418253
Li       2.34644494       1.35472014      19.05753043       0.00000012       0.00000026       0.00418110
Li       2.34644475       1.35472047       1.90733386      -0.00000032      -0.00000058      -0.00418242
Li       0.00000031       2.70944047      29.53996257      -0.00000015      -0.00000026       0.00418292
Li       0.00000012       2.70944079      12.38976594      -0.00000035       0.00000015      -0.00418227
Li       0.00000015      -0.00000022      11.40335389      -0.00000020       0.00000007       0.00714594
Li       0.00000022      -0.00000040      20.04394260       0.00000008      -0.00000007      -0.00714764
Li       2.34644497       1.35472007      21.88578608      -0.00000001       0.00000030       0.00714739
Li       2.34644507       1.35471991      30.52637479      -0.00000005       0.00000010      -0.00714703
Li       0.00000000       2.70944100       0.92092167       0.00000001       0.00000013       0.00714709
Li       0.00000011       2.70944086       9.56151037      -0.00000020       0.00000055      -0.00714650
Sn       0.00000017      -0.00000027      14.25849065      -0.00000002      -0.00000055      -0.03401595
Sn       0.00000020      -0.00000035      17.18880576      -0.00000045      -0.00000034       0.03401534
Sn       2.34644500       1.35472003      24.74092281       0.00000002      -0.00000004      -0.03401910
Sn       2.34644504       1.35471998      27.67123784       0.00000008      -0.00000016       0.03401914
Sn       0.00000006       2.70944095       3.77605843       0.00000042       0.00000004      -0.03401933
Sn       0.00000010       2.70944091       6.70637361       0.00000058       0.00000026       0.03401940
Sn       0.00000000       0.00000001      -0.00000002       0.00000028      -0.00000014       0.00000215
Sn       2.34644482       1.35472030      10.48243216       0.00000020      -0.00000038      -0.00000119
Sn       0.00000021       2.70944065      20.96486425      -0.00000010      -0.00000006      -0.00000289
8
Lattice="4.655847511010911 -6.44682477522198e-08 -4.486284064086315e-08 -6.446824700350239e-08 4.6558474645369 -5.6739498616613075e-08 -8.64810349230412e-08 -1.0937538699056249e-07 6.584965314424017" Properties=species:S:1:pos:R:3:forces:R:3 structure_index=1 total_energy=-22.585214614868164 stress="0.028382739052176476 5.203602881920233e-07 -3.948136395592883e-07 4.928309067508962e-07 0.02838238701224327 2.2360959306411132e-08 -6.671560299764678e-07 -1.6687221204847447e-07 0.029073944315314293" pbc="T T T"
Li      -0.00000007       2.32792373       1.64624129      -0.00000012       0.00000001      -0.00000047
Li      -0.00000009       2.32792362       4.93872400      -0.00000028       0.00000072      -0.00000049
Li       2.32792374      -0.00000008       1.64624130      -0.00000006      -0.00000001      -0.00000013
Li       2.32792367      -0.00000011       4.93872401      -0.00000003      -0.00000024      -0.00000041
Li      -0.00000003      -0.00000004       3.29248264       0.00000033      -0.00000013       0.00000036
Li       2.32792371       2.32792371      -0.00000006       0.00000001       0.00000015       0.00000052
Sn       0.00000000       0.00000001      -0.00000002       0.00000037      -0.00000013       0.00000057
Sn       2.32792369       2.32792365       3.29248257      -0.00000024      -0.00000041       0.00000008
6
Lattice="6.2686089894457 1.0385010479126049e-07 5.8911998939948714e-08 -3.134304404786017 5.42877469540614 1.705233011553415e-08 5.262676841746569e-08 4.7973681881140626e-08 5.505027220456107" Properties=species:S:1:pos:R:3:forces:R:3 structure_index=2 total_energy=-21.259876251220703 stress="-0.038578201085329056 -2.3211589450511383e-07 8.66542052335717e-07 -2.8767641424565227e-07 -0.038575220853090286 3.713487330969656e-07 8.278448717646825e-07 4.655680356790981e-07 -0.02257358282804489" pbc="T T T"
Li      -0.00000000      -0.00000000       0.00000000      -0.00000013       0.00000028       0.00000001
Sn      -1.56715219       2.71438736       2.75251361       0.00000020      -0.00000052       0.00000070
Sn       3.13430453       0.00000009       2.75251364       0.00000054      -0.00000030       0.00000006
Sn       1.56715233       2.71438743       2.75251365      -0.00000085       0.00000079      -0.00000007
Sn       0.00000005       3.61918315       0.00000003      -0.00000007       0.00000047      -0.00000080
Sn       3.13430453       1.80959165       0.00000005       0.00000030      -0.00000066       0.00000011
6
Lattice="3.3076291471560597 -1.1551804988773322e-08 5.8392631113176925e-09 -1.6538145835821851 2.8644909696093332 6.442224126772233e-08 2.488309679362842e-08 3.3136066713508795e-07 13.981001331997359" Properties=species:S:1:pos:R:3:forces:R:3 structure_index=3 total_energy=-19.282108306884766 stress="-0.046052493155002594 7.273141022778873e-07 -1.8885097574639076e-07 6.51383061267552e-07 -0.04609144479036331 3.8491648410854395e-06 -2.1005779160532256e-07 3.966754775319714e-06 -0.007401381619274616" pbc="T T T"
Li       0.00000000       0.00000000       0.00000002      -0.00000009       0.00000017       0.00000085
Li       1.65381458       0.95483043       4.66033381       0.00000023       0.00000004       0.00000012
Li       0.00000001       1.90966086       9.32066756      -0.00000012      -0.00000010       0.00000032
Sn       0.00000001       0.00000017       6.99050066      -0.00000016       0.00000003      -0.00000002
Sn       1.65381459       0.95483059      11.65083448       0.00000025       0.00000006      -0.00000122
Sn      -0.00000000       1.90966070       2.33016693      -0.00000011      -0.00000019      -0.00000005
15
Lattice="4.988749978213944 -8.285386243697291e-08 -1.4046538167129173e-07 -2.4943750608605204 4.320383998577118 3.7370266791087965e-07 -3.980867579899918e-07 9.931012449634105e-07 14.587808096901364" Properties=species:S:1:pos:R:3:forces:R:3 structure_index=4 total_energy=-45.59680938720703 stress="0.012781521305441856 2.624103387915966e-07 -1.0339814480175846e-06 -1.8122167944056855e-07 0.012781597673892975 -5.326066911948146e-07 -1.040828237819369e-06 -5.378579430725949e-07 0.019706368446350098" pbc="T T T"
Li      -0.00000016       0.00000040       5.88033925       0.00000030       0.00000034      -0.04586656
Li      -0.00000024       0.00000056       8.70746888       0.00000055       0.00000050       0.04586674
Li       2.49437466       1.44012867      10.74294194      -0.00000013      -0.00000145      -0.04586633
Li       2.49437459       1.44012890      13.57007157      -0.00000023      -0.00000079       0.04586749
Li      -0.00000007       2.88025604       1.01773679      -0.00000013      -0.00000016      -0.04586718
Li      -0.00000016       2.88025622       3.84486636      -0.00000032      -0.00000048       0.04586649
Li      -0.00000000      -0.00000004       0.00000002      -0.00000003       0.00000086       0.00000086
Li       2.49437484       1.44012829       4.86260271      -0.00000004       0.00000022       0.00000057
Li      -0.00000029       2.88025666       9.72520559       0.00000013      -0.00000018       0.00000010
Sn      -0.00000008       0.00000019       3.00105681       0.00000071       0.00000159       0.03034401
Sn      -0.00000033       0.00000072      11.58675130       0.00000020       0.00000143      -0.03034574
Sn       2.49437475       1.44012851       7.86365952      -0.00000024      -0.00000033       0.03034363
Sn       2.49437491       1.44012809       1.86154595      -0.00000043      -0.00000115      -0.03034502
Sn      -0.00000039       2.88025689      12.72626241       0.00000014       0.00000032       0.03034541
Sn      -0.00000024       2.88025643       6.72414876      -0.00000047      -0.00000076      -0.03034455
2
Lattice="3.310771313311995 -6.1295459623703315e-09 -1.5301359332106767e-08 -1.655385661964339 2.867212029603698 3.2110019051957857e-09 -2.150520317470748e-08 -7.2050065092334245e-09 4.6273076249570355" Properties=species:S:1:pos:R:3:forces:R:3 structure_index=5 total_energy=-6.436941146850586 stress="0.06220904365181923 -7.899342904238438e-07 2.7479288178255956e-07 -6.929353730811272e-07 0.06222422793507576 1.562250595554815e-08 2.61827409531179e-07 1.71398770731912e-08 -0.0012971687829121947" pbc="T T T"
Li       1.65538564       0.95573734       2.31365380      -0.00000003       0.00000026      -0.00000005
Sn      -0.00000000       1.91147468       0.00000000       0.00000004      -0.00000026       0.00000005
10
Lattice="4.350943497063085 -1.0726329407308471e-07 -0.9324126408823651 -9.880538742556867e-08 4.460708998311112 3.6402631611983174e-08 -0.04156060404565142 8.865758740506378e-08 10.378334302662456" Properties=species:S:1:pos:R:3:forces:R:3 structure_index=6 total_energy=-30.798574447631836 stress="-0.0070074452087283134 3.796106113895803e-07 0.0008071233169175684 2.19709093585152e-07 0.0007563220569863915 -1.406406795467774e-06 0.0008069787290878594 -1.3642255680679227e-06 -0.003264200408011675" pbc="T T T"
Li       0.19490483       1.11517725       0.92808274      -0.00051579      -0.00000037      -0.01737946
Li       4.11447802       3.34553167       8.51783882       0.00051522      -0.00000026       0.01738017
Li       0.61174258       3.34553177       2.93068730       0.01642722       0.00000021       0.02196503
Li       3.69764021       1.11517720       6.51523441      -0.01642744       0.00000034      -0.02196570
Li       1.50835135       3.34553179       6.93411184      -0.01491088      -0.00000036      -0.01950475
Li       2.80103144       1.11517717       2.51180985       0.01491054       0.00000027       0.01950371
Sn       1.05442406       1.11517729       4.90962986       0.00297120      -0.00000092      -0.00255438
Sn       3.25495872       3.34553171       4.53629185      -0.00297055       0.00000023       0.00255519
Sn       1.92371929       1.11517735       8.87476992      -0.00557996      -0.00000003       0.04509144
Sn       2.38566347       3.34553169       0.57115189       0.00558042       0.00000090      -0.04509123
3
Lattice="3.245130800045647 7.697561112960956e-08 1.620780864559114e-07 7.697561165146645e-08 3.2451311578956963 -4.417748401783203e-08 3.560601443728888e-07 -9.705100649566466e-08 6.652457952773328" Properties=species:S:1:pos:R:3:forces:R:3 structure_index=7 total_energy=-10.540225982666016 stress="0.030102582648396492 9.974539807444671e-07 4.124877250433201e-06 9.98526047624182e-07 0.03013252094388008 6.991406849010673e-07 4.149205324210925e-06 7.581148224744538e-07 -0.004322125110775232" pbc="T T T"
Li      -0.00000001      -0.00000003       0.00000002      -0.00000011      -0.00000005      -0.00000109
Sn       1.62256554       1.62256561       1.89222966       0.00000010       0.00000017      -0.03745121
Sn       1.62256570       1.62256555       4.76022839       0.00000000      -0.00000012       0.03745229
2
Lattice="3.459747814192718 -2.1540038233345773e-08 -1.7355729078634217e-08 -2.1540037676975888e-08 3.4597477483441588 -2.5940314407851152e-08 -1.735572929048267e-08 -2.59403146196996e-08 3.459747766346523" Properties=species:S:1:pos:R:3:forces:R:3 structure_index=8 total_energy=-6.550113677978516 stress="0.12117171287536621 -1.3164581957880728e-07 -5.1250381716272386e-08 -1.0905140612749165e-07 0.12117250263690948 1.5845910183998058e-06 -5.2808488248956564e-08 1.5939405102471937e-06 0.12117297202348709" pbc="T T T"
Li       0.00000002       0.00000002       0.00000003       0.00000050      -0.00000033      -0.00000030
Sn       1.72987386       1.72987383       1.72987383      -0.00000050       0.00000033       0.00000030
16
Lattice="7.424479465113276 6.696971576932533e-08 2.5211771637506494e-09 6.696971696327272e-08 7.424479562682444 -3.226253600635322e-08 2.521176709132382e-09 -3.226253646097147e-08 7.424479740752479" Properties=species:S:1:pos:R:3:forces:R:3 structure_index=9 total_energy=-57.0894889831543 stress="0.01888463832437992 8.019880510801158e-07 -6.70364613597485e-07 8.384758416468685e-07 0.0188844446092844 -3.3042590530385496e-07 -6.95128449024196e-07 -3.04327244293745e-07 0.01888410560786724" pbc="T T T"
Li      -0.00000001      -0.00000000      -0.00000001       0.00000116       0.00000137       0.00000009
Li       3.71223977       3.71223981      -0.00000002      -0.00000127      -0.00000075      -0.00000000
Li       3.71223974       0.00000002       3.71223988      -0.00000080       0.00000003      -0.00000028
Li       0.00000003       3.71223976       3.71223986       0.00000084      -0.00000030      -0.00000033
Sn       1.85611988       1.85611989       1.85611992      -0.00000094      -0.00000041      -0.00000212
Sn       5.56835964       5.56835969       5.56835978      -0.00000109      -0.00000102      -0.00000191
Sn       5.56835961       1.85611993       1.85611992      -0.00000061      -0.00000031       0.00000133
Sn       1.85611992       5.56835966       5.56835978      -0.00000126      -0.00000014       0.00000163
Sn       5.56835965       5.56835971       1.85611990       0.00000012      -0.00000051      -0.00000118
Sn       1.85611989       1.85611988       5.56835978       0.00000037       0.00000015      -0.00000087
Sn       1.85611991       5.56835967       1.85611991       0.00000118      -0.00000048       0.00000246
Sn       5.56835961       1.85611991       5.56835980       0.00000041       0.00000061       0.00000253
Sn       0.00000001       0.00000000       3.71223988       0.00000069      -0.00000017      -0.00000064
Sn       3.71223974       0.00000005       0.00000001       0.00000064       0.00000114       0.00000019
Sn       0.00000004       3.71223979      -0.00000001      -0.00000023      -0.00000080      -0.00000066
Sn       3.71223977       3.71223980       3.71223987       0.00000079       0.00000156      -0.00000025
20
Lattice="8.174940992646558 -2.5991341980258226e-07 -2.38990721285361 -1.7118254977342354e-07 4.728089233752682 -7.459489571914645e-08 -8.878133310912928e-06 -1.4941484483343487e-07 9.540410005336186" Properties=species:S:1:pos:R:3:forces:R:3 structure_index=10 total_energy=-58.306758880615234 stress="-0.007636471185833216 -1.4275848343459074e-06 0.0007411398692056537 -1.773858571141318e-06 0.00015896419063210487 -9.880727702693548e-08 0.0007408550009131432 -2.6868374902733194e-07 0.002627053763717413" pbc="T T T"
Li       0.04075317       3.54606681       8.37531952       0.00676116       0.00000007      -0.00479875
Li       8.13417883       1.18202202      -1.22481684      -0.00676443      -0.00000001       0.00479817
Li       0.06196312       1.18202222       5.97407985      -0.01784073       0.00000042       0.00040936
Li       8.11296882       3.54606662       1.17642287       0.01784055      -0.00000022      -0.00040999
Li       1.52994492       3.54606676       5.94569563       0.00044456      -0.00000053      -0.00678749
Li       6.64498704       1.18202202       1.20480711      -0.00044406      -0.00000014       0.00678702
Li       1.62687566       3.54606685       1.24688591       0.00154283      -0.00000007      -0.01869018
Li       6.54805627       1.18202197       5.90361680      -0.00154054      -0.00000043       0.01868917
Li       3.23659417       1.18202215       1.19805313       0.00130392      -0.00000029      -0.00617420
Li       4.93833777       3.54606665       5.95244962      -0.00130335      -0.00000000       0.00617162
Li       3.26200808       3.54606677       3.68860264       0.01172082       0.00000012      -0.00419238
Li       4.91292386       1.18202204       3.46190007      -0.01172234      -0.00000002       0.00419506
Li       3.28007405       3.54606669       8.25437082      -0.02881531      -0.00000005      -0.00835533
Li       4.89485787       1.18202213      -1.10386810       0.02881445       0.00000000       0.00835740
Sn       1.58709067       1.18202218       3.49358347       0.04623176       0.00000020       0.00630101
Sn       6.58784125       3.54606666       3.65691925      -0.04622950      -0.00000027      -0.00629796
Sn       1.61912268       1.18202209       8.42610927       0.03471780       0.00000035      -0.01755765
Sn       6.55580923       3.54606673      -1.27560657      -0.03471524       0.00000054       0.01755840
Sn       3.31934393       1.18202209       5.94522599      -0.02675689       0.00000006      -0.00106125
Sn       4.85558804       3.54606677       1.20527676       0.02675446       0.00000030       0.00105802
14
Lattice="10.405808229029594 8.343912555672654e-08 -1.5587555102267305e-08 8.343912723010813e-08 10.405808189399126 3.058393581241939e-08 -4.696694090614077e-09 9.215260554573557e-09 3.1556951044475494" Properties=species:S:1:pos:R:3:forces:R:3 structure_index=11 total_energy=-49.97514343261719 stress="-0.0215601809322834 1.9563287878554547e-06 -1.3209957216986368e-07 1.8585124053061008e-06 -0.021559366956353188 1.459722227536986e-07 -1.218652982970525e-07 1.1372041797130805e-07 0.00172291393391788" pbc="T T T"
Li       1.81123491       7.01413896       1.57784757       0.02810976       0.02810853      -0.00000042
Li       8.59457338       3.39166932       1.57784755      -0.02810871      -0.02810841      -0.00000025
Li       3.39166927       1.81123488       1.57784756      -0.02810940       0.02810925      -0.00000061
Li       7.01413904       8.59457340       1.57784757       0.02810801      -0.02810866      -0.00000026
Sn       0.71660178       2.13306263       0.00000000      -0.01621733      -0.00375894       0.00000013
Sn       9.68920655       8.27274565       0.00000001       0.01621887       0.00375729       0.00000011
Sn       8.27274560       0.71660182      -0.00000001       0.00375925      -0.01621874       0.00000008
Sn       2.13306272       9.68920646       0.00000002      -0.00375934       0.01622042       0.00000025
Sn       5.91950590       3.06984151      -0.00000000      -0.01621922       0.00375893       0.00000027
Sn       4.48630243       7.33596675       0.00000001       0.01621878      -0.00375857       0.00000005
Sn       3.06984151       4.48630238       0.00000001       0.00375748       0.01621868       0.00000032
Sn       7.33596678       5.91950588       0.00000001      -0.00375737      -0.01621919      -0.00000002
Sn       0.00000005       5.20290410       0.00000001      -0.00000023      -0.00000032       0.00000010
Sn       5.20290411       0.00000005      -0.00000001      -0.00000056      -0.00000029       0.00000026
12
Lattice="8.729946089995197 -1.420276460451568e-08 1.5962975870893053e-07 -7.899526803501645e-09 5.246025624705564 2.668238781033297e-07 8.699265367168326e-08 2.6143587597703695e-07 5.119663341162022" Properties=species:S:1:pos:R:3:forces:R:3 structure_index=12 total_energy=-35.585269927978516 stress="0.024739885702729225 3.0596913802583003e-07 3.657423519598524e-07 2.708482327307138e-07 0.025799455121159554 1.4255260794016067e-06 4.69027270355582e-07 1.502822783550073e-06 0.026360442861914635" pbc="T T T"
Li       1.44425601       1.72210795       3.83974764       0.00148659       0.04733953      -0.00000047
Li       7.28569008       3.52391788       1.27991609      -0.00148684      -0.04733961       0.00000049
Li       1.44425602       3.52391796       1.27991598       0.00148682      -0.04733935       0.00000057
Li       7.28569021       1.72210803       3.83974773      -0.00148703       0.04733958      -0.00000026
Li       5.80922905       4.34512082       3.83974790       0.00148688       0.04733876      -0.00000025
Li       2.92071712       0.90090504       1.27991581      -0.00148682      -0.04733878       0.00000057
Li       5.80922902       0.90090496       1.27991587       0.00148679      -0.04733872       0.00000052
Li       2.92071721       4.34512090       3.83974789      -0.00148682       0.04733865      -0.00000049
Sn      -0.00000003       0.88192745       1.27991591       0.00000013      -0.01348414       0.00000090
Sn      -0.00000002       4.36409837       3.83974777       0.00000003       0.01348438      -0.00000096
Sn       4.36497311       3.50494029       1.27991615       0.00000002      -0.01348434       0.00000047
Sn       4.36497315       1.74108562       3.83974772       0.00000028       0.01348407      -0.00000109
4
Lattice="4.653283546052793 4.184364880092455e-09 5.52915667297486e-09 4.184365628397521e-09 4.65328360868851 1.5681631161280863e-08 5.52915638804342e-09 1.568163087634942e-08 4.653283553655475" Properties=species:S:1:pos:R:3:forces:R:3 structure_index=13 total_energy=-14.46972942352295 stress="0.0793563649058342 -5.8503438538082264e-08 1.6386678680646583e-07 1.504512603389685e-08 0.07935920357704163 -1.1935154020648042e-07 1.2542703586859716e-07 -1.9656093286357645e-07 0.07935672253370285" pbc="T T T"
Li      -0.00000000       0.00000000      -0.00000000      -0.00000014      -0.00000011      -0.00000018
Sn       0.00000000       2.32664181       2.32664178      -0.00000053      -0.00000004       0.00000033
Sn       2.32664178       0.00000001       2.32664178       0.00000037       0.00000004       0.00000035
Sn       2.32664178       2.32664180       0.00000001       0.00000029       0.00000010      -0.00000051
32
Lattice="6.788947510663059 -4.0994667208086105e-08 -6.016714641518801e-08 -4.9721122878144724e-08 6.772391498885502 -1.213846066126949e-07 -1.2500031227552107e-07 -2.0792261245915514e-07 13.102087592845226" Properties=species:S:1:pos:R:3:forces:R:3 structure_index=14 total_energy=-75.97782135009766 stress="-0.005565054714679718 -2.4195068704102596e-07 -4.9103299204489304e-08 -1.3089574224522948e-07 -0.012515355832874775 -3.0358447133949085e-07 1.4267504866438685e-07 -2.1479027623172442e-07 0.013111995533108711" pbc="T T T"
Li       1.69723684       1.69309784       1.55019151      -0.00000024      -0.00000074       0.01543714
Li       5.09171050       5.07929342      11.55189589       0.00000008      -0.00000013      -0.01543797
Li       5.09171056       5.07929356       1.55019146      -0.00000002      -0.00000009       0.01543768
Li       1.69723674       1.69309768      11.55189599       0.00000018       0.00000046      -0.01543775
Li       1.69723673       5.07929343      11.55189592      -0.00000003      -0.00000031      -0.01543770
Li       5.09171057       1.69309782       1.55019150       0.00000038      -0.00000059       0.01543717
Li       5.09171053       1.69309766      11.55189595       0.00000001       0.00000057      -0.01543790
Li       1.69723683       5.07929359       1.55019147      -0.00000002       0.00000001       0.01543695
Li       5.09171055       1.69309772       8.10123529      -0.00000011       0.00000022       0.01543726
Li       1.69723680       5.07929353       5.00085210       0.00000014      -0.00000035      -0.01543747
Li       1.69723677       5.07929348       8.10123527       0.00000032       0.00000023       0.01543747
Li       5.09171058       1.69309776       5.00085216       0.00000022       0.00000024      -0.01543739
Li       5.09171055       5.07929352       5.00085208       0.00000008      -0.00000042      -0.01543752
Li       1.69723679       1.69309774       8.10123532      -0.00000026       0.00000027       0.01543755
Li       1.69723681       1.69309778       5.00085217      -0.00000001      -0.00000018      -0.01543766
Li       5.09171052       5.07929346       8.10123524      -0.00000039       0.00000047       0.01543749
Li      -0.00000003      -0.00000005       3.03611193      -0.00000015       0.00000015      -0.02412197
Li      -0.00000010      -0.00000015      10.06597568      -0.00000019      -0.00000010       0.02412174
Li       3.39447366      -0.00000017       9.58715568      -0.00000003      -0.00000041      -0.02412075
Li       3.39447373      -0.00000007       3.51493185      -0.00000022       0.00000026       0.02412168
Li       3.39447371       3.38619569       3.03611183      -0.00000002       0.00000008      -0.02412129
Li       3.39447363       3.38619557      10.06597557      -0.00000019      -0.00000033       0.02412232
Li      -0.00000012       3.38619559       9.58715565       0.00000033      -0.00000035      -0.02412083
Li      -0.00000006       3.38619570       3.51493181      -0.00000012      -0.00000012       0.02412195
Li      -0.00000004      -0.00000012       6.55104380      -0.00000008       0.00000002       0.00000068
Li       3.39447376      -0.00000003      -0.00000002       0.00000003       0.00000033      -0.00000013
Li       3.39447367       3.38619562       6.55104371       0.00000011      -0.00000015       0.00000026
Li      -0.00000002       3.38619576      -0.00000007      -0.00000007      -0.00000050      -0.00000035
Sn       0.00000003      -0.00000001      -0.00000004       0.00000002       0.00000045       0.00000244
Sn       3.39447364      -0.00000009       6.55104377       0.00000076       0.00000039      -0.00000115
Sn       3.39447372       3.38619573      -0.00000009       0.00000024       0.00000048      -0.00000053
Sn      -0.00000008       3.38619563       6.55104375      -0.00000065       0.00000010      -0.00000144
9
Lattice="10.29874812052373 -5.191422576297957e-07 -1.9653490805496226e-08 -5.149374509852244 8.918978316573593 -2.1643984557703952e-07 -5.8802994742402705e-09 -7.817169599206168e-08 3.108426516267756" Properties=species:S:1:pos:R:3:forces:R:3 structure_index=15 total_energy=-33.88623809814453 stress="0.016869382932782173 -1.401829649694264e-06 7.871553009408672e-08 -1.359223574581847e-06 0.016869768500328064 7.186837933659262e-07 7.503427212895986e-08 7.314775416489283e-07 -0.004879334941506386" pbc="T T T"
Li      -0.00000004      -0.00000011       1.55421326      -0.00000003      -0.00000308      -0.00000025
Sn      -0.00000016       2.97760363      -0.00000007       0.00000104       0.04708634      -0.00000002
Sn       5.14937375       5.94137426      -0.00000016      -0.00000050      -0.04708578       0.00000023
Sn       7.72006786       1.48880142      -0.00000006      -0.04077914       0.02354305      -0.00000003
Sn      -2.57069423       7.43017638      -0.00000019       0.04077762      -0.02354000      -0.00000005
Sn       2.57069347       7.43017610      -0.00000019      -0.04077388      -0.02354077      -0.00000008
Sn       2.57868021       1.48880172      -0.00000004       0.04077591       0.02354034       0.00000009
Sn      -0.00000028       5.94598537      -0.00000015      -0.00000191      -0.00000027      -0.00000000
Sn       5.14937385       2.97299239      -0.00000009       0.00000088       0.00000017       0.00000011
8
Lattice="4.614171626175234 -3.015651415912767e-09 2.115140702467344e-08 -3.0156506738973763e-09 4.614171632939106 1.5394232699998384e-08 4.4100471178226524e-08 3.2096820385090673e-08 9.458337146876056" Properties=species:S:1:pos:R:3:forces:R:3 structure_index=16 total_energy=-28.92730140686035 stress="-0.03282409533858299 -6.07854673262409e-08 -2.883496961203491e-07 -7.194638840246625e-08 -0.03282341733574867 -5.141946246567386e-08 -3.836995290384948e-07 -1.4682481719319185e-07 0.015706751495599747" pbc="T T T"
Li      -0.00000000       0.00000000      -0.00000004      -0.00000012      -0.00000004       0.00000031
Li       2.30708583       2.30708583       4.72916862       0.00000005      -0.00000005      -0.00000097
Sn       0.00000001       2.30708582       2.36458429      -0.00000003      -0.00000001       0.00000027
Sn       0.00000003       2.30708583       7.09375288      -0.00000003       0.00000007       0.00000040
Sn       2.30708583       0.00000001       2.36458430       0.00000009       0.00000010       0.00000047
Sn       2.30708584       0.00000002       7.09375289       0.00000011      -0.00000004       0.00000035
Sn       0.00000002       0.00000002       4.72916855       0.00000001       0.00000002      -0.00000011
Sn       2.30708581       2.30708582       0.00000002      -0.00000010      -0.00000004      -0.00000072
6