# Tetrahedron method
       -1.0955208737        0.0000000000
       -1.0297896261        0.0000000000
       -0.9640583784        0.0000000000
       -0.8983271308        0.0000000000
       -0.8325958831        0.0000000000
       -0.7668646355        0.0000000000
       -0.7011333878        0.0000000000
       -0.6354021402        0.0000000000
       -0.5696708925        0.0000000000
       -0.5039396449        0.0000000000
       -0.4382083972        0.0000000000
       -0.3724771496        0.0000000000
       -0.3067459020        0.0000000000
       -0.2410146543        0.0000000000
       -0.1752834067        0.0000000000
       -0.1095521590        0.0000000000
       -0.0438209114        0.0000000000
        0.0219103363        0.0003843387
        0.0876415839        0.0057925890
        0.1533728316        0.0204503061
        0.2191040792        0.0381178609
        0.2848353269        0.0602661999
        0.3505665745        0.0874153400
        0.4162978222        0.1199563559
        0.4820290698        0.1573035348
        0.5477603175        0.2139775485
        0.6134915651        0.2520702950
        0.6792228128        0.2872749836
        0.7449540604        0.3332155482
        0.8106853080        0.3908763916
        0.8764165557        0.4735036871
        0.9421478033        0.6013133368
        1.0078790510        0.8539571111
        1.0736102986        0.7288776669
        1.1393415463        0.7862637374
        1.2050727939        0.7986107900
        1.2708040416        0.8907947377
        1.3365352892        1.0527934635
        1.4022665369        1.4905891700
        1.4679977845        1.6908296271
        1.5337290322        1.4272200945
        1.5994602798        1.3302979179
        1.6651915275        1.2921079179
        1.7309227751        1.3119152166
        1.7966540228        1.3539435298
        1.8623852704        1.4532995671
        1.9281165180        1.6127556153
        1.9938477657        2.4053867331
        2.0595790133        2.7875816441
        2.1253102610        2.7843825025
        2.1910415086        2.2508489036
        2.2567727563        1.1020468266
        2.3225040039        1.1920115903
        2.3882352516        1.0718525471
        2.4539664992        0.9525852695
        2.5196977469        1.1890904654
        2.5854289945        4.4352786941
        2.6511602422        6.4616725693
        2.7168914898        1.1376493702
        2.7826227375        0.3466050699
        2.8483539851        0.3520544062
        2.9140852328        0.3597491585
        2.9798164804        0.3733130759
        3.0455477280        0.3840352561
        3.1112789757        0.3957611117
        3.1770102233        0.4121598513
        3.2427414710        0.4314683296
        3.3084727186        0.4510910689
        3.3742039663        0.4765889586
        3.4399352139        0.5055219059
        3.5056664616        0.5483978967
        3.5713977092        0.6097790471
        3.6371289569        0.7371728387
        3.7028602045        0.8300416495
        3.7685914522        0.6694108776
        3.8343226998        0.5916161215
        3.9000539475        0.5680171260
        3.9657851951        0.5268237449
        4.0315164428        0.5175494841
        4.0972476904        0.5031742387
        4.1629789381        0.4854444697
        4.2287101857        0.4777662760
        4.2944414333        0.4682374964
        4.3601726810        0.4606636599
        4.4259039286        0.4560121931
        4.4916351763        0.4493742047
        4.5573664239        0.4474085316
        4.6230976716        0.4499966591
        4.6888289192        0.4594713728
        4.7545601669        0.6969682498
        4.8202914145        1.3106174080
        4.8860226622        3.1745033487
        4.9517539098        3.1708523122
        5.0174851575        2.6490865488
        5.0832164051        2.5783346204
        5.1489476528        2.4373742048
        5.2146789004        2.0141107356
        5.2804101481        1.6028683859
        5.3461413957        1.5137306099
        5.4118726433        1.3316007383
        5.4776038910        0.9753776298
        5.5433351386        1.0051729139
        5.6090663863        1.0429986894
        5.6747976339        1.0855091857
        5.7405288816        1.1402444888
        5.8062601292        1.2032021146
        5.8719913769        1.2806064527
        5.9377226245        1.3875460962
        6.0034538722        1.5379441750
        6.0691851198        1.9328465693
        6.1349163675        2.0710063153
        6.2006476151        1.9994717593
        6.2663788628        2.1292484876
        6.3321101104        2.0660250237
        6.3978413581        2.0414335319
        6.4635726057        1.5964397391
        6.5293038533        1.3737763182
        6.5950351010        1.4126933058
        6.6607663486        1.5088480293
        6.7264975963        1.6426882261
        6.7922288439        1.8885403330
        6.8579600916        2.9322858661
        6.9236913392        1.7202604647
        6.9894225869        1.4553446699
        7.0551538345        1.2506177949
        7.1208850822        1.1528367266
        7.1866163298        1.0692498482
        7.2523475775        1.0133952640
        7.3180788251        0.9777612620
        7.3838100728        0.7403500261
        7.4495413204        0.6540788714
        7.5152725681        0.5427800095
        7.5810038157        0.5207721443
        7.6467350633        0.5720178345
        7.7124663110        0.6512791268
        7.7781975586        0.7276578946
        7.8439288063        0.8701243297
        7.9096600539        1.2167769358
        7.9753913016        1.2180424312
        8.0411225492        1.2095325392
        8.1068537969        1.2165664641
        8.1725850445        1.2600964252
        8.2383162922        1.1627305519
        8.3040475398        1.1368612269
        8.3697787875        1.1331104214
        8.4355100351        0.9457928534
        8.5012412828        0.9279388786
        8.5669725304        0.9376101365
        8.6327037781        0.9882484934
        8.6984350257        1.1073077060
        8.7641662733        1.1495766024
        8.8298975210        1.2202467119
        8.8956287686        0.9825451900
        8.9613600163        0.8190371720
        9.0270912639        0.5730610752
        9.0928225116        0.6648594679
        9.1585537592        0.8618252651
        9.2242850069        1.3381277554
        9.2900162545        2.0719309235
        9.3557475022        3.4530003910
        9.4214787498        3.7814281731
        9.4872099975        0.2612200966
        9.5529412451        0.5085867177
        9.6186724928        1.0194236596
        9.6844037404        1.7808619554
        9.7501349881        3.0485639164
        9.8158662357        1.4535485058
        9.8815974833        1.0552400255
        9.9473287310        0.8532685440
       10.0130599786        0.7327413215
       10.0787912263        0.6476830055
       10.1445224739        0.5840372416
       10.2102537216        0.5341883542
       10.2759849692        0.4932439063
       10.3417162169        0.4594545267
       10.4074474645        0.4303229688
       10.4731787122        0.3572333583
       10.5389099598        0.3022354080
       10.6046412075        0.2577816437
       10.6703724551        0.2188539121
       10.7361037028        0.1810211847
       10.8018349504        0.1430779038
       10.8675661981        0.1004408439
       10.9332974457        0.0369137885
       10.9990286934        0.0000000000
       11.0647599410        0.0000000000
       11.1304911886        0.0000000000
       11.1962224363        0.0000000000
       11.2619536839        0.0000000000
       11.3276849316        0.0000000000
       11.3934161792        0.0000000000
       11.4591474269        0.0000000000
       11.5248786745        0.0000000000
       11.5906099222        0.0000000000
       11.6563411698        0.0000000000
       11.7220724175        0.0000000000
       11.7878036651        0.0000000000
       11.8535349128        0.0000000000
       11.9192661604        0.0000000000
       11.9849974081        0.0000000000
       12.0507286557        0.0000000000
