phonopy:
  version: "2.37.1"
  frequency_unit_conversion_factor: 15.633302
  symmetry_tolerance: 1.00000e-05

space_group:
  type: "P1"
  number: 1
  Hall_symbol: "P 1"

primitive_matrix:
- [ -1.000000000000000,  0.000000000000000,  0.000000000000000 ]
- [  0.000000000000000,  1.000000000000000, -0.000000000000000 ]
- [  0.000000000000000,  0.000000000000000, -1.000000000000000 ]

supercell_matrix:
- [   3,   0,   0 ]
- [   0,   2,   0 ]
- [   0,   0,   2 ]

primitive_cell:
  lattice:
  - [    -4.389769939433558,     0.000000000000000,     0.000000000000000 ] # a
  - [    -2.194788090416880,     4.630077056789959,     0.000000000000000 ] # b
  - [    -0.000009194855485,     1.962690347638784,    -8.568317949906174 ] # c
  points:
  - symbol: Li # 1
    coordinates: [  0.963128321319016,  0.269843340203840,  0.442022887766001 ]
    mass: 6.940000
  - symbol: Li # 2
    coordinates: [  0.640079456017101,  0.915972355619851,  0.665926272965880 ]
    mass: 6.940000
  - symbol: Li # 3
    coordinates: [  0.295365861327674,  0.605507677652575,  0.233035195251733 ]
    mass: 6.940000
  - symbol: Li # 4
    coordinates: [  0.293693655204413,  0.608636572247885,  0.554481984891252 ]
    mass: 6.940000
  - symbol: Li # 5
    coordinates: [  0.618195546886348,  0.959974891302483,  0.009072250237128 ]
    mass: 6.940000
  - symbol: Li # 6
    coordinates: [  0.964707152088209,  0.266972776720651,  0.120553992156421 ]
    mass: 6.940000
  - symbol: Sn # 7
    coordinates: [  0.629251884960669,  0.937673159798449,  0.337535825858102 ]
    mass: 118.710000
  - symbol: Sn # 8
    coordinates: [  0.292372204758107,  0.611555449306374,  0.903574965400095 ]
    mass: 118.710000
  - symbol: Sn # 9
    coordinates: [  0.965874567498070,  0.264456571383281,  0.771454042882300 ]
    mass: 118.710000
  reciprocal_lattice: # without 2pi
  - [    -0.227802370920841,    -0.107984796912306,    -0.024735149328108 ] # a*
  - [    -0.000000000000000,     0.215979126855677,     0.049472971247027 ] # b*
  - [    -0.000000000000000,     0.000000000000000,    -0.116709021052487 ] # c*

unit_cell:
  lattice:
  - [     4.389769939433559,     0.000000000000000,     0.000000000000000 ] # a
  - [    -2.194788090416881,     4.630077056789959,     0.000000000000000 ] # b
  - [     0.000009194855485,    -1.962690347638785,     8.568317949906174 ] # c
  points:
  - symbol: Li # 1
    coordinates: [  0.036871678680984,  0.269843340203840,  0.557977112233999 ]
    mass: 6.940000
    reduced_to: 1
  - symbol: Li # 2
    coordinates: [  0.359920543982899,  0.915972355619851,  0.334073727034120 ]
    mass: 6.940000
    reduced_to: 2
  - symbol: Li # 3
    coordinates: [  0.704634138672326,  0.605507677652575,  0.766964804748267 ]
    mass: 6.940000
    reduced_to: 3
  - symbol: Li # 4
    coordinates: [  0.706306344795587,  0.608636572247885,  0.445518015108748 ]
    mass: 6.940000
    reduced_to: 4
  - symbol: Li # 5
    coordinates: [  0.381804453113652,  0.959974891302482,  0.990927749762872 ]
    mass: 6.940000
    reduced_to: 5
  - symbol: Li # 6
    coordinates: [  0.035292847911791,  0.266972776720651,  0.879446007843579 ]
    mass: 6.940000
    reduced_to: 6
  - symbol: Sn # 7
    coordinates: [  0.370748115039331,  0.937673159798448,  0.662464174141898 ]
    mass: 118.710000
    reduced_to: 7
  - symbol: Sn # 8
    coordinates: [  0.707627795241893,  0.611555449306374,  0.096425034599905 ]
    mass: 118.710000
    reduced_to: 8
  - symbol: Sn # 9
    coordinates: [  0.034125432501930,  0.264456571383281,  0.228545957117700 ]
    mass: 118.710000
    reduced_to: 9

supercell:
  lattice:
  - [    13.169309818300675,     0.000000000000000,     0.000000000000000 ] # a
  - [    -4.389576180833761,     9.260154113579919,     0.000000000000000 ] # b
  - [     0.000018389710970,    -3.925380695277569,    17.136635899812347 ] # c
  points:
  - symbol: Li # 1
    coordinates: [  0.012290559560328,  0.134921670101920,  0.278988556117000 ]
    mass: 6.940000
    reduced_to: 1
  - symbol: Li # 2
    coordinates: [  0.345623892893661,  0.134921670101920,  0.278988556117000 ]
    mass: 6.940000
    reduced_to: 1
  - symbol: Li # 3
    coordinates: [  0.678957226226995,  0.134921670101920,  0.278988556117000 ]
    mass: 6.940000
    reduced_to: 1
  - symbol: Li # 4
    coordinates: [  0.012290559560328,  0.634921670101920,  0.278988556117000 ]
    mass: 6.940000
    reduced_to: 1
  - symbol: Li # 5
    coordinates: [  0.345623892893661,  0.634921670101920,  0.278988556117000 ]
    mass: 6.940000
    reduced_to: 1
  - symbol: Li # 6
    coordinates: [  0.678957226226995,  0.634921670101920,  0.278988556117000 ]
    mass: 6.940000
    reduced_to: 1
  - symbol: Li # 7
    coordinates: [  0.012290559560328,  0.134921670101920,  0.778988556117000 ]
    mass: 6.940000
    reduced_to: 1
  - symbol: Li # 8
    coordinates: [  0.345623892893661,  0.134921670101920,  0.778988556117000 ]
    mass: 6.940000
    reduced_to: 1
  - symbol: Li # 9
    coordinates: [  0.678957226226995,  0.134921670101920,  0.778988556117000 ]
    mass: 6.940000
    reduced_to: 1
  - symbol: Li # 10
    coordinates: [  0.012290559560328,  0.634921670101920,  0.778988556117000 ]
    mass: 6.940000
    reduced_to: 1
  - symbol: Li # 11
    coordinates: [  0.345623892893661,  0.634921670101920,  0.778988556117000 ]
    mass: 6.940000
    reduced_to: 1
  - symbol: Li # 12
    coordinates: [  0.678957226226995,  0.634921670101920,  0.778988556117000 ]
    mass: 6.940000
    reduced_to: 1
  - symbol: Li # 13
    coordinates: [  0.119973514660966,  0.457986177809925,  0.167036863517060 ]
    mass: 6.940000
    reduced_to: 13
  - symbol: Li # 14
    coordinates: [  0.453306847994300,  0.457986177809925,  0.167036863517060 ]
    mass: 6.940000
    reduced_to: 13
  - symbol: Li # 15
    coordinates: [  0.786640181327633,  0.457986177809925,  0.167036863517060 ]
    mass: 6.940000
    reduced_to: 13
  - symbol: Li # 16
    coordinates: [  0.119973514660966,  0.957986177809925,  0.167036863517060 ]
    mass: 6.940000
    reduced_to: 13
  - symbol: Li # 17
    coordinates: [  0.453306847994300,  0.957986177809925,  0.167036863517060 ]
    mass: 6.940000
    reduced_to: 13
  - symbol: Li # 18
    coordinates: [  0.786640181327633,  0.957986177809925,  0.167036863517060 ]
    mass: 6.940000
    reduced_to: 13
  - symbol: Li # 19
    coordinates: [  0.119973514660966,  0.457986177809925,  0.667036863517060 ]
    mass: 6.940000
    reduced_to: 13
  - symbol: Li # 20
    coordinates: [  0.453306847994300,  0.457986177809925,  0.667036863517060 ]
    mass: 6.940000
    reduced_to: 13
  - symbol: Li # 21
    coordinates: [  0.786640181327633,  0.457986177809925,  0.667036863517060 ]
    mass: 6.940000
    reduced_to: 13
  - symbol: Li # 22
    coordinates: [  0.119973514660966,  0.957986177809925,  0.667036863517060 ]
    mass: 6.940000
    reduced_to: 13
  - symbol: Li # 23
    coordinates: [  0.453306847994300,  0.957986177809925,  0.667036863517060 ]
    mass: 6.940000
    reduced_to: 13
  - symbol: Li # 24
    coordinates: [  0.786640181327633,  0.957986177809925,  0.667036863517060 ]
    mass: 6.940000
    reduced_to: 13
  - symbol: Li # 25
    coordinates: [  0.234878046224109,  0.302753838826287,  0.383482402374134 ]
    mass: 6.940000
    reduced_to: 25
  - symbol: Li # 26
    coordinates: [  0.568211379557442,  0.302753838826287,  0.383482402374134 ]
    mass: 6.940000
    reduced_to: 25
  - symbol: Li # 27
    coordinates: [  0.901544712890775,  0.302753838826287,  0.383482402374134 ]
    mass: 6.940000
    reduced_to: 25
  - symbol: Li # 28
    coordinates: [  0.234878046224109,  0.802753838826287,  0.383482402374134 ]
    mass: 6.940000
    reduced_to: 25
  - symbol: Li # 29
    coordinates: [  0.568211379557442,  0.802753838826287,  0.383482402374134 ]
    mass: 6.940000
    reduced_to: 25
  - symbol: Li # 30
    coordinates: [  0.901544712890775,  0.802753838826287,  0.383482402374134 ]
    mass: 6.940000
    reduced_to: 25
  - symbol: Li # 31
    coordinates: [  0.234878046224109,  0.302753838826287,  0.883482402374134 ]
    mass: 6.940000
    reduced_to: 25
  - symbol: Li # 32
    coordinates: [  0.568211379557442,  0.302753838826287,  0.883482402374134 ]
    mass: 6.940000
    reduced_to: 25
  - symbol: Li # 33
    coordinates: [  0.901544712890775,  0.302753838826287,  0.883482402374134 ]
    mass: 6.940000
    reduced_to: 25
  - symbol: Li # 34
    coordinates: [  0.234878046224109,  0.802753838826287,  0.883482402374134 ]
    mass: 6.940000
    reduced_to: 25
  - symbol: Li # 35
    coordinates: [  0.568211379557442,  0.802753838826287,  0.883482402374134 ]
    mass: 6.940000
    reduced_to: 25
  - symbol: Li # 36
    coordinates: [  0.901544712890775,  0.802753838826287,  0.883482402374134 ]
    mass: 6.940000
    reduced_to: 25
  - symbol: Li # 37
    coordinates: [  0.235435448265196,  0.304318286123942,  0.222759007554374 ]
    mass: 6.940000
    reduced_to: 37
  - symbol: Li # 38
    coordinates: [  0.568768781598529,  0.304318286123942,  0.222759007554374 ]
    mass: 6.940000
    reduced_to: 37
  - symbol: Li # 39
    coordinates: [  0.902102114931862,  0.304318286123942,  0.222759007554374 ]
    mass: 6.940000
    reduced_to: 37
  - symbol: Li # 40
    coordinates: [  0.235435448265196,  0.804318286123942,  0.222759007554374 ]
    mass: 6.940000
    reduced_to: 37
  - symbol: Li # 41
    coordinates: [  0.568768781598529,  0.804318286123942,  0.222759007554374 ]
    mass: 6.940000
    reduced_to: 37
  - symbol: Li # 42
    coordinates: [  0.902102114931862,  0.804318286123942,  0.222759007554374 ]
    mass: 6.940000
    reduced_to: 37
  - symbol: Li # 43
    coordinates: [  0.235435448265196,  0.304318286123942,  0.722759007554374 ]
    mass: 6.940000
    reduced_to: 37
  - symbol: Li # 44
    coordinates: [  0.568768781598529,  0.304318286123942,  0.722759007554374 ]
    mass: 6.940000
    reduced_to: 37
  - symbol: Li # 45
    coordinates: [  0.902102114931862,  0.304318286123942,  0.722759007554374 ]
    mass: 6.940000
    reduced_to: 37
  - symbol: Li # 46
    coordinates: [  0.235435448265196,  0.804318286123942,  0.722759007554374 ]
    mass: 6.940000
    reduced_to: 37
  - symbol: Li # 47
    coordinates: [  0.568768781598529,  0.804318286123942,  0.722759007554374 ]
    mass: 6.940000
    reduced_to: 37
  - symbol: Li # 48
    coordinates: [  0.902102114931862,  0.804318286123942,  0.722759007554374 ]
    mass: 6.940000
    reduced_to: 37
  - symbol: Li # 49
    coordinates: [  0.127268151037884,  0.479987445651241,  0.495463874881436 ]
    mass: 6.940000
    reduced_to: 49
  - symbol: Li # 50
    coordinates: [  0.460601484371217,  0.479987445651241,  0.495463874881436 ]
    mass: 6.940000
    reduced_to: 49
  - symbol: Li # 51
    coordinates: [  0.793934817704551,  0.479987445651241,  0.495463874881436 ]
    mass: 6.940000
    reduced_to: 49
  - symbol: Li # 52
    coordinates: [  0.127268151037884,  0.979987445651241,  0.495463874881436 ]
    mass: 6.940000
    reduced_to: 49
  - symbol: Li # 53
    coordinates: [  0.460601484371217,  0.979987445651241,  0.495463874881436 ]
    mass: 6.940000
    reduced_to: 49
  - symbol: Li # 54
    coordinates: [  0.793934817704551,  0.979987445651241,  0.495463874881436 ]
    mass: 6.940000
    reduced_to: 49
  - symbol: Li # 55
    coordinates: [  0.127268151037884,  0.479987445651241,  0.995463874881436 ]
    mass: 6.940000
    reduced_to: 49
  - symbol: Li # 56
    coordinates: [  0.460601484371217,  0.479987445651241,  0.995463874881436 ]
    mass: 6.940000
    reduced_to: 49
  - symbol: Li # 57
    coordinates: [  0.793934817704551,  0.479987445651241,  0.995463874881436 ]
    mass: 6.940000
    reduced_to: 49
  - symbol: Li # 58
    coordinates: [  0.127268151037884,  0.979987445651241,  0.995463874881436 ]
    mass: 6.940000
    reduced_to: 49
  - symbol: Li # 59
    coordinates: [  0.460601484371217,  0.979987445651241,  0.995463874881436 ]
    mass: 6.940000
    reduced_to: 49
  - symbol: Li # 60
    coordinates: [  0.793934817704551,  0.979987445651241,  0.995463874881436 ]
    mass: 6.940000
    reduced_to: 49
  - symbol: Li # 61
    coordinates: [  0.011764282637264,  0.133486388360326,  0.439723003921790 ]
    mass: 6.940000
    reduced_to: 61
  - symbol: Li # 62
    coordinates: [  0.345097615970597,  0.133486388360326,  0.439723003921790 ]
    mass: 6.940000
    reduced_to: 61
  - symbol: Li # 63
    coordinates: [  0.678430949303930,  0.133486388360326,  0.439723003921790 ]
    mass: 6.940000
    reduced_to: 61
  - symbol: Li # 64
    coordinates: [  0.011764282637264,  0.633486388360326,  0.439723003921790 ]
    mass: 6.940000
    reduced_to: 61
  - symbol: Li # 65
    coordinates: [  0.345097615970597,  0.633486388360326,  0.439723003921790 ]
    mass: 6.940000
    reduced_to: 61
  - symbol: Li # 66
    coordinates: [  0.678430949303930,  0.633486388360326,  0.439723003921790 ]
    mass: 6.940000
    reduced_to: 61
  - symbol: Li # 67
    coordinates: [  0.011764282637264,  0.133486388360326,  0.939723003921790 ]
    mass: 6.940000
    reduced_to: 61
  - symbol: Li # 68
    coordinates: [  0.345097615970597,  0.133486388360326,  0.939723003921790 ]
    mass: 6.940000
    reduced_to: 61
  - symbol: Li # 69
    coordinates: [  0.678430949303930,  0.133486388360326,  0.939723003921790 ]
    mass: 6.940000
    reduced_to: 61
  - symbol: Li # 70
    coordinates: [  0.011764282637264,  0.633486388360326,  0.939723003921790 ]
    mass: 6.940000
    reduced_to: 61
  - symbol: Li # 71
    coordinates: [  0.345097615970597,  0.633486388360326,  0.939723003921790 ]
    mass: 6.940000
    reduced_to: 61
  - symbol: Li # 72
    coordinates: [  0.678430949303930,  0.633486388360326,  0.939723003921790 ]
    mass: 6.940000
    reduced_to: 61
  - symbol: Sn # 73
    coordinates: [  0.123582705013110,  0.468836579899224,  0.331232087070949 ]
    mass: 118.710000
    reduced_to: 73
  - symbol: Sn # 74
    coordinates: [  0.456916038346444,  0.468836579899224,  0.331232087070949 ]
    mass: 118.710000
    reduced_to: 73
  - symbol: Sn # 75
    coordinates: [  0.790249371679777,  0.468836579899224,  0.331232087070949 ]
    mass: 118.710000
    reduced_to: 73
  - symbol: Sn # 76
    coordinates: [  0.123582705013110,  0.968836579899224,  0.331232087070949 ]
    mass: 118.710000
    reduced_to: 73
  - symbol: Sn # 77
    coordinates: [  0.456916038346444,  0.968836579899224,  0.331232087070949 ]
    mass: 118.710000
    reduced_to: 73
  - symbol: Sn # 78
    coordinates: [  0.790249371679777,  0.968836579899224,  0.331232087070949 ]
    mass: 118.710000
    reduced_to: 73
  - symbol: Sn # 79
    coordinates: [  0.123582705013110,  0.468836579899224,  0.831232087070949 ]
    mass: 118.710000
    reduced_to: 73
  - symbol: Sn # 80
    coordinates: [  0.456916038346444,  0.468836579899224,  0.831232087070949 ]
    mass: 118.710000
    reduced_to: 73
  - symbol: Sn # 81
    coordinates: [  0.790249371679777,  0.468836579899224,  0.831232087070949 ]
    mass: 118.710000
    reduced_to: 73
  - symbol: Sn # 82
    coordinates: [  0.123582705013110,  0.968836579899224,  0.831232087070949 ]
    mass: 118.710000
    reduced_to: 73
  - symbol: Sn # 83
    coordinates: [  0.456916038346444,  0.968836579899224,  0.831232087070949 ]
    mass: 118.710000
    reduced_to: 73
  - symbol: Sn # 84
    coordinates: [  0.790249371679777,  0.968836579899224,  0.831232087070949 ]
    mass: 118.710000
    reduced_to: 73
  - symbol: Sn # 85
    coordinates: [  0.235875931747298,  0.305777724653187,  0.048212517299953 ]
    mass: 118.710000
    reduced_to: 85
  - symbol: Sn # 86
    coordinates: [  0.569209265080631,  0.305777724653187,  0.048212517299953 ]
    mass: 118.710000
    reduced_to: 85
  - symbol: Sn # 87
    coordinates: [  0.902542598413964,  0.305777724653187,  0.048212517299953 ]
    mass: 118.710000
    reduced_to: 85
  - symbol: Sn # 88
    coordinates: [  0.235875931747298,  0.805777724653187,  0.048212517299953 ]
    mass: 118.710000
    reduced_to: 85
  - symbol: Sn # 89
    coordinates: [  0.569209265080631,  0.805777724653187,  0.048212517299953 ]
    mass: 118.710000
    reduced_to: 85
  - symbol: Sn # 90
    coordinates: [  0.902542598413964,  0.805777724653187,  0.048212517299953 ]
    mass: 118.710000
    reduced_to: 85
  - symbol: Sn # 91
    coordinates: [  0.235875931747298,  0.305777724653187,  0.548212517299953 ]
    mass: 118.710000
    reduced_to: 85
  - symbol: Sn # 92
    coordinates: [  0.569209265080631,  0.305777724653187,  0.548212517299953 ]
    mass: 118.710000
    reduced_to: 85
  - symbol: Sn # 93
    coordinates: [  0.902542598413964,  0.305777724653187,  0.548212517299953 ]
    mass: 118.710000
    reduced_to: 85
  - symbol: Sn # 94
    coordinates: [  0.235875931747298,  0.805777724653187,  0.548212517299953 ]
    mass: 118.710000
    reduced_to: 85
  - symbol: Sn # 95
    coordinates: [  0.569209265080631,  0.805777724653187,  0.548212517299953 ]
    mass: 118.710000
    reduced_to: 85
  - symbol: Sn # 96
    coordinates: [  0.902542598413964,  0.805777724653187,  0.548212517299953 ]
    mass: 118.710000
    reduced_to: 85
  - symbol: Sn # 97
    coordinates: [  0.011375144167310,  0.132228285691640,  0.114272978558850 ]
    mass: 118.710000
    reduced_to: 97
  - symbol: Sn # 98
    coordinates: [  0.344708477500643,  0.132228285691640,  0.114272978558850 ]
    mass: 118.710000
    reduced_to: 97
  - symbol: Sn # 99
    coordinates: [  0.678041810833977,  0.132228285691640,  0.114272978558850 ]
    mass: 118.710000
    reduced_to: 97
  - symbol: Sn # 100
    coordinates: [  0.011375144167310,  0.632228285691640,  0.114272978558850 ]
    mass: 118.710000
    reduced_to: 97
  - symbol: Sn # 101
    coordinates: [  0.344708477500643,  0.632228285691640,  0.114272978558850 ]
    mass: 118.710000
    reduced_to: 97
  - symbol: Sn # 102
    coordinates: [  0.678041810833977,  0.632228285691640,  0.114272978558850 ]
    mass: 118.710000
    reduced_to: 97
  - symbol: Sn # 103
    coordinates: [  0.011375144167310,  0.132228285691640,  0.614272978558850 ]
    mass: 118.710000
    reduced_to: 97
  - symbol: Sn # 104
    coordinates: [  0.344708477500643,  0.132228285691640,  0.614272978558850 ]
    mass: 118.710000
    reduced_to: 97
  - symbol: Sn # 105
    coordinates: [  0.678041810833977,  0.132228285691640,  0.614272978558850 ]
    mass: 118.710000
    reduced_to: 97
  - symbol: Sn # 106
    coordinates: [  0.011375144167310,  0.632228285691640,  0.614272978558850 ]
    mass: 118.710000
    reduced_to: 97
  - symbol: Sn # 107
    coordinates: [  0.344708477500643,  0.632228285691640,  0.614272978558850 ]
    mass: 118.710000
    reduced_to: 97
  - symbol: Sn # 108
    coordinates: [  0.678041810833977,  0.632228285691640,  0.614272978558850 ]
    mass: 118.710000
    reduced_to: 97

displacements:
- atom:    1
  displacement:
    [   0.0100000000000000,  0.0000000000000000,  0.0000000000000000 ]
  forces:
  - [  -0.0206456594169140,  0.0008001225069165,  0.0026272926479578 ]
  - [  -0.0005262839840725,  0.0008957916870713,  0.0026199948042631 ]
  - [  -0.0005147624760866,  0.0004424592480063,  0.0027928370982409 ]
  - [   0.0000539962056791,  0.0007782690227032,  0.0029113627970219 ]
  - [  -0.0000803833827376,  0.0007649865001440,  0.0026355292648077 ]
  - [  -0.0000796601525508,  0.0004796041175723,  0.0025732722133398 ]
  - [  -0.0001867079990916,  0.0006712349131703,  0.0027065910398960 ]
  - [  -0.0001875079033198,  0.0006704544648528,  0.0027043633162975 ]
  - [  -0.0001864248770289,  0.0006721941754222,  0.0027085579931736 ]
  - [  -0.0001878589100670,  0.0006714602932334,  0.0027085654437542 ]
  - [  -0.0001869565166999,  0.0006704358384013,  0.0027047693729401 ]
  - [  -0.0001880735071609,  0.0006705718114972,  0.0027047498151660 ]
  - [   0.0000241501256824,  0.0026757828891277, -0.0265771523118019 ]
  - [  -0.0001530442386866,  0.0026585049927235, -0.0265793502330780 ]
  - [  -0.0001554004848003,  0.0027029886841774, -0.0265755504369736 ]
  - [   0.0009207795374095,  0.0021676011383533, -0.0277566090226173 ]
  - [  -0.0000158586590260,  0.0026761051267385, -0.0265756845474243 ]
  - [   0.0008996878750622,  0.0031736847013235, -0.0254225134849548 ]
  - [  -0.0000796187669039,  0.0026775561273098, -0.0265769362449646 ]
  - [  -0.0000733183696866,  0.0026756543666124, -0.0265745595097542 ]
  - [  -0.0000727633014321,  0.0026783421635628, -0.0265785455703735 ]
  - [  -0.0000741468902561,  0.0026775244623423, -0.0265607535839081 ]
  - [  -0.0000791382408352,  0.0026753861457109, -0.0265781804919243 ]
  - [  -0.0000743921118556,  0.0026787482202053, -0.0265912264585495 ]
  - [   0.0018213491421193,  0.0013602697290480, -0.0012604123912752 ]
  - [   0.0000331406554324,  0.0002214396372437, -0.0027108774520457 ]
  - [   0.0018000050913543, -0.0008954135701060, -0.0041324272751808 ]
  - [  -0.0009950995445251,  0.0008566901087761, -0.0030717714689672 ]
  - [  -0.0009344698628411, -0.0004042214713991, -0.0023453240282834 ]
  - [  -0.0002131611690857,  0.0002098120748997, -0.0027156951837242 ]
  - [  -0.0000112903435365,  0.0002072025090456, -0.0026512555778027 ]
  - [  -0.0000075438001659,  0.0002225078642368, -0.0027102180756629 ]
  - [  -0.0000112066609290,  0.0002382472157478, -0.0027681523934007 ]
  - [  -0.0000055514956330,  0.0002174377441406, -0.0026988401077688 ]
  - [  -0.0000047246321628,  0.0002268590033054, -0.0027194749563932 ]
  - [  -0.0000175203658728,  0.0002218913286924, -0.0027094185352325 ]
  - [   0.0019678187090904,  0.0177227072417736, -0.0400233268737793 ]
  - [  -0.0003500971361063,  0.0155205931514502, -0.0386891067028046 ]
  - [   0.0019560335204005,  0.0133549068123102, -0.0373781695961952 ]
  - [  -0.0004387516528368,  0.0154310772195458, -0.0384617187082767 ]
  - [  -0.0004264870658517,  0.0156023725867271, -0.0389142856001854 ]
  - [  -0.0008131610229611,  0.0155293773859739, -0.0386883839964867 ]
  - [  -0.0003910990199074,  0.0155187714844942, -0.0386955104768276 ]
  - [  -0.0003932206600439,  0.0155160054564476, -0.0386896505951881 ]
  - [  -0.0003923879994545,  0.0155138093978167, -0.0386844836175442 ]
  - [  -0.0003934144042432,  0.0155197847634554, -0.0386914238333702 ]
  - [  -0.0003937948495150,  0.0155173167586327, -0.0386899746954441 ]
  - [  -0.0003908034414053,  0.0155189801007509, -0.0386893078684807 ]
  - [   0.0002461522817612, -0.0032228045165539,  0.0259035378694534 ]
  - [   0.0001335609704256, -0.0032897805795074,  0.0258516520261765 ]
  - [   0.0001335833221674, -0.0031699445098639,  0.0259678959846497 ]
  - [   0.0003481354797259, -0.0032277163118124,  0.0256461277604103 ]
  - [   0.0002493943029549, -0.0032272338867188,  0.0259054079651833 ]
  - [   0.0003523873747326, -0.0032250033691525,  0.0261607617139816 ]
  - [   0.0002649445086718, -0.0032263435423374,  0.0259041711688042 ]
  - [   0.0002490431070328, -0.0032327054068446,  0.0259069278836250 ]
  - [   0.0002419045194983, -0.0032236501574516,  0.0259087458252907 ]
  - [   0.0003778908285312, -0.0032833302393556,  0.0257605835795403 ]
  - [   0.0002462650591042, -0.0032287715002894,  0.0259064137935638 ]
  - [   0.0003741933614947, -0.0031752800568938,  0.0260531753301620 ]
  - [  -0.0004042677464895, -0.0154599398374557,  0.0385035499930382 ]
  - [   0.0002860036911443, -0.0156334340572357,  0.0384588241577148 ]
  - [   0.0002882686094381, -0.0152997188270092,  0.0385651849210262 ]
  - [   0.0004542187380139, -0.0155365876853466,  0.0383929163217545 ]
  - [   0.0004010479606222, -0.0154455285519361,  0.0386375039815903 ]
  - [   0.0003506604116410, -0.0154206417500973,  0.0385095253586769 ]
  - [   0.0003325685975142, -0.0154652185738087,  0.0385126471519470 ]
  - [   0.0003219753270969, -0.0154525376856327,  0.0385070443153381 ]
  - [   0.0003231877635699, -0.0154772624373436,  0.0385234951972961 ]
  - [   0.0003379574627616, -0.0154754929244518,  0.0384910777211189 ]
  - [   0.0003097683656961, -0.0154730975627899,  0.0385158881545067 ]
  - [   0.0003379691625014, -0.0154564492404461,  0.0385365076363087 ]
  - [   0.0008821417577565,  0.0004493953019846,  0.0008376677287742 ]
  - [  -0.0000711978791514,  0.0005086084129289,  0.0009305749554187 ]
  - [  -0.0000121220073197,  0.0004274201055523,  0.0008074246579781 ]
  - [   0.0056487787514925, -0.0034473510459065,  0.0029672328382730 ]
  - [   0.0003348825848661,  0.0004607904702425,  0.0008621662855148 ]
  - [   0.0054901940748096,  0.0042229602113366, -0.0011567790061235 ]
  - [  -0.0000596805766691,  0.0004700037243310,  0.0008552639046684 ]
  - [  -0.0000552254059585,  0.0004779370792676,  0.0008668883237988 ]
  - [  -0.0000554194703000,  0.0004714610986412,  0.0008577385451645 ]
  - [  -0.0000547765666852,  0.0004582135006785,  0.0008640848100185 ]
  - [  -0.0000545190378034,  0.0004662919091061,  0.0008612035308033 ]
  - [  -0.0000545948641957,  0.0004764639306813,  0.0008556951070204 ]
  - [   0.0002744218800217,  0.0122332163155079,  0.0115145081654191 ]
  - [   0.0000733860069886,  0.0121268751099706,  0.0115314926952124 ]
  - [   0.0002720564079937,  0.0121340509504080,  0.0115903764963150 ]
  - [  -0.0000337008386850,  0.0122515931725502,  0.0116723375394940 ]
  - [  -0.0000128773972392,  0.0120809506624937,  0.0114157665520906 ]
  - [   0.0000929674133658,  0.0121652930974960,  0.0115444008260965 ]
  - [   0.0001765142078511,  0.0122332917526364,  0.0115932477638125 ]
  - [   0.0001085286203306,  0.0121577326208353,  0.0115527678281069 ]
  - [   0.0001738659921102,  0.0121068116277456,  0.0114987352862954 ]
  - [   0.0000998592004180,  0.0121786668896675,  0.0115564316511154 ]
  - [   0.0001077670603991,  0.0121520478278399,  0.0115244844928384 ]
  - [   0.0001475596800447,  0.0121692884713411,  0.0115620456635952 ]
  - [   0.0008118357509375, -0.0130383446812630, -0.0115270670503378 ]
  - [  -0.0000874707475305, -0.0129586309194565, -0.0115392543375492 ]
  - [  -0.0000914791598916, -0.0130934864282608, -0.0115753188729286 ]
  - [   0.0000421086806455, -0.0128431394696236, -0.0116099305450916 ]
  - [   0.0000350996851921, -0.0131657756865025, -0.0115483980625868 ]
  - [   0.0000381022691727, -0.0130775608122349, -0.0115133188664913 ]
  - [   0.0000853631645441, -0.0130329700186849, -0.0115569839254022 ]
  - [  -0.0000108350068331, -0.0130085535347462, -0.0115901194512844 ]
  - [  -0.0000110799446702, -0.0130480993539095, -0.0115239750593901 ]
  - [   0.0000209165809792, -0.0129800029098988, -0.0115475095808506 ]
  - [   0.0000247266143560, -0.0130721386522055, -0.0115740504115820 ]
  - [   0.0000220071524382, -0.0130386101081967, -0.0115510653704405 ]
- atom:    1
  displacement:
    [  -0.0100000000000000,  0.0000000000000000,  0.0000000000000000 ]
  forces:
  - [   0.0202720779925585,  0.0007810257375240,  0.0026352163404226 ]
  - [   0.0001398546737619,  0.0004448359832168,  0.0027936622500420 ]
  - [   0.0001514502509963,  0.0008987858891487,  0.0026197712868452 ]
  - [  -0.0004268359334674,  0.0005735615268350,  0.0025031119585037 ]
  - [  -0.0002931787748821,  0.0005773827433586,  0.0027772244066000 ]
  - [  -0.0002924381406046,  0.0008713863790035,  0.0028393603861332 ]
  - [  -0.0001873990549939,  0.0006715469062328,  0.0027064913883805 ]
  - [  -0.0001871618005680,  0.0006719417870045,  0.0027089240029454 ]
  - [  -0.0001860512857093,  0.0006699739024043,  0.0027041500434279 ]
  - [  -0.0001872548309620,  0.0006706081330776,  0.0027040624991059 ]
  - [  -0.0001873118162621,  0.0006707040593028,  0.0027071535587311 ]
  - [  -0.0001883278600872,  0.0006713662296534,  0.0027067838236690 ]
  - [  -0.0001739254221320,  0.0026801656931639, -0.0265731364488602 ]
  - [   0.0000077029690146,  0.0027015954256058, -0.0265773683786392 ]
  - [   0.0000009182840586,  0.0026557371020317, -0.0265820026397705 ]
  - [  -0.0010492501314729,  0.0031729079782963, -0.0254215002059937 ]
  - [  -0.0001342222676612,  0.0026805307716131, -0.0265765488147736 ]
  - [  -0.0010679006809369,  0.0021654497832060, -0.0277555137872696 ]
  - [  -0.0000702282413840,  0.0026770066469908, -0.0265769883990288 ]
  - [  -0.0000774338841438,  0.0026785582304001, -0.0265789180994034 ]
  - [  -0.0000780764967203,  0.0026759859174490, -0.0265740752220154 ]
  - [  -0.0000765032018535,  0.0026769470423460, -0.0265921726822853 ]
  - [  -0.0000728796367184,  0.0026787407696247, -0.0265755057334900 ]
  - [  -0.0000782347633503,  0.0026758778840303, -0.0265623331069946 ]
  - [  -0.0018186308443546, -0.0008973502553999, -0.0041346717625856 ]
  - [  -0.0000530641918886,  0.0002236329019070, -0.0027123936451972 ]
  - [  -0.0018433050718158,  0.0013576052151620, -0.0012603490613401 ]
  - [   0.0009834966622293, -0.0004158145748079, -0.0023488034494221 ]
  - [   0.0009069857187569,  0.0008402122184634, -0.0030749491415918 ]
  - [   0.0001917964837048,  0.0002385033294559, -0.0027097975835204 ]
  - [  -0.0000090011290013,  0.0002384418621659, -0.0027691284194589 ]
  - [  -0.0000129335530801,  0.0002224901691079, -0.0027096029371023 ]
  - [  -0.0000081869166024,  0.0002068467438221, -0.0026505212299526 ]
  - [  -0.0000131360829982,  0.0002268310636282, -0.0027202568016946 ]
  - [  -0.0000136441231007,  0.0002171741798520, -0.0026986291632056 ]
  - [  -0.0000010282765288,  0.0002226009964943, -0.0027091554366052 ]
  - [  -0.0027386641595513,  0.0133611541241407, -0.0373788587749004 ]
  - [  -0.0004307558701839,  0.0155212897807360, -0.0386904738843441 ]
  - [  -0.0027562554460019,  0.0177186895161867, -0.0400232076644897 ]
  - [  -0.0003508748486638,  0.0156057300046086, -0.0389157384634018 ]
  - [  -0.0003581987693906,  0.0154351834207773, -0.0384618751704693 ]
  - [   0.0000247559510171,  0.0155220124870539, -0.0386862382292747 ]
  - [  -0.0003926421341021,  0.0155138960108161, -0.0386846736073494 ]
  - [  -0.0003904592012987,  0.0155162159353495, -0.0386897809803486 ]
  - [  -0.0003936510474887,  0.0155185479670763, -0.0386954285204411 ]
  - [  -0.0003923480398953,  0.0155177917331457, -0.0386891737580299 ]