phonopy:
  version: "2.37.1"
  frequency_unit_conversion_factor: 15.633302
  symmetry_tolerance: 1.00000e-05

space_group:
  type: "P1"
  number: 1
  Hall_symbol: "P 1"

primitive_matrix:
- [  0.000000000000000,  1.000000000000000,  0.000000000000000 ]
- [  1.000000000000000,  1.000000000000000, -0.000000000000000 ]
- [  0.000000000000000,  0.000000000000000, -1.000000000000000 ]

supercell_matrix:
- [   2,   0,   0 ]
- [   0,   3,   0 ]
- [   0,   0,   2 ]

primitive_cell:
  lattice:
  - [    -1.942588054347701,     4.153392052189691,     0.000000000000000 ] # a
  - [     3.483428916321386,     4.153392052189691,     0.000000000000000 ] # b
  - [    -0.745102606505150,     2.175216963671559,    -7.084761742045227 ] # c
  points:
  - symbol: Li # 1
    coordinates: [  0.352638824494945,  0.598694112940577,  0.930661302135821 ]
    mass: 6.940000
  - symbol: Li # 2
    coordinates: [  0.006824797435133,  0.961199335186386,  0.253221816082224 ]
    mass: 6.940000
  - symbol: Li # 3
    coordinates: [  0.544521648302817,  0.073161640078043,  0.071422293934934 ]
    mass: 6.940000
  - symbol: Li # 4
    coordinates: [  0.679017991035154,  0.281007425386895,  0.591928405185037 ]
    mass: 6.940000
  - symbol: Li # 5
    coordinates: [  0.872392765627063,  0.753294081511855,  0.732764091430178 ]
    mass: 6.940000
  - symbol: Li # 6
    coordinates: [  0.198715283183183,  0.435637636954372,  0.394008690962797 ]
    mass: 6.940000
  - symbol: Ga # 7
    coordinates: [  0.775660287031924,  0.517196143293085,  0.162330191623259 ]
    mass: 69.723000
  - symbol: Sn # 8
    coordinates: [  0.447956585449357,  0.850083908331626,  0.483791125003885 ]
    mass: 118.710000
  - symbol: Sn # 9
    coordinates: [  0.103416343998959,  0.184236385171744,  0.840882562376458 ]
    mass: 118.710000
  reciprocal_lattice: # without 2pi
  - [    -0.184297248867006,     0.154569170893306,     0.066839487386008 ] # a*
  - [     0.184297248867006,     0.086197890687792,     0.007082631058214 ] # b*
  - [     0.000000000000000,     0.000000000000000,    -0.141148007005712 ] # c*

unit_cell:
  lattice:
  - [     5.426016970669087,     0.000000000000000,     0.000000000000000 ] # a
  - [    -1.942588054347701,     4.153392052189691,     0.000000000000000 ] # b
  - [     0.745102606505150,    -2.175216963671560,     7.084761742045229 ] # c
  points:
  - symbol: Li # 1
    coordinates: [  0.598694112940577,  0.951332937435522,  0.069338697864179 ]
    mass: 6.940000
    reduced_to: 1
  - symbol: Li # 2
    coordinates: [  0.961199335186386,  0.968024132621519,  0.746778183917776 ]
    mass: 6.940000
    reduced_to: 2
  - symbol: Li # 3
    coordinates: [  0.073161640078043,  0.617683288380861,  0.928577706065066 ]
    mass: 6.940000
    reduced_to: 3
  - symbol: Li # 4
    coordinates: [  0.281007425386895,  0.960025416422049,  0.408071594814963 ]
    mass: 6.940000
    reduced_to: 4
  - symbol: Li # 5
    coordinates: [  0.753294081511855,  0.625686847138918,  0.267235908569822 ]
    mass: 6.940000
    reduced_to: 5
  - symbol: Li # 6
    coordinates: [  0.435637636954372,  0.634352920137556,  0.605991309037203 ]
    mass: 6.940000
    reduced_to: 6
  - symbol: Ga # 7
    coordinates: [  0.517196143293085,  0.292856430325009,  0.837669808376740 ]
    mass: 69.723000
    reduced_to: 7
  - symbol: Sn # 8
    coordinates: [  0.850083908331626,  0.298040493780983,  0.516208874996115 ]
    mass: 118.710000
    reduced_to: 8
  - symbol: Sn # 9
    coordinates: [  0.184236385171744,  0.287652729170703,  0.159117437623542 ]
    mass: 118.710000
    reduced_to: 9

supercell:
  lattice:
  - [    10.852033941338174,     0.000000000000000,     0.000000000000000 ] # a
  - [    -5.827764163043103,    12.460176156569073,     0.000000000000000 ] # b
  - [     1.490205213010301,    -4.350433927343119,    14.169523484090458 ] # c
  points:
  - symbol: Li # 1
    coordinates: [  0.299347056470288,  0.317110979145174,  0.034669348932090 ]
    mass: 6.940000
    reduced_to: 1
  - symbol: Li # 2
    coordinates: [  0.799347056470288,  0.317110979145174,  0.034669348932090 ]
    mass: 6.940000
    reduced_to: 1
  - symbol: Li # 3
    coordinates: [  0.299347056470288,  0.650444312478507,  0.034669348932090 ]
    mass: 6.940000
    reduced_to: 1
  - symbol: Li # 4
    coordinates: [  0.799347056470288,  0.650444312478507,  0.034669348932090 ]
    mass: 6.940000
    reduced_to: 1
  - symbol: Li # 5
    coordinates: [  0.299347056470288,  0.983777645811841,  0.034669348932090 ]
    mass: 6.940000
    reduced_to: 1
  - symbol: Li # 6
    coordinates: [  0.799347056470288,  0.983777645811841,  0.034669348932090 ]
    mass: 6.940000
    reduced_to: 1
  - symbol: Li # 7
    coordinates: [  0.299347056470288,  0.317110979145174,  0.534669348932090 ]
    mass: 6.940000
    reduced_to: 1
  - symbol: Li # 8
    coordinates: [  0.799347056470288,  0.317110979145174,  0.534669348932090 ]
    mass: 6.940000
    reduced_to: 1
  - symbol: Li # 9
    coordinates: [  0.299347056470288,  0.650444312478507,  0.534669348932090 ]
    mass: 6.940000
    reduced_to: 1
  - symbol: Li # 10
    coordinates: [  0.799347056470288,  0.650444312478507,  0.534669348932090 ]
    mass: 6.940000
    reduced_to: 1
  - symbol: Li # 11
    coordinates: [  0.299347056470288,  0.983777645811841,  0.534669348932090 ]
    mass: 6.940000
    reduced_to: 1
  - symbol: Li # 12
    coordinates: [  0.799347056470288,  0.983777645811841,  0.534669348932090 ]
    mass: 6.940000
    reduced_to: 1
  - symbol: Li # 13
    coordinates: [  0.480599667593193,  0.322674710873840,  0.373389091958888 ]
    mass: 6.940000
    reduced_to: 13
  - symbol: Li # 14
    coordinates: [  0.980599667593193,  0.322674710873840,  0.373389091958888 ]
    mass: 6.940000
    reduced_to: 13
  - symbol: Li # 15
    coordinates: [  0.480599667593193,  0.656008044207173,  0.373389091958888 ]
    mass: 6.940000
    reduced_to: 13
  - symbol: Li # 16
    coordinates: [  0.980599667593193,  0.656008044207173,  0.373389091958888 ]
    mass: 6.940000
    reduced_to: 13
  - symbol: Li # 17
    coordinates: [  0.480599667593193,  0.989341377540506,  0.373389091958888 ]
    mass: 6.940000
    reduced_to: 13
  - symbol: Li # 18
    coordinates: [  0.980599667593193,  0.989341377540506,  0.373389091958888 ]
    mass: 6.940000
    reduced_to: 13
  - symbol: Li # 19
    coordinates: [  0.480599667593193,  0.322674710873840,  0.873389091958888 ]
    mass: 6.940000
    reduced_to: 13
  - symbol: Li # 20
    coordinates: [  0.980599667593193,  0.322674710873840,  0.873389091958888 ]
    mass: 6.940000
    reduced_to: 13
  - symbol: Li # 21
    coordinates: [  0.480599667593193,  0.656008044207173,  0.873389091958888 ]
    mass: 6.940000
    reduced_to: 13
  - symbol: Li # 22
    coordinates: [  0.980599667593193,  0.656008044207173,  0.873389091958888 ]
    mass: 6.940000
    reduced_to: 13
  - symbol: Li # 23
    coordinates: [  0.480599667593193,  0.989341377540506,  0.873389091958888 ]
    mass: 6.940000
    reduced_to: 13
  - symbol: Li # 24
    coordinates: [  0.980599667593193,  0.989341377540506,  0.873389091958888 ]
    mass: 6.940000
    reduced_to: 13
  - symbol: Li # 25
    coordinates: [  0.036580820039022,  0.205894429460287,  0.464288853032533 ]
    mass: 6.940000
    reduced_to: 25
  - symbol: Li # 26
    coordinates: [  0.536580820039022,  0.205894429460287,  0.464288853032533 ]
    mass: 6.940000
    reduced_to: 25
  - symbol: Li # 27
    coordinates: [  0.036580820039022,  0.539227762793620,  0.464288853032533 ]
    mass: 6.940000
    reduced_to: 25
  - symbol: Li # 28
    coordinates: [  0.536580820039022,  0.539227762793620,  0.464288853032533 ]
    mass: 6.940000
    reduced_to: 25
  - symbol: Li # 29
    coordinates: [  0.036580820039022,  0.872561096126953,  0.464288853032533 ]
    mass: 6.940000
    reduced_to: 25
  - symbol: Li # 30
    coordinates: [  0.536580820039022,  0.872561096126953,  0.464288853032533 ]
    mass: 6.940000
    reduced_to: 25
  - symbol: Li # 31
    coordinates: [  0.036580820039022,  0.205894429460287,  0.964288853032533 ]
    mass: 6.940000
    reduced_to: 25
  - symbol: Li # 32
    coordinates: [  0.536580820039022,  0.205894429460287,  0.964288853032533 ]
    mass: 6.940000
    reduced_to: 25
  - symbol: Li # 33
    coordinates: [  0.036580820039022,  0.539227762793620,  0.964288853032533 ]
    mass: 6.940000
    reduced_to: 25
  - symbol: Li # 34
    coordinates: [  0.536580820039022,  0.539227762793620,  0.964288853032533 ]
    mass: 6.940000
    reduced_to: 25
  - symbol: Li # 35
    coordinates: [  0.036580820039022,  0.872561096126953,  0.964288853032533 ]
    mass: 6.940000
    reduced_to: 25
  - symbol: Li # 36
    coordinates: [  0.536580820039022,  0.872561096126953,  0.964288853032533 ]
    mass: 6.940000
    reduced_to: 25
  - symbol: Li # 37
    coordinates: [  0.140503712693447,  0.320008472140683,  0.204035797407482 ]
    mass: 6.940000
    reduced_to: 37
  - symbol: Li # 38
    coordinates: [  0.640503712693447,  0.320008472140683,  0.204035797407482 ]
    mass: 6.940000
    reduced_to: 37
  - symbol: Li # 39
    coordinates: [  0.140503712693447,  0.653341805474016,  0.204035797407482 ]
    mass: 6.940000
    reduced_to: 37
  - symbol: Li # 40
    coordinates: [  0.640503712693447,  0.653341805474016,  0.204035797407482 ]
    mass: 6.940000
    reduced_to: 37
  - symbol: Li # 41
    coordinates: [  0.140503712693447,  0.986675138807350,  0.204035797407482 ]
    mass: 6.940000
    reduced_to: 37
  - symbol: Li # 42
    coordinates: [  0.640503712693447,  0.986675138807350,  0.204035797407482 ]
    mass: 6.940000
    reduced_to: 37
  - symbol: Li # 43
    coordinates: [  0.140503712693447,  0.320008472140683,  0.704035797407482 ]
    mass: 6.940000
    reduced_to: 37
  - symbol: Li # 44
    coordinates: [  0.640503712693447,  0.320008472140683,  0.704035797407482 ]
    mass: 6.940000
    reduced_to: 37
  - symbol: Li # 45
    coordinates: [  0.140503712693447,  0.653341805474016,  0.704035797407482 ]
    mass: 6.940000
    reduced_to: 37
  - symbol: Li # 46
    coordinates: [  0.640503712693447,  0.653341805474016,  0.704035797407482 ]
    mass: 6.940000
    reduced_to: 37
  - symbol: Li # 47
    coordinates: [  0.140503712693447,  0.986675138807350,  0.704035797407482 ]
    mass: 6.940000
    reduced_to: 37
  - symbol: Li # 48
    coordinates: [  0.640503712693447,  0.986675138807350,  0.704035797407482 ]
    mass: 6.940000
    reduced_to: 37
  - symbol: Li # 49
    coordinates: [  0.376647040755928,  0.208562282379639,  0.133617954284911 ]
    mass: 6.940000
    reduced_to: 49
  - symbol: Li # 50
    coordinates: [  0.876647040755927,  0.208562282379639,  0.133617954284911 ]
    mass: 6.940000
    reduced_to: 49
  - symbol: Li # 51
    coordinates: [  0.376647040755928,  0.541895615712973,  0.133617954284911 ]
    mass: 6.940000
    reduced_to: 49
  - symbol: Li # 52
    coordinates: [  0.876647040755927,  0.541895615712973,  0.133617954284911 ]
    mass: 6.940000
    reduced_to: 49
  - symbol: Li # 53
    coordinates: [  0.376647040755928,  0.875228949046306,  0.133617954284911 ]
    mass: 6.940000
    reduced_to: 49
  - symbol: Li # 54
    coordinates: [  0.876647040755927,  0.875228949046306,  0.133617954284911 ]
    mass: 6.940000
    reduced_to: 49
  - symbol: Li # 55
    coordinates: [  0.376647040755928,  0.208562282379639,  0.633617954284911 ]
    mass: 6.940000
    reduced_to: 49
  - symbol: Li # 56
    coordinates: [  0.876647040755927,  0.208562282379639,  0.633617954284911 ]
    mass: 6.940000
    reduced_to: 49
  - symbol: Li # 57
    coordinates: [  0.376647040755928,  0.541895615712973,  0.633617954284911 ]
    mass: 6.940000
    reduced_to: 49
  - symbol: Li # 58
    coordinates: [  0.876647040755927,  0.541895615712973,  0.633617954284911 ]
    mass: 6.940000
    reduced_to: 49
  - symbol: Li # 59
    coordinates: [  0.376647040755928,  0.875228949046306,  0.633617954284911 ]
    mass: 6.940000
    reduced_to: 49
  - symbol: Li # 60
    coordinates: [  0.876647040755927,  0.875228949046306,  0.633617954284911 ]
    mass: 6.940000
    reduced_to: 49
  - symbol: Li # 61
    coordinates: [  0.217818818477186,  0.211450973379185,  0.302995654518602 ]
    mass: 6.940000
    reduced_to: 61
  - symbol: Li # 62
    coordinates: [  0.717818818477186,  0.211450973379185,  0.302995654518602 ]
    mass: 6.940000
    reduced_to: 61
  - symbol: Li # 63
    coordinates: [  0.217818818477186,  0.544784306712518,  0.302995654518602 ]
    mass: 6.940000
    reduced_to: 61
  - symbol: Li # 64
    coordinates: [  0.717818818477186,  0.544784306712518,  0.302995654518602 ]
    mass: 6.940000
    reduced_to: 61
  - symbol: Li # 65
    coordinates: [  0.217818818477186,  0.878117640045852,  0.302995654518602 ]
    mass: 6.940000
    reduced_to: 61
  - symbol: Li # 66
    coordinates: [  0.717818818477186,  0.878117640045852,  0.302995654518602 ]
    mass: 6.940000
    reduced_to: 61
  - symbol: Li # 67
    coordinates: [  0.217818818477186,  0.211450973379185,  0.802995654518602 ]
    mass: 6.940000
    reduced_to: 61
  - symbol: Li # 68
    coordinates: [  0.717818818477186,  0.211450973379185,  0.802995654518602 ]
    mass: 6.940000
    reduced_to: 61
  - symbol: Li # 69
    coordinates: [  0.217818818477186,  0.544784306712518,  0.802995654518602 ]
    mass: 6.940000
    reduced_to: 61
  - symbol: Li # 70
    coordinates: [  0.717818818477186,  0.544784306712518,  0.802995654518602 ]
    mass: 6.940000
    reduced_to: 61
  - symbol: Li # 71
    coordinates: [  0.217818818477186,  0.878117640045852,  0.802995654518602 ]
    mass: 6.940000
    reduced_to: 61
  - symbol: Li # 72
    coordinates: [  0.717818818477186,  0.878117640045852,  0.802995654518602 ]
    mass: 6.940000
    reduced_to: 61
  - symbol: Ga # 73
    coordinates: [  0.258598071646542,  0.097618810108336,  0.418834904188370 ]
    mass: 69.723000
    reduced_to: 73
  - symbol: Ga # 74
    coordinates: [  0.758598071646542,  0.097618810108336,  0.418834904188370 ]
    mass: 69.723000
    reduced_to: 73
  - symbol: Ga # 75
    coordinates: [  0.258598071646542,  0.430952143441670,  0.418834904188370 ]
    mass: 69.723000
    reduced_to: 73
  - symbol: Ga # 76
    coordinates: [  0.758598071646542,  0.430952143441670,  0.418834904188370 ]
    mass: 69.723000
    reduced_to: 73
  - symbol: Ga # 77
    coordinates: [  0.258598071646542,  0.764285476775003,  0.418834904188370 ]
    mass: 69.723000
    reduced_to: 73
  - symbol: Ga # 78
    coordinates: [  0.758598071646542,  0.764285476775003,  0.418834904188370 ]
    mass: 69.723000
    reduced_to: 73
  - symbol: Ga # 79
    coordinates: [  0.258598071646542,  0.097618810108336,  0.918834904188370 ]
    mass: 69.723000
    reduced_to: 73
  - symbol: Ga # 80
    coordinates: [  0.758598071646542,  0.097618810108336,  0.918834904188370 ]
    mass: 69.723000
    reduced_to: 73
  - symbol: Ga # 81
    coordinates: [  0.258598071646542,  0.430952143441670,  0.918834904188370 ]
    mass: 69.723000
    reduced_to: 73
  - symbol: Ga # 82
    coordinates: [  0.758598071646542,  0.430952143441670,  0.918834904188370 ]
    mass: 69.723000
    reduced_to: 73
  - symbol: Ga # 83
    coordinates: [  0.258598071646542,  0.764285476775003,  0.918834904188370 ]
    mass: 69.723000
    reduced_to: 73
  - symbol: Ga # 84
    coordinates: [  0.758598071646542,  0.764285476775003,  0.918834904188370 ]
    mass: 69.723000
    reduced_to: 73
  - symbol: Sn # 85
    coordinates: [  0.425041954165813,  0.099346831260328,  0.258104437498058 ]
    mass: 118.710000
    reduced_to: 85
  - symbol: Sn # 86
    coordinates: [  0.925041954165813,  0.099346831260328,  0.258104437498058 ]
    mass: 118.710000
    reduced_to: 85
  - symbol: Sn # 87
    coordinates: [  0.425041954165813,  0.432680164593661,  0.258104437498058 ]
    mass: 118.710000
    reduced_to: 85
  - symbol: Sn # 88
    coordinates: [  0.925041954165813,  0.432680164593661,  0.258104437498058 ]
    mass: 118.710000
    reduced_to: 85
  - symbol: Sn # 89
    coordinates: [  0.425041954165813,  0.766013497926994,  0.258104437498058 ]
    mass: 118.710000
    reduced_to: 85
  - symbol: Sn # 90
    coordinates: [  0.925041954165813,  0.766013497926994,  0.258104437498058 ]
    mass: 118.710000
    reduced_to: 85
  - symbol: Sn # 91
    coordinates: [  0.425041954165813,  0.099346831260328,  0.758104437498058 ]
    mass: 118.710000
    reduced_to: 85
  - symbol: Sn # 92
    coordinates: [  0.925041954165813,  0.099346831260328,  0.758104437498058 ]
    mass: 118.710000
    reduced_to: 85
  - symbol: Sn # 93
    coordinates: [  0.425041954165813,  0.432680164593661,  0.758104437498058 ]
    mass: 118.710000
    reduced_to: 85
  - symbol: Sn # 94
    coordinates: [  0.925041954165813,  0.432680164593661,  0.758104437498058 ]
    mass: 118.710000
    reduced_to: 85
  - symbol: Sn # 95
    coordinates: [  0.425041954165813,  0.766013497926994,  0.758104437498058 ]
    mass: 118.710000
    reduced_to: 85
  - symbol: Sn # 96
    coordinates: [  0.925041954165813,  0.766013497926994,  0.758104437498058 ]
    mass: 118.710000
    reduced_to: 85
  - symbol: Sn # 97
    coordinates: [  0.092118192585872,  0.095884243056901,  0.079558718811771 ]
    mass: 118.710000
    reduced_to: 97
  - symbol: Sn # 98
    coordinates: [  0.592118192585872,  0.095884243056901,  0.079558718811771 ]
    mass: 118.710000
    reduced_to: 97
  - symbol: Sn # 99
    coordinates: [  0.092118192585872,  0.429217576390234,  0.079558718811771 ]
    mass: 118.710000
    reduced_to: 97
  - symbol: Sn # 100
    coordinates: [  0.592118192585872,  0.429217576390234,  0.079558718811771 ]
    mass: 118.710000
    reduced_to: 97
  - symbol: Sn # 101
    coordinates: [  0.092118192585872,  0.762550909723568,  0.079558718811771 ]
    mass: 118.710000
    reduced_to: 97
  - symbol: Sn # 102
    coordinates: [  0.592118192585872,  0.762550909723568,  0.079558718811771 ]
    mass: 118.710000
    reduced_to: 97
  - symbol: Sn # 103
    coordinates: [  0.092118192585872,  0.095884243056901,  0.579558718811771 ]
    mass: 118.710000
    reduced_to: 97
  - symbol: Sn # 104
    coordinates: [  0.592118192585872,  0.095884243056901,  0.579558718811771 ]
    mass: 118.710000
    reduced_to: 97
  - symbol: Sn # 105
    coordinates: [  0.092118192585872,  0.429217576390234,  0.579558718811771 ]
    mass: 118.710000
    reduced_to: 97
  - symbol: Sn # 106
    coordinates: [  0.592118192585872,  0.429217576390234,  0.579558718811771 ]
    mass: 118.710000
    reduced_to: 97
  - symbol: Sn # 107
    coordinates: [  0.092118192585872,  0.762550909723568,  0.579558718811771 ]
    mass: 118.710000
    reduced_to: 97
  - symbol: Sn # 108
    coordinates: [  0.592118192585872,  0.762550909723568,  0.579558718811771 ]
    mass: 118.710000
    reduced_to: 97

displacements:
- atom:    1
  displacement:
    [   0.0100000000000000,  0.0000000000000000,  0.0000000000000000 ]
  forces:
  - [  -0.0542197786271572, -0.0341292098164558,  0.0242809858173132 ]
  - [  -0.0336014032363892, -0.0333646833896637,  0.0265989229083061 ]
  - [  -0.0334973484277725, -0.0335936397314072,  0.0267900116741657 ]
  - [  -0.0334188714623451, -0.0335408300161362,  0.0266861747950315 ]
  - [  -0.0334954820573330, -0.0331803858280182,  0.0268709380179644 ]
  - [  -0.0334195494651794, -0.0333725437521935,  0.0266988463699818 ]
  - [  -0.0334201641380787, -0.0333961024880409,  0.0267218183726072 ]
  - [  -0.0334274247288704, -0.0333825908601284,  0.0267199948430061 ]
  - [  -0.0334234535694122, -0.0333889648318291,  0.0267264544963837 ]
  - [  -0.0334223397076130, -0.0334087982773781,  0.0267146676778793 ]
  - [  -0.0334240347146988, -0.0333951264619827,  0.0267291702330112 ]
  - [  -0.0334227979183197, -0.0333921536803246,  0.0267168879508972 ]
  - [  -0.0740145221352577, -0.0114636868238449,  0.0603112950921059 ]
  - [  -0.0739792585372925, -0.0116192176938057,  0.0605548135936260 ]
  - [  -0.0739279240369797, -0.0116533320397139,  0.0603150837123394 ]
  - [  -0.0739713460206985, -0.0114428475499153,  0.0604515373706818 ]
  - [  -0.0739662498235703, -0.0115320496261120,  0.0603750459849834 ]
  - [  -0.0739438533782959, -0.0115791335701942,  0.0604096092283726 ]
  - [  -0.0726391524076462, -0.0110751464962959,  0.0587821677327156 ]
  - [  -0.0739624202251434, -0.0112483166158199,  0.0605573169887066 ]
  - [  -0.0739360749721527, -0.0114034041762352,  0.0604007467627525 ]
  - [  -0.0739542618393898, -0.0115590728819370,  0.0603918209671974 ]
  - [  -0.0739529430866241, -0.0115348817780614,  0.0603421404957771 ]
  - [  -0.0738815143704414, -0.0118656475096941,  0.0603498928248882 ]
  - [   0.0737739354372025,  0.0115987434983253, -0.0606862641870975 ]
  - [   0.0737883597612381,  0.0116006033495069, -0.0607083588838577 ]
  - [   0.0737872049212456,  0.0116043109446764, -0.0606408156454563 ]
  - [   0.0737876445055008,  0.0115987248718739, -0.0607374384999275 ]
  - [   0.0737724453210831,  0.0116003882139921, -0.0607167705893517 ]
  - [   0.0737728774547577,  0.0116066215559840, -0.0607144199311733 ]
  - [   0.0785316154360771,  0.0141439642757177, -0.0581965446472168 ]
  - [   0.0739455446600914,  0.0115377474576235, -0.0609075836837292 ]
  - [   0.0738193839788437,  0.0114850960671902, -0.0607346631586552 ]
  - [   0.0740312263369560,  0.0117656709626317, -0.0609025768935680 ]
  - [   0.0737181827425957,  0.0116250403225422, -0.0606842003762722 ]
  - [   0.0737910717725754,  0.0115939537063241, -0.0607120953500271 ]
  - [  -0.0337984785437584, -0.0231132768094540,  0.1144421473145485 ]
  - [  -0.0352276861667633, -0.0238563455641270,  0.1161801218986511 ]
  - [  -0.0349287390708923, -0.0235482864081860,  0.1163074895739555 ]
  - [  -0.0349431112408638, -0.0236339364200830,  0.1163492277264595 ]
  - [  -0.0349046289920807, -0.0236554294824600,  0.1162480562925339 ]
  - [  -0.0349609218537807, -0.0236897598952055,  0.1162466704845428 ]
  - [  -0.0350354611873627, -0.0237233154475689,  0.1161530166864395 ]
  - [  -0.0350164547562599, -0.0237006694078445,  0.1163647398352623 ]
  - [  -0.0349519923329353, -0.0236651711165905,  0.1162542700767517 ]
  - [  -0.0349315144121647, -0.0236614383757114,  0.1162432283163071 ]
  - [  -0.0349207371473312, -0.0236760936677456,  0.1162583753466606 ]
  - [  -0.0349237471818924, -0.0236829426139593,  0.1162649169564247 ]
  - [   0.0369334742426872,  0.0207455977797508, -0.1140902489423752 ]
  - [   0.0351911336183548,  0.0233037937432528, -0.1161235123872757 ]
  - [   0.0346984118223190,  0.0225169789046049, -0.1164303943514824 ]
  - [   0.0353351272642612,  0.0233374442905188, -0.1162713691592216 ]
  - [   0.0352964326739311,  0.0233296249061823, -0.1160805374383926 ]
  - [   0.0353124514222145,  0.0233768261969090, -0.1161078289151192 ]
  - [   0.0353208333253860,  0.0233292244374752, -0.1160739511251450 ]
  - [   0.0352931655943394,  0.0233471430838108, -0.1160772591829300 ]
  - [   0.0352969616651535,  0.0233680438250303, -0.1161108165979385 ]
  - [   0.0352778621017933,  0.0233424119651318, -0.1160944700241089 ]
  - [   0.0352738350629807,  0.0233556684106588, -0.1160620599985123 ]
  - [   0.0352836623787880,  0.0233435481786728, -0.1160820350050926 ]
  - [   0.0335523188114166,  0.0336274877190590, -0.0268016904592514 ]
  - [   0.0334187820553780,  0.0335594117641449, -0.0266566202044487 ]
  - [   0.0334292314946651,  0.0337265618145466, -0.0267338640987873 ]
  - [   0.0333407446742058,  0.0336470156908035, -0.0266319327056408 ]
  - [   0.0334526784718037,  0.0336073860526085, -0.0266937725245953 ]
  - [   0.0334368646144867,  0.0336063951253891, -0.0266779065132141 ]
  - [   0.0337268933653831,  0.0335567221045494, -0.0268331654369831 ]
  - [   0.0334165468811989,  0.0336634255945683, -0.0265839528292418 ]
  - [   0.0332728251814842,  0.0338112749159336, -0.0268076807260513 ]
  - [   0.0335002690553665,  0.0335647612810135, -0.0266348756849766 ]
  - [   0.0334846191108227,  0.0336319282650948, -0.0267216581851244 ]
  - [   0.0334511399269104,  0.0336505174636841, -0.0266686379909515 ]
  - [  -0.0001632213825360, -0.0000312170013785,  0.0001063376548700 ]
  - [  -0.0001952768943738, -0.0000314930221066,  0.0001335558481514 ]
  - [  -0.0002315182355233, -0.0000401375000365,  0.0001787380897440 ]
  - [  -0.0002957567339763, -0.0000618452322669,  0.0002562953159213 ]
  - [  -0.0001565411221236, -0.0000216544140130,  0.0000829313648865 ]
  - [  -0.0001615583896637, -0.0000474536791444,  0.0000483319163322 ]
  - [   0.0006167721003294, -0.0005391867016442, -0.0001056170440279 ]
  - [  -0.0002299401967321,  0.0000096941366792,  0.0001303374301642 ]
  - [   0.0009853814262897, -0.0017681771423668,  0.0022753805387765 ]
  - [   0.0005754486192018,  0.0003690179437399, -0.0006099637830630 ]
  - [  -0.0001216369855683, -0.0000835332029965,  0.0000497707806062 ]
  - [  -0.0001654420047998, -0.0001039747148752,  0.0000598654150963 ]
  - [   0.0683142542839050,  0.0288653112947941, -0.1070604249835014 ]
  - [   0.0684709399938583,  0.0290626287460327, -0.1073757410049438 ]
  - [   0.0686459094285965,  0.0287834182381630, -0.1063935607671738 ]
  - [   0.0686254277825356,  0.0289290361106396, -0.1076086610555649 ]
  - [   0.0682619959115982,  0.0287989042699337, -0.1070464178919792 ]
  - [   0.0681972503662109,  0.0287834424525499, -0.1070669740438461 ]
  - [   0.0681960284709930,  0.0287544876337051, -0.1072066575288773 ]
  - [   0.0682888031005859,  0.0289142262190580, -0.1071044057607651 ]
  - [   0.0679483860731125,  0.0286694001406431, -0.1066067367792130 ]
  - [   0.0684132650494576,  0.0288806241005659, -0.1072173714637756 ]
  - [   0.0682753399014473,  0.0287824757397175, -0.1070546880364418 ]
  - [   0.0682338997721672,  0.0288227628916502, -0.1070654168725014 ]
  - [  -0.0673138275742531, -0.0285245738923550,  0.1069949567317963 ]
  - [  -0.0681861788034439, -0.0287077575922012,  0.1070970594882965 ]
  - [  -0.0659726634621620, -0.0289178062230349,  0.1061711758375168 ]
  - [  -0.0623340271413326, -0.0261424202471972,  0.1088546514511108 ]
  - [  -0.0682930648326874, -0.0288169756531715,  0.1070943474769592 ]
  - [  -0.0682336464524269, -0.0289141479879618,  0.1070479750633240 ]
  - [  -0.0682859271764755, -0.0287669189274311,  0.1071240678429604 ]
  - [  -0.0683215111494064, -0.0287936013191938,  0.1071451455354691 ]
  - [  -0.0682694539427757, -0.0287858936935663,  0.1071187555789948 ]
  - [  -0.0681878998875618, -0.0287423953413963,  0.1069456934928894 ]
  - [  -0.0682894736528397, -0.0287857651710510,  0.1070847362279892 ]
  - [  -0.0682905241847038, -0.0287801716476679,  0.1071059256792068 ]
- atom:    1
  displacement:
    [  -0.0100000000000000,  0.0000000000000000,  0.0000000000000000 ]
  forces:
  - [  -0.0126668512821198, -0.0327849164605141,  0.0290802177041769 ]
  - [  -0.0332408398389816, -0.0334201715886593,  0.0268489047884941 ]
  - [  -0.0333474799990654, -0.0331916585564613,  0.0266568735241890 ]
  - [  -0.0334246456623077, -0.0332482829689980,  0.0267612021416426 ]
  - [  -0.0333453342318535, -0.0336046814918518,  0.0265786796808243 ]
  - [  -0.0334249958395958, -0.0334123224020004,  0.0267474744468927 ]
  - [  -0.0334205329418182, -0.0333882980048656,  0.0267266165465117 ]
  - [  -0.0334130302071571, -0.0334022529423237,  0.0267277751117945 ]
  - [  -0.0334159545600414, -0.0333959832787514,  0.0267218947410583 ]
  - [  -0.0334184765815735, -0.0333762466907501,  0.0267330370843410 ]
  - [  -0.0334165543317795, -0.0333892740309238,  0.0267199426889420 ]
  - [  -0.0334188863635063, -0.0333920642733574,  0.0267320573329926 ]
  - [  -0.0739075466990471, -0.0116317775100470,  0.0604439601302147 ]
  - [  -0.0739437714219093, -0.0114753944799304,  0.0602034926414490 ]
  - [  -0.0739923119544983, -0.0114425020292401,  0.0604397505521774 ]
  - [  -0.0739494934678078, -0.0116518624126911,  0.0603044740855694 ]
  - [  -0.0739554464817047, -0.0115611376240849,  0.0603808872401714 ]
  - [  -0.0739780589938164, -0.0115145230665803,  0.0603463537991047 ]
  - [  -0.0752694830298424, -0.0120110185816884,  0.0619441978633404 ]
  - [  -0.0739580169320107, -0.0118496641516685,  0.0602023974061012 ]
  - [  -0.0739851742982864, -0.0116931032389402,  0.0603573285043240 ]
  - [  -0.0739648789167404, -0.0115387002006173,  0.0603656917810440 ]
  - [  -0.0739638954401016, -0.0115597043186426,  0.0604174137115479 ]
  - [  -0.0740393698215485, -0.0112240351736546,  0.0604104474186897 ]
  - [   0.0737711042165756,  0.0115989036858082, -0.0607463829219341 ]
  - [   0.0737559050321579,  0.0115960603579879, -0.0607253424823284 ]
  - [   0.0737584233283997,  0.0115921888500452, -0.0607923530042171 ]
  - [   0.0737557113170624,  0.0115981232374907, -0.0606973990797997 ]
  - [   0.0737729445099831,  0.0115968286991119, -0.0607161484658718 ]
  - [   0.0737715438008308,  0.0115896211937070, -0.0607182197272778 ]
  - [   0.0689255818724632,  0.0089915832504630, -0.0632972717285156 ]
  - [   0.0736467242240906,  0.0116433901712298, -0.0605405271053314 ]
  - [   0.0737270414829254,  0.0117131164297462, -0.0606962926685810 ]
  - [   0.0735130161046982,  0.0114359119907022, -0.0605275556445122 ]
  - [   0.0738274008035660,  0.0115760611370206, -0.0607454702258110 ]
  - [   0.0737533941864967,  0.0116070397198200, -0.0607176870107651 ]
  - [  -0.0360786579549313, -0.0242440495640039,  0.1181037053465843 ]
  - [  -0.0346457362174988, -0.0234949011355639,  0.1163487881422043 ]
  - [  -0.0349470190703869, -0.0238048825412989,  0.1162181496620178 ]
  - [  -0.0349345430731773, -0.0237169116735458,  0.1161769777536392 ]
  - [  -0.0349716693162918, -0.0236925743520260,  0.1162802726030350 ]
  - [  -0.0349175482988358, -0.0236598700284958,  0.1162808239459991 ]
  - [  -0.0348435454070568, -0.0236279554665089,  0.1163728311657906 ]
  - [  -0.0348628908395767, -0.0236493684351444,  0.1161593198776245 ]
  - [  -0.0349262021481991, -0.0236860699951649,  0.1162703409790993 ]
  - [  -0.0349477045238018, -0.0236896611750126,  0.1162815764546394 ]