# Thermal properties / unit cell (natom)

unit:
  temperature:   K
  free_energy:   kJ/mol
  entropy:       J/K/mol
  heat_capacity: J/K/mol

natom: 9    
cutoff_frequency: 0.00000
num_modes: 189000
num_integrated_modes: 188998

zero_point_energy:      33.3381959

thermal_properties:
- temperature:         0.0000000
  free_energy:        33.3381959
  entropy:             0.0000000
  heat_capacity:       0.0000000
  energy:             33.3381959

- temperature:        10.0000000
  free_energy:        33.3367348
  entropy:             0.5946309
  heat_capacity:       2.0958469
  energy:             33.3426811

- temperature:        20.0000000
  free_energy:        33.3093888
  entropy:             5.9703262
  heat_capacity:      16.9030819
  energy:             33.4287954

- temperature:        30.0000000
  free_energy:        33.2010998
  entropy:            16.1580662
  heat_capacity:      33.9794411
  energy:             33.6858418

- temperature:        40.0000000
  free_energy:        32.9813233
  entropy:            27.9021177
  heat_capacity:      47.9281610
  energy:             34.0974080

- temperature:        50.0000000
  free_energy:        32.6421408
  entropy:            39.9498857
  heat_capacity:      60.4077836
  energy:             34.6396351

- temperature:        60.0000000
  free_energy:        32.1821960
  entropy:            52.0421130
  heat_capacity:      72.6021386
  energy:             35.3047228

- temperature:        70.0000000
  free_energy:        31.6012557
  entropy:            64.1469827
  heat_capacity:      84.7433820
  energy:             36.0915445

- temperature:        80.0000000
  free_energy:        30.8992807
  entropy:            76.2436698
  heat_capacity:      96.6379238
  energy:             36.9987743

- temperature:        90.0000000
  free_energy:        30.0765523
  entropy:            88.2889478
  heat_capacity:     108.0112652
  energy:             38.0225576

- temperature:       100.0000000
  free_energy:        29.1338600
  entropy:           100.2267791
  heat_capacity:     118.6493231
  energy:             39.1565379

- temperature:       110.0000000
  free_energy:        28.0725628
  entropy:           112.0010463
  heat_capacity:     128.4302423
  energy:             40.3926779

- temperature:       120.0000000
  free_energy:        26.8945471
  entropy:           123.5632730
  heat_capacity:     137.3121607
  energy:             41.7221398

- temperature:       130.0000000
  free_energy:        25.6021313
  entropy:           134.8756752
  heat_capacity:     145.3096000
  energy:             43.1359691

- temperature:       140.0000000
  free_energy:        24.1979571
  entropy:           145.9113422
  heat_capacity:     152.4715711
  energy:             44.6255450

- temperature:       150.0000000
  free_energy:        22.6848853
  entropy:           156.6530202
  heat_capacity:     158.8651099
  energy:             46.1828384

- temperature:       160.0000000
  free_energy:        21.0659084
  entropy:           167.0914004
  heat_capacity:     164.5642079
  energy:             47.8005324

- temperature:       170.0000000
  free_energy:        19.3440792
  entropy:           177.2233884
  heat_capacity:     169.6429652
  energy:             49.4720552

- temperature:       180.0000000
  free_energy:        17.5224570
  entropy:           187.0505665
  heat_capacity:     174.1717028
  energy:             51.1915590

- temperature:       190.0000000
  free_energy:        15.6040675
  entropy:           196.5779176
  heat_capacity:     178.2150086
  energy:             52.9538719

- temperature:       200.0000000
  free_energy:        13.5918737
  entropy:           205.8128088
  heat_capacity:     181.8309837
  energy:             54.7544355

- temperature:       210.0000000
  free_energy:        11.4887564
  entropy:           214.7642059
  heat_capacity:     185.0711924
  energy:             56.5892397

- temperature:       220.0000000
  free_energy:         9.2975014
  entropy:           223.4420782
  heat_capacity:     187.9809981
  energy:             58.4547586

- temperature:       230.0000000
  free_energy:         7.0207915
  entropy:           231.8569548
  heat_capacity:     190.6000878
  energy:             60.3478911

- temperature:       240.0000000
  free_energy:         4.6612031
  entropy:           240.0196003
  heat_capacity:     192.9630673
  energy:             62.2659071

- temperature:       250.0000000
  free_energy:         2.2212044
  entropy:           247.9407809
  heat_capacity:     195.1000592
  energy:             64.2063996

- temperature:       260.0000000
  free_energy:        -0.2968430
  entropy:           255.6310993
  heat_capacity:     197.0372684
  energy:             66.1672428

- temperature:       270.0000000
  free_energy:        -2.8906825
  entropy:           263.1008811
  heat_capacity:     198.7974965
  energy:             68.1465554

- temperature:       280.0000000
  free_energy:        -5.5581588
  entropy:           270.3601002
  heat_capacity:     200.4006005
  energy:             70.1426692

- temperature:       290.0000000
  free_energy:        -8.2972146
  entropy:           277.4183318
  heat_capacity:     201.8638951
  energy:             72.1541016

- temperature:       300.0000000
  free_energy:       -11.1058861
  entropy:           284.2847259
  heat_capacity:     203.2025019
  energy:             74.1795317

- temperature:       310.0000000
  free_energy:       -13.9822988
  entropy:           290.9679970
  heat_capacity:     204.4296515
  energy:             76.2177803

- temperature:       320.0000000
  free_energy:       -16.9246632
  entropy:           297.4764227
  heat_capacity:     205.5569429
  energy:             78.2677920

- temperature:       330.0000000
  free_energy:       -19.9312706
  entropy:           303.8178515
  heat_capacity:     206.5945654
  energy:             80.3286204

- temperature:       340.0000000
  free_energy:       -23.0004884
  entropy:           309.9997144
  heat_capacity:     207.5514896
  energy:             82.3994145

- temperature:       350.0000000
  free_energy:       -26.1307565
  entropy:           316.0290405
  heat_capacity:     208.4356304
  energy:             84.4794077

- temperature:       360.0000000
  free_energy:       -29.3205830
  entropy:           321.9124746
  heat_capacity:     209.2539863
  energy:             86.5679079

- temperature:       370.0000000
  free_energy:       -32.5685406
  entropy:           327.6562960
  heat_capacity:     210.0127596
  energy:             88.6642889

- temperature:       380.0000000
  free_energy:       -35.8732633
  entropy:           333.2664374
  heat_capacity:     210.7174585
  energy:             90.7679829

- temperature:       390.0000000
  free_energy:       -39.2334425
  entropy:           338.7485044
  heat_capacity:     211.3729857
  energy:             92.8784742

- temperature:       400.0000000
  free_energy:       -42.6478242
  entropy:           344.1077938
  heat_capacity:     211.9837141
  energy:             94.9952933

- temperature:       410.0000000
  free_energy:       -46.1152058
  entropy:           349.3493123
  heat_capacity:     212.5535520
  energy:             97.1180122

- temperature:       420.0000000
  free_energy:       -49.6344337
  entropy:           354.4777939
  heat_capacity:     213.0859999
  energy:             99.2462398

- temperature:       430.0000000
  free_energy:       -53.2043999
  entropy:           359.4977162
  heat_capacity:     213.5841992
  energy:            101.3796181

- temperature:       440.0000000
  free_energy:       -56.8240403
  entropy:           364.4133166
  heat_capacity:     214.0509746
  energy:            103.5178191

- temperature:       450.0000000
  free_energy:       -60.4923319
  entropy:           369.2286071
  heat_capacity:     214.4888705
  energy:            105.6605414

- temperature:       460.0000000
  free_energy:       -64.2082907
  entropy:           373.9473883
  heat_capacity:     214.9001837
  energy:            107.8075079

- temperature:       470.0000000
  free_energy:       -67.9709700
  entropy:           378.5732624
  heat_capacity:     215.2869906
  energy:            109.9584634

- temperature:       480.0000000
  free_energy:       -71.7794577
  entropy:           383.1096458
  heat_capacity:     215.6511720
  energy:            112.1131723

- temperature:       490.0000000
  free_energy:       -75.6328754
  entropy:           387.5597806
  heat_capacity:     215.9944345
  energy:            114.2714171

- temperature:       500.0000000
  free_energy:       -79.5303761
  entropy:           391.9267451
  heat_capacity:     216.3183288
  energy:            116.4329964

- temperature:       510.0000000
  free_energy:       -83.4711428
  entropy:           396.2134640
  heat_capacity:     216.6242668
  energy:            118.5977238

- temperature:       520.0000000
  free_energy:       -87.4543872
  entropy:           400.4227181
  heat_capacity:     216.9135354
  energy:            120.7654262

- temperature:       530.0000000
  free_energy:       -91.4793478
  entropy:           404.5571523
  heat_capacity:     217.1873100
  energy:            122.9359429

- temperature:       540.0000000
  free_energy:       -95.5452892
  entropy:           408.6192844
  heat_capacity:     217.4466652
  energy:            125.1091244

- temperature:       550.0000000
  free_energy:       -99.6515005
  entropy:           412.6115126
  heat_capacity:     217.6925852
  energy:            127.2848314

- temperature:       560.0000000
  free_energy:      -103.7972941
  entropy:           416.5361221
  heat_capacity:     217.9259726
  energy:            129.4629343

- temperature:       570.0000000
  free_energy:      -107.9820048
  entropy:           420.3952924
  heat_capacity:     218.1476561
  energy:            131.6433119

- temperature:       580.0000000
  free_energy:      -112.2049888
  entropy:           424.1911030
  heat_capacity:     218.3583979
  energy:            133.8258510

- temperature:       590.0000000
  free_energy:      -116.4656223
  entropy:           427.9255390
  heat_capacity:     218.5588996
  energy:            136.0104457

- temperature:       600.0000000
  free_energy:      -120.7633013
  entropy:           431.6004971
  heat_capacity:     218.7498082
  energy:            138.1969970

- temperature:       610.0000000
  free_energy:      -125.0974400
  entropy:           435.2177900
  heat_capacity:     218.9317207
  energy:            140.3854119

- temperature:       620.0000000
  free_energy:      -129.4674707
  entropy:           438.7791515
  heat_capacity:     219.1051887
  energy:            142.5756032

- temperature:       630.0000000
  free_energy:      -133.8728422
  entropy:           442.2862403
  heat_capacity:     219.2707228
  energy:            144.7674892

- temperature:       640.0000000
  free_energy:      -138.3130199
  entropy:           445.7406448
  heat_capacity:     219.4287957
  energy:            146.9609928

- temperature:       650.0000000
  free_energy:      -142.7874845
  entropy:           449.1438865
  heat_capacity:     219.5798456
  energy:            149.1560417

- temperature:       660.0000000
  free_energy:      -147.2957319
  entropy:           452.4974237
  heat_capacity:     219.7242796
  energy:            151.3525677

- temperature:       670.0000000
  free_energy:      -151.8372720
  entropy:           455.8026545
  heat_capacity:     219.8624755
  energy:            153.5505065

- temperature:       680.0000000
  free_energy:      -156.4116285
  entropy:           459.0609207
  heat_capacity:     219.9947851
  energy:            155.7497976

- temperature:       690.0000000
  free_energy:      -161.0183381
  entropy:           462.2735099
  heat_capacity:     220.1215357
  energy:            157.9503837

- temperature:       700.0000000
  free_energy:      -165.6569505
  entropy:           465.4416590
  heat_capacity:     220.2430323
  energy:            160.1522108

- temperature:       710.0000000
  free_energy:      -170.3270272
  entropy:           468.5665563
  heat_capacity:     220.3595596
  energy:            162.3552278

- temperature:       720.0000000
  free_energy:      -175.0281413
  entropy:           471.6493439
  heat_capacity:     220.4713831
  energy:            164.5593863

- temperature:       730.0000000
  free_energy:      -179.7598773
  entropy:           474.6911205
  heat_capacity:     220.5787513
  energy:            166.7646406

- temperature:       740.0000000
  free_energy:      -184.5218305
  entropy:           477.6929430
  heat_capacity:     220.6818962
  energy:            168.9709473

- temperature:       750.0000000
  free_energy:      -189.3136064
  entropy:           480.6558288
  heat_capacity:     220.7810352
  energy:            171.1782652

- temperature:       760.0000000
  free_energy:      -194.1348206
  entropy:           483.5807577
  heat_capacity:     220.8763720
  energy:            173.3865553

- temperature:       770.0000000
  free_energy:      -198.9850982
  entropy:           486.4686737
  heat_capacity:     220.9680975
  energy:            175.5957806

- temperature:       780.0000000
  free_energy:      -203.8640737
  entropy:           489.3204866
  heat_capacity:     221.0563908
  energy:            177.8059058

- temperature:       790.0000000
  free_energy:      -208.7713905
  entropy:           492.1370734
  heat_capacity:     221.1414203
  energy:            180.0168975

- temperature:       800.0000000
  free_energy:      -213.7067006
  entropy:           494.9192806
  heat_capacity:     221.2233439
  energy:            182.2287239

- temperature:       810.0000000
  free_energy:      -218.6696642
  entropy:           497.6679244
  heat_capacity:     221.3023104
  energy:            184.4413545

- temperature:       820.0000000
  free_energy:      -223.6599498
  entropy:           500.3837933
  heat_capacity:     221.3784598
  energy:            186.6547607

- temperature:       830.0000000
  free_energy:      -228.6772334
  entropy:           503.0676484
  heat_capacity:     221.4519238
  energy:            188.8689148

- temperature:       840.0000000
  free_energy:      -233.7211985
  entropy:           505.7202252
  heat_capacity:     221.5228267
  energy:            191.0837906

- temperature:       850.0000000
  free_energy:      -238.7915360
  entropy:           508.3422343
  heat_capacity:     221.5912857
  energy:            193.2993632

- temperature:       860.0000000
  free_energy:      -243.8879436
  entropy:           510.9343630
  heat_capacity:     221.6574112
  energy:            195.5156086

- temperature:       870.0000000
  free_energy:      -249.0101259
  entropy:           513.4972757
  heat_capacity:     221.7213078
  energy:            197.7325040

- temperature:       880.0000000
  free_energy:      -254.1577939
  entropy:           516.0316153
  heat_capacity:     221.7830740
  energy:            199.9500276

- temperature:       890.0000000
  free_energy:      -259.3306650
  entropy:           518.5380041
  heat_capacity:     221.8428031
  energy:            202.1681587

- temperature:       900.0000000
  free_energy:      -264.5284628
  entropy:           521.0170444
  heat_capacity:     221.9005834
  energy:            204.3868772

- temperature:       910.0000000
  free_energy:      -269.7509167
  entropy:           523.4693196
  heat_capacity:     221.9564985
  energy:            206.6061641

- temperature:       920.0000000
  free_energy:      -274.9977619
  entropy:           525.8953946
  heat_capacity:     222.0106273
  energy:            208.8260012

- temperature:       930.0000000
  free_energy:      -280.2687391
  entropy:           528.2958172
  heat_capacity:     222.0630451
  energy:            211.0463709

- temperature:       940.0000000
  free_energy:      -285.5635945
  entropy:           530.6711182
  heat_capacity:     222.1138228
  energy:            213.2672566

- temperature:       950.0000000
  free_energy:      -290.8820794
  entropy:           533.0218122
  heat_capacity:     222.1630279
  energy:            215.4886422

- temperature:       960.0000000
  free_energy:      -296.2239504
  entropy:           535.3483985
  heat_capacity:     222.2107245
  energy:            217.7105122

- temperature:       970.0000000
  free_energy:      -301.5889687
  entropy:           537.6513613
  heat_capacity:     222.2569735
  energy:            219.9328518

- temperature:       980.0000000
  free_energy:      -306.9769004
  entropy:           539.9311708
  heat_capacity:     222.3018325
  energy:            222.1556470

- temperature:       990.0000000
  free_energy:      -312.3875164
  entropy:           542.1882833
  heat_capacity:     222.3453566
  energy:            224.3788840

- temperature:      1000.0000000
  free_energy:      -317.8205919
  entropy:           544.4231418
  heat_capacity:     222.3875981
  energy:            226.6025498
