phonopy:
  version: "2.37.1"
  frequency_unit_conversion_factor: 15.633302
  symmetry_tolerance: 1.00000e-05

space_group:
  type: "I4/mmm"
  number: 139
  Hall_symbol: "-I 4 2"

primitive_matrix:
- [ -0.000000000000000, -1.000000000000000,  0.000000000000000 ]
- [ -1.000000000000000,  0.000000000000000,  0.000000000000000 ]
- [  0.000000000000000,  0.000000000000000, -1.000000000000000 ]

supercell_matrix:
- [   2,   0,   0 ]
- [   0,   2,   0 ]
- [   0,   0,   2 ]

primitive_cell:
  lattice:
  - [    -2.819190076783102,    -4.368877910286136,     0.000000000000000 ] # a
  - [    -5.199512223849541,     0.000000000000000,     0.000000000000000 ] # b
  - [     4.009351017822421,     2.184438957483763,    -2.487620766043267 ] # c
  points:
  - symbol: Li # 1
    coordinates: [  0.329144286282392,  0.329144288584852,  0.999999998522324 ]
    mass: 6.940000
  - symbol: Li # 2
    coordinates: [  0.670855710985907,  0.670855710671644,  0.999999998211900 ]
    mass: 6.940000
  - symbol: Sn # 3
    coordinates: [  0.000000002720252,  0.000000000771985,  0.000000003199324 ]
    mass: 118.710000
  reciprocal_lattice: # without 2pi
  - [    -0.000000000000000,    -0.228891724725378,    -0.200995267188998 ] # a*
  - [    -0.192325733058790,     0.124105733619337,    -0.200995256613332 ] # b*
  - [    -0.000000000000000,    -0.000000000000000,    -0.401990533947250 ] # c*

unit_cell:
  lattice:
  - [     5.199512223849541,     0.000000000000000,     0.000000000000000 ] # a
  - [     2.819190076783102,     4.368877910286136,     0.000000000000000 ] # b
  - [    -4.009351017822420,    -2.184438957483763,     2.487620766043266 ] # c
  points:
  - symbol: Li # 1
    coordinates: [  0.670855711415148,  0.670855713717608,  0.000000001477676 ]
    mass: 6.940000
    reduced_to: 1
  - symbol: Li # 2
    coordinates: [  0.329144289328356,  0.329144289014093,  0.000000001788100 ]
    mass: 6.940000
    reduced_to: 2
  - symbol: Sn # 3
    coordinates: [  0.999999999228015,  0.999999997279748,  0.999999996800676 ]
    mass: 118.710000
    reduced_to: 3

supercell:
  lattice:
  - [    10.399024447699082,     0.000000000000000,     0.000000000000000 ] # a
  - [     5.638380153566204,     8.737755820572271,     0.000000000000000 ] # b
  - [    -8.018702035644839,    -4.368877914967526,     4.975241532086533 ] # c
  points:
  - symbol: Li # 1
    coordinates: [  0.335427855707574,  0.335427856858804,  0.000000000738838 ]
    mass: 6.940000
    reduced_to: 1
  - symbol: Li # 2
    coordinates: [  0.835427855707574,  0.335427856858804,  0.000000000738838 ]
    mass: 6.940000
    reduced_to: 1
  - symbol: Li # 3
    coordinates: [  0.335427855707574,  0.835427856858804,  0.000000000738838 ]
    mass: 6.940000
    reduced_to: 1
  - symbol: Li # 4
    coordinates: [  0.835427855707574,  0.835427856858804,  0.000000000738838 ]
    mass: 6.940000
    reduced_to: 1
  - symbol: Li # 5
    coordinates: [  0.335427855707574,  0.335427856858804,  0.500000000738838 ]
    mass: 6.940000
    reduced_to: 1
  - symbol: Li # 6
    coordinates: [  0.835427855707574,  0.335427856858804,  0.500000000738838 ]
    mass: 6.940000
    reduced_to: 1
  - symbol: Li # 7
    coordinates: [  0.335427855707574,  0.835427856858804,  0.500000000738838 ]
    mass: 6.940000
    reduced_to: 1
  - symbol: Li # 8
    coordinates: [  0.835427855707574,  0.835427856858804,  0.500000000738838 ]
    mass: 6.940000
    reduced_to: 1
  - symbol: Li # 9
    coordinates: [  0.164572144664178,  0.164572144507047,  0.000000000894050 ]
    mass: 6.940000
    reduced_to: 9
  - symbol: Li # 10
    coordinates: [  0.664572144664178,  0.164572144507047,  0.000000000894050 ]
    mass: 6.940000
    reduced_to: 9
  - symbol: Li # 11
    coordinates: [  0.164572144664178,  0.664572144507047,  0.000000000894050 ]
    mass: 6.940000
    reduced_to: 9
  - symbol: Li # 12
    coordinates: [  0.664572144664178,  0.664572144507047,  0.000000000894050 ]
    mass: 6.940000
    reduced_to: 9
  - symbol: Li # 13
    coordinates: [  0.164572144664178,  0.164572144507047,  0.500000000894050 ]
    mass: 6.940000
    reduced_to: 9
  - symbol: Li # 14
    coordinates: [  0.664572144664178,  0.164572144507047,  0.500000000894050 ]
    mass: 6.940000
    reduced_to: 9
  - symbol: Li # 15
    coordinates: [  0.164572144664178,  0.664572144507047,  0.500000000894050 ]
    mass: 6.940000
    reduced_to: 9
  - symbol: Li # 16
    coordinates: [  0.664572144664178,  0.664572144507047,  0.500000000894050 ]
    mass: 6.940000
    reduced_to: 9
  - symbol: Sn # 17
    coordinates: [  0.499999999614007,  0.499999998639874,  0.499999998400338 ]
    mass: 118.710000
    reduced_to: 17
  - symbol: Sn # 18
    coordinates: [  0.999999999614007,  0.499999998639874,  0.499999998400338 ]
    mass: 118.710000
    reduced_to: 17
  - symbol: Sn # 19
    coordinates: [  0.499999999614007,  0.999999998639874,  0.499999998400338 ]
    mass: 118.710000
    reduced_to: 17
  - symbol: Sn # 20
    coordinates: [  0.999999999614007,  0.999999998639874,  0.499999998400338 ]
    mass: 118.710000
    reduced_to: 17
  - symbol: Sn # 21
    coordinates: [  0.499999999614007,  0.499999998639874,  0.999999998400338 ]
    mass: 118.710000
    reduced_to: 17
  - symbol: Sn # 22
    coordinates: [  0.999999999614007,  0.499999998639874,  0.999999998400338 ]
    mass: 118.710000
    reduced_to: 17
  - symbol: Sn # 23
    coordinates: [  0.499999999614007,  0.999999998639874,  0.999999998400338 ]
    mass: 118.710000
    reduced_to: 17
  - symbol: Sn # 24
    coordinates: [  0.999999999614007,  0.999999998639874,  0.999999998400338 ]
    mass: 118.710000
    reduced_to: 17

displacements:
- atom:    1
  displacement:
    [   0.0100000000000000,  0.0000000000000000,  0.0000000000000000 ]
  forces:
  - [  -0.0159434303641319,  0.0021636113524437, -0.0000000987784006 ]
  - [   0.0089601166546345,  0.0047377515584230, -0.0000004035546226 ]
  - [   0.0091726183891296,  0.0045976340770721,  0.0000006923473848 ]
  - [   0.0096331350505352,  0.0048162881284952, -0.0000002699962351 ]
  - [   0.0089312419295311,  0.0049155987799168,  0.0001120725937653 ]
  - [   0.0090225264430046,  0.0046994127333164,  0.0001956323831109 ]
  - [   0.0090227350592613,  0.0046995468437672, -0.0001956170890480 ]
  - [   0.0089293792843819,  0.0049171801656485, -0.0001120989763876 ]
  - [  -0.0073644854128361, -0.0040210671722889,  0.0000001641601557 ]
  - [  -0.0044922232627869, -0.0073612201958895, -0.0000007019843906 ]
  - [  -0.0094945877790451, -0.0041317455470562,  0.0000012588716345 ]
  - [  -0.0110095702111721, -0.0048544947057962, -0.0000001212174539 ]
  - [  -0.0078823603689671, -0.0041317120194435, -0.0026058158837259 ]
  - [  -0.0086670294404030, -0.0049032736569643,  0.0000323615604430 ]
  - [  -0.0086668804287910, -0.0049032922834158, -0.0000319684986607 ]
  - [  -0.0078834034502506, -0.0041311345994473,  0.0026059329975396 ]
  - [   0.0024823639541864,  0.0014646463096142, -0.0040972782298923 ]
  - [  -0.0000829491764307, -0.0000884551554918, -0.0000301794825646 ]
  - [  -0.0000820560380816, -0.0000893569085747,  0.0000311545481964 ]
  - [   0.0024825772270560,  0.0014637657441199,  0.0040979944169521 ]
  - [   0.0057872487232089,  0.0028293277136981, -0.0000004045068636 ]
  - [   0.0079430527985096, -0.0037674421910197, -0.0000007349190128 ]
  - [  -0.0000158734765137,  0.0011736620217562, -0.0000003958120942 ]
  - [  -0.0007821787148714, -0.0000951644033194, -0.0000011809170246 ]
- atom:    1
  displacement:
    [  -0.0100000000000000,  0.0000000000000000,  0.0000000000000000 ]
  forces:
  - [   0.0333606153726578,  0.0071136187762022,  0.0000004050671123 ]
  - [   0.0085133649408817,  0.0047784242779016, -0.0000002780579962 ]
  - [   0.0082971788942814,  0.0049146432429552,  0.0000007691887731 ]
  - [   0.0078385286033154,  0.0046907421201468, -0.0000004108442226 ]
  - [   0.0085384026169777,  0.0046017114073038, -0.0001118212821893 ]
  - [   0.0084443464875221,  0.0048178192228079, -0.0001891593565233 ]
  - [   0.0084449201822281,  0.0048178192228079,  0.0001892533036880 ]
  - [   0.0085366740822792,  0.0046031884849072,  0.0001116265193559 ]
  - [  -0.0101517401635647, -0.0055273286998272,  0.0000001872831490 ]
  - [  -0.0129072852432728, -0.0022177696228027, -0.0000007644994184 ]
  - [  -0.0079764723777771, -0.0053985584527254,  0.0000011607071428 ]
  - [  -0.0064690373837948, -0.0046535599976778, -0.0000000183936208 ]
  - [  -0.0095925554633141, -0.0053833611309528,  0.0025844911579043 ]
  - [  -0.0088041312992573, -0.0046127848327160, -0.0000290650787065 ]
  - [  -0.0088036805391312, -0.0046129506081343,  0.0000292386976071 ]
  - [  -0.0095936134457588, -0.0053827725350857, -0.0025842634495348 ]
  - [  -0.0024719620123506, -0.0014781970530748,  0.0041491063311696 ]
  - [   0.0000697001814842,  0.0000869818031788,  0.0000254874576058 ]
  - [   0.0000702748075128,  0.0000862162560225, -0.0000246715389949 ]
  - [  -0.0024726204574108, -0.0014786908868700, -0.0041487114503980 ]
  - [  -0.0055207670666277, -0.0026619061827660, -0.0000008105598681 ]
  - [  -0.0081647802144289,  0.0039213779382408, -0.0000011184783943 ]
  - [   0.0000343220017385, -0.0011185146868229, -0.0000000800937414 ]
  - [   0.0007802871987224,  0.0000938167722779, -0.0000005532056093 ]
- atom:   17
  displacement:
    [   0.0100000000000000,  0.0000000000000000,  0.0000000000000000 ]
  forces:
  - [   0.0111991390585899,  0.0062322448939085, -0.0043489499948919 ]
  - [   0.0086672902107239,  0.0046718306839466, -0.0000248126088991 ]
  - [   0.0086652748286724,  0.0046718157827854,  0.0000252895224548 ]
  - [   0.0111973993480206,  0.0062323268502951,  0.0043483190238476 ]
  - [   0.0142584368586540,  0.0074209999293089, -0.0000003788882168 ]
  - [   0.0168884098529816,  0.0006027482450008, -0.0000004587272997 ]
  - [   0.0086916647851467,  0.0060898829251528,  0.0000004321045708 ]
  - [   0.0079531893134117,  0.0046650860458612,  0.0000003112800186 ]
  - [  -0.0062395967543125, -0.0032904334366322,  0.0042900377884507 ]
  - [  -0.0088161304593086, -0.0048481170088053,  0.0000302189728245 ]
  - [  -0.0088165774941444, -0.0048473104834557, -0.0000298100239888 ]
  - [  -0.0062413848936558, -0.0032907277345657, -0.0042902408167720 ]
  - [  -0.0095152892172337, -0.0048519019037485, -0.0000004043104127 ]
  - [  -0.0087423399090767, -0.0033491328358650,  0.0000001728367351 ]
  - [  -0.0007806681096554, -0.0087357554584742,  0.0000000534782885 ]
  - [  -0.0029492937028408, -0.0019280500710011,  0.0000005748588592 ]
  - [  -0.0370807871222496, -0.0071372631937265,  0.0000004968333087 ]
  - [   0.0006751194596291,  0.0001673698425293,  0.0000006889931683 ]
  - [   0.0005459664389491,  0.0002502240240574,  0.0000003022832971 ]
  - [   0.0006241397932172, -0.0001066350378096,  0.0000004197427188 ]
  - [   0.0005458749365062,  0.0003277298528701, -0.0000686820130795 ]
  - [  -0.0006379948463291,  0.0003629123093560, -0.0008449460146949 ]
  - [  -0.0006364854052663,  0.0003634029999375,  0.0008443137630820 ]
  - [   0.0005447193980217,  0.0003267386928201,  0.0000670542940497 ]

force_constants:
  format: "full"
  shape: [ 24, 24 ]
  elements:
  - # (1, 1)
    - [     2.465226742825512,     0.247512357550667,    -0.000000016609983 ]
    - [     0.247512357550667,     2.145792607032613,    -0.000000006374712 ]
    - [    -0.000000016609983,    -0.000000006374712,     2.010938951983527 ]
  - # (1, 2)
    - [    -0.022317057494468,     0.002037177160449,     0.000000001226100 ]
    - [     0.002037175772649,    -0.055303501501223,    -0.000000001226563 ]
    - [     0.000000002068655,    -0.000000000508122,     0.009174307743984 ]
  - # (1, 3)
    - [    -0.043749804484282,     0.015867498196530,     0.000000000456535 ]
    - [     0.015867498637142,    -0.033870753727583,    -0.000000001882463 ]
    - [     0.000000002388531,    -0.000000001679336,     0.009174307743984 ]
  - # (1, 4)
    - [    -0.089705869658829,    -0.006265314510830,     0.000000002227234 ]
    - [    -0.006265314341707,    -0.081619980020027,    -0.000000001334024 ]
    - [     0.000000002463973,    -0.000000001205041,    -0.078206411070912 ]
  - # (1, 5)
    - [    -0.019611049865912,    -0.015683299947489,    -0.011199445508106 ]
    - [    -0.015683299926591,     0.000629481776678,    -0.006101860522099 ]
    - [    -0.011199447609521,    -0.006101857649698,    -0.049464684168933 ]
  - # (1, 6)
    - [    -0.028875416037371,     0.005928956697143,    -0.019241556679922 ]
    - [     0.005928956484156,    -0.036527196238170,     0.035316225020797 ]
    - [    -0.019241559587802,     0.035316229715547,    -0.039757506888334 ]
  - # (1, 7)
    - [    -0.028875414312719,     0.005928954732171,     0.019241549548349 ]
    - [     0.005928954585730,    -0.036527196375439,    -0.035316229098776 ]
    - [     0.019241547299260,    -0.035316225525927,    -0.039757509208549 ]
  - # (1, 8)
    - [    -0.019611047696062,    -0.015683300425916,     0.011199444627953 ]
    - [    -0.015683300365525,     0.000629480632755,     0.006101862116852 ]
    - [     0.011199441134873,     0.006101864350176,    -0.049464685558220 ]
  - # (1, 9)
    - [    -0.139338284702935,    -0.075301093141580,     0.000000002672435 ]
    - [    -0.075301090038327,    -0.042156302230053,     0.000000001217729 ]
    - [     0.000000007016386,     0.000000003584471,    -0.001129556061428 ]
  - # (1, 10)
    - [    -0.420718353935662,     0.257171672055628,     0.000000010575956 ]
    - [     0.257171681791759,    -0.049166544870841,    -0.000000008031789 ]
    - [     0.000000027247363,    -0.000000015165597,     0.029356573428400 ]
  - # (1, 11)
    - [     0.075930141611737,    -0.063310266617612,    -0.000000001642039 ]
    - [    -0.063310275079508,    -0.545815047201579,     0.000000000465204 ]
    - [    -0.000000004353166,    -0.000000001204359,     0.029356573428401 ]
  - # (1, 12)
    - [     0.227051097355962,     0.010058718770834,    -0.000000005115372 ]
    - [     0.010058718770834,     0.214069532424170,    -0.000000000112035 ]
    - [    -0.000000005115372,    -0.000000000112035,     0.208589176368548 ]
  - # (1, 13)
    - [    -0.085490761114101,    -0.062572971499708,     0.259518060765068 ]
    - [    -0.062572972623265,    -0.004735438459314,     0.141394800516302 ]
    - [     0.259518050189419,     0.141394795474862,    -0.350302166467887 ]
  - # (1, 14)
    - [    -0.006823093917411,     0.014532746716569,    -0.003065850016934 ]
    - [     0.014532746570128,    -0.025578742722244,     0.005627096235340 ]
    - [    -0.003065852266022,     0.005627099808190,    -0.033496709599132 ]
  - # (1, 15)
    - [    -0.006823093265820,     0.014532746479857,     0.003065842052379 ]
    - [     0.014532746266870,    -0.025578742507925,    -0.005627100767158 ]
    - [     0.003065839144499,    -0.005627096072408,    -0.033496709732210 ]
  - # (1, 16)
    - [    -0.085490779953589,    -0.062572972877687,    -0.259518063402178 ]
    - [    -0.062572972856789,    -0.004735433744887,    -0.141394786845252 ]
    - [    -0.259518065503593,    -0.141394783972851,    -0.350302125782529 ]
  - # (1, 17)
    - [    -0.247822782331990,    -0.147113175666004,     0.412355608121201 ]
    - [    -0.147113176635649,    -0.057961687843755,     0.224666204099504 ]
    - [     0.431950941831142,     0.235342451665551,    -0.648961556970979 ]
  - # (1, 18)
    - [     0.007551965450645,     0.008779080310804,     0.002770298424946 ]
    - [     0.008779080338755,    -0.003778124854695,    -0.005084656861563 ]
    - [     0.002770294450313,    -0.005084648686143,    -0.008561287765571 ]
  - # (1, 19)
    - [     0.007551963946039,     0.008779080176342,    -0.002770307194504 ]
    - [     0.008779079761198,    -0.003778125792700,     0.005084651455688 ]
    - [    -0.002770307929781,     0.005084653098664,    -0.008561287924796 ]
  - # (1, 20)
    - [    -0.247822804943916,    -0.147113178603778,    -0.412355600477166 ]
    - [    -0.147113180315304,    -0.057961684736901,    -0.224666186292713 ]
    - [    -0.431950955501337,    -0.235342430823571,    -0.648961488331482 ]
  - # (1, 21)
    - [    -0.565441047147453,    -0.274610407913103,     0.000000007692474 ]
    - [    -0.274610408190956,    -0.211034744781773,     0.000000007891361 ]
    - [     0.000000008088750,     0.000000007453655,    -0.061417106151870 ]
  - # (1, 22)
    - [    -0.805393212737945,     0.384357523257542,     0.000000023915570 ]
    - [     0.406672526348197,    -0.171543711594797,    -0.000000011959735 ]
    - [     0.000000057210769,    -0.000000026162431,     0.022190874309686 ]
  - # (1, 23)
    - [     0.002495891862677,    -0.114649648633731,    -0.000000001568998 ]
    - [    -0.136964649323654,    -0.979432823510761,     0.000000002781279 ]
    - [    -0.000000001471076,    -0.000000008594251,     0.022190874309688 ]
  - # (1, 24)
    - [     0.078102070547894,     0.009389117732899,    -0.000000004090997 ]
    - [     0.009389116819190,     0.065984680848451,    -0.000000000491173 ]
    - [    -0.000000004586282,    -0.000000001414635,     0.060869152366615 ]
  - # (2, 1)
    - [    -0.022317057494468,     0.002037175772649,     0.000000002068655 ]
    - [     0.002037177160449,    -0.055303501501223,    -0.000000000508122 ]
    - [     0.000000001226100,    -0.000000001226563,     0.009174307743984 ]
  - # (2, 2)
    - [     2.465226820329327,     0.247512295460841,    -0.000000172124845 ]
    - [     0.247512295460841,     2.145792572669357,     0.000000022387187 ]
    - [    -0.000000172124845,     0.000000022387187,     2.010938907239702 ]
  - # (2, 3)
    - [    -0.089705864632559,    -0.006265316776292,     0.000000010124173 ]
    - [    -0.006265316926271,    -0.081619988050448,    -0.000000003061246 ]
    - [     0.000000010550719,    -0.000000003264548,    -0.078206409156801 ]
  - # (2, 4)
    - [    -0.043749813313845,     0.015867503641501,     0.000000006850912 ]
    - [     0.015867504401348,    -0.033870749323633,    -0.000000002006853 ]
    - [     0.000000007075241,    -0.000000003487143,     0.009174309327884 ]
  - # (2, 5)
    - [    -0.028875417178774,     0.005928957255376,    -0.019241549835109 ]
    - [     0.005928957240518,    -0.036527197063292,     0.035316224867285 ]
    - [    -0.019241552307863,     0.035316227015037,    -0.039757503837801 ]
  - # (2, 6)
    - [    -0.019611050829656,    -0.015683298406605,    -0.011199440265526 ]
    - [    -0.015683298093834,     0.000629481479912,    -0.006101860638675 ]
    - [    -0.011199441783391,    -0.006101858286402,    -0.049464682062046 ]
  - # (2, 7)
    - [    -0.019611050803684,    -0.015683297945944,     0.011199443278537 ]
    - [    -0.015683298237253,     0.000629481380369,     0.006101858994965 ]
    - [     0.011199442901479,     0.006101859968945,    -0.049464684173403 ]
  - # (2, 8)
    - [    -0.028875415718262,     0.005928956206721,     0.019241561562684 ]
    - [     0.005928957203688,    -0.036527198088250,    -0.035316226095982 ]
    - [     0.019241560469668,    -0.035316225083541,    -0.039757507687446 ]
  - # (2, 9)
    - [    -0.420718393702793,     0.257171691366780,     0.000000033238028 ]
    - [     0.257171692126627,    -0.049166549372582,    -0.000000017471724 ]
    - [     0.000000033462356,    -0.000000018952014,     0.029356574774301 ]
  - # (2, 10)
    - [    -0.139338279347012,    -0.075301090594612,     0.000000012497896 ]
    - [    -0.075301098355980,    -0.042156309681202,     0.000000002850429 ]
    - [     0.000000011393759,     0.000000001813156,    -0.001129555056241 ]
  - # (2, 11)
    - [     0.227051102567033,     0.010058714910752,    -0.000000011032873 ]
    - [     0.010058714910752,     0.214069527845419,     0.000000002160502 ]
    - [    -0.000000011032873,     0.000000002160502,     0.208589174132948 ]
  - # (2, 12)
    - [     0.075930141611737,    -0.063310275079508,    -0.000000004353166 ]
    - [    -0.063310266617612,    -0.545815047201579,    -0.000000001204359 ]
    - [    -0.000000001642039,     0.000000000465204,     0.029356573428401 ]
  - # (2, 13)
    - [    -0.006823093459875,     0.014532745926888,    -0.003065838307034 ]
    - [     0.014532748339321,    -0.025578744997658,     0.005627098633693 ]
    - [    -0.003065841412682,     0.005627099801871,    -0.033496706925213 ]
  - # (2, 14)
    - [    -0.085490764251134,    -0.062572960307104,     0.259518047717072 ]
    - [    -0.062572970031206,    -0.004735432394678,     0.141394788209336 ]
    - [     0.259518061958882,     0.141394781780703,    -0.350302156486359 ]
  - # (2, 15)
    - [    -0.085490772064632,    -0.062572972450597,    -0.259518053199993 ]
    - [    -0.062572966690804,    -0.004735434606834,    -0.141394783655004 ]
    - [    -0.259518050787175,    -0.141394783028906,    -0.350302112079327 ]
  - # (2, 16)
    - [    -0.006823094981109,     0.014532746876044,     0.003065847886968 ]
    - [     0.014532748554017,    -0.025578743911978,    -0.005627100657359 ]
    - [     0.003065847183287,    -0.005627098798045,    -0.033496707982153 ]
  - # (2, 17)
    - [     0.007551963044023,     0.008779080281412,     0.002770303881907 ]
    - [     0.008779081000710,    -0.003778127067980,    -0.005084654769012 ]
    - [     0.002770302706578,    -0.005084653526662,    -0.008561287179990 ]
  - # (2, 18)
    - [    -0.247822800285576,    -0.147113165747701,     0.412355615478033 ]
    - [    -0.147113183762432,    -0.057961682913801,     0.224666204081692 ]
    - [     0.431950973332330,     0.235342439782709,    -0.648961561272985 ]
  - # (2, 19)
    - [    -0.247822815470535,    -0.147113186122181,    -0.412355619063286 ]
    - [    -0.147113179288044,    -0.057961687670744,    -0.224666190624669 ]
    - [    -0.431950947970040,    -0.235342441589451,    -0.648961489198228 ]
  - # (2, 20)
    - [     0.007551966478151,     0.008779078853745,    -0.002770294373660 ]
    - [     0.008779082117589,    -0.003778128254289,     0.005084653256147 ]
    - [    -0.002770298197872,     0.005084655046431,    -0.008561284216966 ]
  - # (2, 21)
    - [    -0.805393211533625,     0.384357522010274,     0.000000055525612 ]
    - [     0.406672526719856,    -0.171543709822133,    -0.000000027161464 ]
    - [     0.000000021551951,    -0.000000011286875,     0.022190872641999 ]
  - # (2, 22)
    - [    -0.565441062540305,    -0.274610396719650,     0.000000041772947 ]
    - [    -0.274610396772622,    -0.211034738103611,     0.000000013752882 ]
    - [     0.000000040460112,     0.000000013832060,    -0.061417100354608 ]
  - # (2, 23)
    - [     0.078102074207284,     0.009389114345862,    -0.000000001435293 ]
    - [     0.009389116148396,     0.065984678449472,     0.000000000217002 ]
    - [     0.000000000678116,    -0.000000000515307,     0.060869151073039 ]
  - # (2, 24)
    - [     0.002495889370290,    -0.114649622758650,     0.000000002107359 ]
    - [    -0.136964626608052,    -0.979432771798614,    -0.000000001556649 ]
    - [     0.000000002308202,    -0.000000005008347,     0.022190877307308 ]
  - # (3, 1)
    - [    -0.043749804484282,     0.015867498637142,     0.000000002388531 ]
    - [     0.015867498196530,    -0.033870753727583,    -0.000000001679336 ]
    - [     0.000000000456535,    -0.000000001882463,     0.009174307743984 ]
  - # (3, 2)
    - [    -0.089705864632559,    -0.006265316926271,     0.000000010550719 ]
    - [    -0.006265316776292,    -0.081619988050448,    -0.000000003264548 ]
    - [     0.000000010124173,    -0.000000003061246,    -0.078206409156801 ]
  - # (3, 3)
    - [     2.465226648733177,     0.247512406560721,    -0.000000131471803 ]
    - [     0.247512406560721,     2.145792745291992,     0.000000044972117 ]
    - [    -0.000000131471803,     0.000000044972117,     2.010938907239697 ]
  - # (3, 4)
    - [    -0.022317054856102,     0.002037175719267,     0.000000004272795 ]
    - [     0.002037174951305,    -0.055303506627794,    -0.000000002066010 ]
    - [     0.000000004214626,    -0.000000003110346,     0.009174309327884 ]
  - # (3, 5)
    - [    -0.028875411190726,     0.005928953242511,     0.019241555144686 ]
    - [     0.005928953896062,    -0.036527202538098,    -0.035316229592738 ]
    - [     0.019241552507998,    -0.035316229258968,    -0.039757508070043 ]
  - # (3, 6)
    - [    -0.019611046072370,    -0.015683301008135,     0.011199442460483 ]
    - [    -0.015683300177652,     0.000629477826240,     0.006101857808843 ]
    - [     0.011199440377858,     0.006101860443283,    -0.049464683833929 ]
  - # (3, 7)
    - [    -0.019611046956873,    -0.015683301714160,    -0.011199441705713 ]
    - [    -0.015683300146504,     0.000629477456426,    -0.006101860682924 ]
    - [    -0.011199443045923,    -0.006101859952175,    -0.049464682401519 ]
  - # (3, 8)
    - [    -0.028875409730215,     0.005928952193857,    -0.019241544879309 ]
    - [     0.005928953859233,    -0.036527203563056,     0.035316227567384 ]
    - [    -0.019241547951500,     0.035316230097561,    -0.039757503455204 ]
  - # (3, 9)
    - [     0.075930141480626,    -0.063310269186856,    -0.000000002324048 ]
    - [    -0.063310279654681,    -0.545815069204510,    -0.000000005668877 ]
    - [    -0.000000002777676,    -0.000000003512749,     0.029356574774303 ]
  - # (3, 10)
    - [     0.227051093263892,     0.010058721284694,    -0.000000009222934 ]
    - [     0.010058721284694,     0.214069538175042,     0.000000003582320 ]
    - [    -0.000000009222934,     0.000000003582320,     0.208589174132948 ]
  - # (3, 11)
    - [    -0.139338279347012,    -0.075301098355980,     0.000000011393759 ]
    - [    -0.075301090594612,    -0.042156309681202,     0.000000001813156 ]
    - [     0.000000012497896,     0.000000002850429,    -0.001129555056241 ]
  - # (3, 12)
    - [    -0.420718353935662,     0.257171681791759,     0.000000027247363 ]
    - [     0.257171672055628,    -0.049166544870841,    -0.000000015165597 ]
    - [     0.000000010575956,    -0.000000008031789,     0.029356573428400 ]
  - # (3, 13)
    - [    -0.006823089021368,     0.014532744468074,     0.003065852402874 ]
    - [     0.014532744440620,    -0.025578748922924,    -0.005627098196931 ]
    - [     0.003065848613846,    -0.005627097309604,    -0.033496707599555 ]
  - # (3, 14)
    - [    -0.085490769118658,    -0.062572980497990,    -0.259518055491832 ]
    - [    -0.062572968313594,    -0.004735440703420,    -0.141394784163264 ]
    - [    -0.259518048585615,    -0.141394797722986,    -0.350302115418405 ]
  - # (3, 15)
    - [    -0.085490755820160,    -0.062572965588466,     0.259518046047366 ]
    - [    -0.062572969021057,    -0.004735436648558,     0.141394786559203 ]
    - [     0.259518050366497,     0.141394792229721,    -0.350302153147280 ]
  - # (3, 16)
    - [    -0.006823090542602,     0.014532745417230,    -0.003065844655616 ]
    - [     0.014532744655315,    -0.025578747837243,     0.005627095174757 ]
    - [    -0.003065846331907,     0.005627097284077,    -0.033496707307810 ]
  - # (3, 17)
    - [     0.007551966788120,     0.008779078938322,    -0.002770300680243 ]
    - [     0.008779077881453,    -0.003778130296964,     0.005084649820094 ]
    - [    -0.002770302692936,     0.005084651352955,    -0.008561286568781 ]
  - # (3, 18)
    - [    -0.247822808223002,    -0.147113201838467,    -0.412355621241874 ]
    - [    -0.147113178877522,    -0.057961697248423,    -0.224666195959367 ]
    - [    -0.431950946044324,    -0.235342461903466,    -0.648961493952314 ]
  - # (3, 19)
    - [    -0.247822787774835,    -0.147113178090909,     0.412355609814329 ]
    - [    -0.147113180871615,    -0.057961692067914,     0.224666205143626 ]
    - [     0.431950956449758,     0.235342452819090,    -0.648961556518897 ]
  - # (3, 20)
    - [     0.007551970221391,     0.008779077512229,     0.002770308579283 ]
    - [     0.008779078999905,    -0.003778131486160,    -0.005084652209712 ]
    - [     0.002770304179056,    -0.005084650608602,    -0.008561284828175 ]
  - # (3, 21)
    - [     0.002495890902558,    -0.114649644694655,    -0.000000002742554 ]
    - [    -0.136964652192743,    -0.979432821944385,    -0.000000007013726 ]
    - [    -0.000000001442562,     0.000000001390466,     0.022190872642001 ]
  - # (3, 22)
    - [     0.078102072135069,     0.009389116696413,     0.000000001846475 ]
    - [     0.009389115060783,     0.065984678150667,    -0.000000000673201 ]
    - [    -0.000000000241346,    -0.000000000580564,     0.060869151073039 ]
  - # (3, 23)
    - [    -0.565441022382160,    -0.274610421693261,     0.000000029734034 ]
    - [    -0.274610421473384,    -0.211034774864254,     0.000000009871879 ]
    - [     0.000000031072457,     0.000000009153029,    -0.061417100354606 ]
  - # (3, 24)
    - [    -0.805393189436246,     0.384357527132930,     0.000000052533232 ]
    - [     0.406672516257406,    -0.171543716616588,    -0.000000025977149 ]
    - [     0.000000058371871,    -0.000000029240090,     0.022190877307305 ]
  - # (4, 1)
    - [    -0.089705869658829,    -0.006265314341707,     0.000000002463973 ]
    - [    -0.006265314510830,    -0.081619980020027,    -0.000000001205041 ]
    - [     0.000000002227234,    -0.000000001334024,    -0.078206411070912 ]
  - # (4, 2)
    - [    -0.043749813313845,     0.015867504401348,     0.000000007075241 ]
    - [     0.015867503641501,    -0.033870749323633,    -0.000000003487143 ]
    - [     0.000000006850912,    -0.000000002006853,     0.009174309327884 ]
  - # (4, 3)
    - [    -0.022317054856102,     0.002037174951305,     0.000000004214626 ]
    - [     0.002037175719267,    -0.055303506627794,    -0.000000003110346 ]
    - [     0.000000004272795,    -0.000000002066010,     0.009174309327884 ]
  - # (4, 4)
    - [     2.465226819284154,     0.247512296214449,    -0.000000175393459 ]
    - [     0.247512296214449,     2.145792574617588,     0.000000021849281 ]
    - [    -0.000000175393459,     0.000000021849281,     2.010938907939923 ]
  - # (4, 5)