# Thermal properties / unit cell (natom)

unit:
  temperature:   K
  free_energy:   kJ/mol
  entropy:       J/K/mol
  heat_capacity: J/K/mol

natom: 4    
cutoff_frequency: 0.00000
num_modes: 217500
num_integrated_modes: 217499

zero_point_energy:      12.8683730

thermal_properties:
- temperature:         0.0000000
  free_energy:        12.8683730
  entropy:             0.0000000
  heat_capacity:       0.0000000
  energy:             12.8683730

- temperature:        10.0000000
  free_energy:        12.8671276
  entropy:             0.4978647
  heat_capacity:       1.6529616
  energy:             12.8721063

- temperature:        20.0000000
  free_energy:        12.8464256
  entropy:             4.3876424
  heat_capacity:      11.9851372
  energy:             12.9341784

- temperature:        30.0000000
  free_energy:        12.7682039
  entropy:            11.5750386
  heat_capacity:      23.7919754
  energy:             13.1154551

- temperature:        40.0000000
  free_energy:        12.6121770
  entropy:            19.6451060
  heat_capacity:      32.1640361
  energy:             13.3979813

- temperature:        50.0000000
  free_energy:        12.3761522
  entropy:            27.4874190
  heat_capacity:      38.0688244
  energy:             13.7505231

- temperature:        60.0000000
  free_energy:        12.0640047
  entropy:            34.8646998
  heat_capacity:      42.9058931
  energy:             14.1558867

- temperature:        70.0000000
  free_energy:        11.6802750
  entropy:            41.8177679
  heat_capacity:      47.3894696
  energy:             14.6075187

- temperature:        80.0000000
  free_energy:        11.2287811
  entropy:            48.4304355
  heat_capacity:      51.7282004
  energy:             15.1032160

- temperature:        90.0000000
  free_energy:        10.7125857
  entropy:            54.7663960
  heat_capacity:      55.9090318
  energy:             15.6415613

- temperature:       100.0000000
  free_energy:        10.1342461
  entropy:            60.8639196
  heat_capacity:      59.8628479
  energy:             16.2206380

- temperature:       110.0000000
  free_energy:         9.4960313
  entropy:            66.7439362
  heat_capacity:      63.5314507
  energy:             16.8378643

- temperature:       120.0000000
  free_energy:         8.8000535
  entropy:            72.4179815
  heat_capacity:      66.8841595
  energy:             17.4902113

- temperature:       130.0000000
  free_energy:         8.0483337
  entropy:            77.8933778
  heat_capacity:      69.9150368
  energy:             18.1744728

- temperature:       140.0000000
  free_energy:         7.2428283
  entropy:            83.1760499
  heat_capacity:      72.6352319
  energy:             18.8874753

- temperature:       150.0000000
  free_energy:         6.3854357
  entropy:            88.2718397
  heat_capacity:      75.0658336
  energy:             19.6262116

- temperature:       160.0000000
  free_energy:         5.4779937
  entropy:            93.1869923
  heat_capacity:      77.2326246
  energy:             20.3879125

- temperature:       170.0000000
  free_energy:         4.5222756
  entropy:            97.9282323
  heat_capacity:      79.1626742
  energy:             21.1700751

- temperature:       180.0000000
  free_energy:         3.5199851
  entropy:           102.5026651
  heat_capacity:      80.8823214
  energy:             21.9704649

- temperature:       190.0000000
  free_energy:         2.4727539
  entropy:           106.9176228
  heat_capacity:      82.4160981
  energy:             22.7871022

- temperature:       200.0000000
  free_energy:         1.3821396
  entropy:           111.1805105
  heat_capacity:      83.7862468
  energy:             23.6182417

- temperature:       210.0000000
  free_energy:         0.2496261
  entropy:           115.2986762
  heat_capacity:      85.0125922
  energy:             24.4623481

- temperature:       220.0000000
  free_energy:        -0.9233755
  entropy:           119.2793100
  heat_capacity:      86.1126111
  energy:             25.3180727

- temperature:       230.0000000
  free_energy:        -2.1355249
  entropy:           123.1293711
  heat_capacity:      87.1016040
  energy:             26.1842304

- temperature:       240.0000000
  free_energy:        -3.3855500
  entropy:           126.8555389
  heat_capacity:      87.9929101
  energy:             27.0597793

- temperature:       250.0000000
  free_energy:        -4.6722440
  entropy:           130.4641833
  heat_capacity:      88.7981318
  energy:             27.9438018

- temperature:       260.0000000
  free_energy:        -5.9944621
  entropy:           133.9613495
  heat_capacity:      89.5273516
  energy:             28.8354888

- temperature:       270.0000000
  free_energy:        -7.3511185
  entropy:           137.3527531
  heat_capacity:      90.1893314
  energy:             29.7341249

- temperature:       280.0000000
  free_energy:        -8.7411826
  entropy:           140.6437836
  heat_capacity:      90.7916910
  energy:             30.6390768

- temperature:       290.0000000
  free_energy:       -10.1636765
  entropy:           143.8395127
  heat_capacity:      91.3410648
  energy:             31.5497822

- temperature:       300.0000000
  free_energy:       -11.6176711
  entropy:           146.9447065
  heat_capacity:      91.8432388
  energy:             32.4657408

- temperature:       310.0000000
  free_energy:       -13.1022838
  entropy:           149.9638398
  heat_capacity:      92.3032679
  energy:             33.3865065

- temperature:       320.0000000
  free_energy:       -14.6166751
  entropy:           152.9011112
  heat_capacity:      92.7255775
  energy:             34.3116805

- temperature:       330.0000000
  free_energy:       -16.1600463
  entropy:           155.7604595
  heat_capacity:      93.1140500
  energy:             35.2409053

- temperature:       340.0000000
  free_energy:       -17.7316369
  entropy:           158.5455794
  heat_capacity:      93.4720990
  energy:             36.1738601

- temperature:       350.0000000
  free_energy:       -19.3307220
  entropy:           161.2599372
  heat_capacity:      93.8027324
  energy:             37.1102560

- temperature:       360.0000000
  free_energy:       -20.9566106
  entropy:           163.9067858
  heat_capacity:      94.1086071
  energy:             38.0498323

- temperature:       370.0000000
  free_energy:       -22.6086429
  entropy:           166.4891794
  heat_capacity:      94.3920748
  energy:             38.9923535

- temperature:       380.0000000
  free_energy:       -24.2861889
  entropy:           169.0099869
  heat_capacity:      94.6552219
  energy:             39.9376061

- temperature:       390.0000000
  free_energy:       -25.9886464
  entropy:           171.4719045
  heat_capacity:      94.8999036
  energy:             40.8853964

- temperature:       400.0000000
  free_energy:       -27.7154392
  entropy:           173.8774683
  heat_capacity:      95.1277729
  energy:             41.8355481

- temperature:       410.0000000
  free_energy:       -29.4660159
  entropy:           176.2290649
  heat_capacity:      95.3403061
  energy:             42.7879007

- temperature:       420.0000000
  free_energy:       -31.2398481
  entropy:           178.5289420
  heat_capacity:      95.5388241
  energy:             43.7423075

- temperature:       430.0000000
  free_energy:       -33.0364294
  entropy:           180.7792182
  heat_capacity:      95.7245115
  energy:             44.6986344

- temperature:       440.0000000
  free_energy:       -34.8552738
  entropy:           182.9818918
  heat_capacity:      95.8984324
  energy:             45.6567586

- temperature:       450.0000000
  free_energy:       -36.6959149
  entropy:           185.1388487
  heat_capacity:      96.0615450
  energy:             46.6165671

- temperature:       460.0000000
  free_energy:       -38.5579044
  entropy:           187.2518710
  heat_capacity:      96.2147133
  energy:             47.5779563

- temperature:       470.0000000
  free_energy:       -40.4408115
  entropy:           189.3226431
  heat_capacity:      96.3587181
  energy:             48.5408308

- temperature:       480.0000000
  free_energy:       -42.3442217
  entropy:           191.3527587
  heat_capacity:      96.4942661
  energy:             49.5051025

- temperature:       490.0000000
  free_energy:       -44.2677361
  entropy:           193.3437270
  heat_capacity:      96.6219984
  energy:             50.4706901

- temperature:       500.0000000
  free_energy:       -46.2109705
  entropy:           195.2969778
  heat_capacity:      96.7424968
  energy:             51.4375184

- temperature:       510.0000000
  free_energy:       -48.1735545
  entropy:           197.2138670
  heat_capacity:      96.8562912
  energy:             52.4055177

- temperature:       520.0000000
  free_energy:       -50.1551310
  entropy:           199.0956815
  heat_capacity:      96.9638640
  energy:             53.3746234

- temperature:       530.0000000
  free_energy:       -52.1553553
  entropy:           200.9436434
  heat_capacity:      97.0656557
  energy:             54.3447757

- temperature:       540.0000000
  free_energy:       -54.1738949
  entropy:           202.7589139
  heat_capacity:      97.1620689
  energy:             55.3159186

- temperature:       550.0000000
  free_energy:       -56.2104283
  entropy:           204.5425976
  heat_capacity:      97.2534722
  energy:             56.2880004

- temperature:       560.0000000
  free_energy:       -58.2646450
  entropy:           206.2957456
  heat_capacity:      97.3402033
  energy:             57.2609725

- temperature:       570.0000000
  free_energy:       -60.3362448
  entropy:           208.0193591
  heat_capacity:      97.4225724
  energy:             58.2347899

- temperature:       580.0000000
  free_energy:       -62.4249370
  entropy:           209.7143919
  heat_capacity:      97.5008645
  energy:             59.2094104

- temperature:       590.0000000
  free_energy:       -64.5304404
  entropy:           211.3817540
  heat_capacity:      97.5753419
  energy:             60.1847945

- temperature:       600.0000000
  free_energy:       -66.6524827
  entropy:           213.0223133
  heat_capacity:      97.6462465
  energy:             61.1609053

- temperature:       610.0000000
  free_energy:       -68.7908001
  entropy:           214.6368989
  heat_capacity:      97.7138013
  energy:             62.1377082

- temperature:       620.0000000
  free_energy:       -70.9451367
  entropy:           216.2263025
  heat_capacity:      97.7782124
  energy:             63.1151708

- temperature:       630.0000000
  free_energy:       -73.1152447
  entropy:           217.7912815
  heat_capacity:      97.8396703
  energy:             64.0932626

- temperature:       640.0000000
  free_energy:       -75.3008834
  entropy:           219.3325599
  heat_capacity:      97.8983516
  energy:             65.0719550

- temperature:       650.0000000
  free_energy:       -77.5018192
  entropy:           220.8508310
  heat_capacity:      97.9544199
  energy:             66.0512210

- temperature:       660.0000000
  free_energy:       -79.7178255
  entropy:           222.3467586
  heat_capacity:      98.0080269
  energy:             67.0310352

- temperature:       670.0000000
  free_energy:       -81.9486820
  entropy:           223.8209788
  heat_capacity:      98.0593137
  energy:             68.0113738

- temperature:       680.0000000
  free_energy:       -84.1941748
  entropy:           225.2741014
  heat_capacity:      98.1084114
  energy:             68.9922142

- temperature:       690.0000000
  free_energy:       -86.4540957
  entropy:           226.7067113
  heat_capacity:      98.1554421
  energy:             69.9735351

- temperature:       700.0000000
  free_energy:       -88.7282425
  entropy:           228.1193700
  heat_capacity:      98.2005194
  energy:             70.9553165

- temperature:       710.0000000
  free_energy:       -91.0164184
  entropy:           229.5126165
  heat_capacity:      98.2437494
  energy:             71.9375393

- temperature:       720.0000000
  free_energy:       -93.3184318
  entropy:           230.8869688
  heat_capacity:      98.2852312
  energy:             72.9201857

- temperature:       730.0000000
  free_energy:       -95.6340964
  entropy:           232.2429245
  heat_capacity:      98.3250571
  energy:             73.9032385

- temperature:       740.0000000
  free_energy:       -97.9632306
  entropy:           233.5809624
  heat_capacity:      98.3633138
  energy:             74.8866816

- temperature:       750.0000000
  free_energy:      -100.3056575
  entropy:           234.9015430
  heat_capacity:      98.4000820
  energy:             75.8704998

- temperature:       760.0000000
  free_energy:      -102.6612048
  entropy:           236.2051096
  heat_capacity:      98.4354378
  energy:             76.8546785

- temperature:       770.0000000
  free_energy:      -105.0297044
  entropy:           237.4920889
  heat_capacity:      98.4694520
  energy:             77.8392041

- temperature:       780.0000000
  free_energy:      -107.4109926
  entropy:           238.7628922
  heat_capacity:      98.5021915
  energy:             78.8240633

- temperature:       790.0000000
  free_energy:      -109.8049096
  entropy:           240.0179158
  heat_capacity:      98.5337188
  energy:             79.8092438

- temperature:       800.0000000
  free_energy:      -112.2112996
  entropy:           241.2575418
  heat_capacity:      98.5640928
  energy:             80.7947338

- temperature:       810.0000000
  free_energy:      -114.6300104
  entropy:           242.4821388
  heat_capacity:      98.5933687
  energy:             81.7805220

- temperature:       820.0000000
  free_energy:      -117.0608935
  entropy:           243.6920624
  heat_capacity:      98.6215987
  energy:             82.7665977

- temperature:       830.0000000
  free_energy:      -119.5038039
  entropy:           244.8876561
  heat_capacity:      98.6488318
  energy:             83.7529507

- temperature:       840.0000000
  free_energy:      -121.9585999
  entropy:           246.0692513
  heat_capacity:      98.6751141
  energy:             84.7395712

- temperature:       850.0000000
  free_energy:      -124.4251433
  entropy:           247.2371685
  heat_capacity:      98.7004893
  energy:             85.7264499

- temperature:       860.0000000
  free_energy:      -126.9032987
  entropy:           248.3917172
  heat_capacity:      98.7249984
  energy:             86.7135781

- temperature:       870.0000000
  free_energy:      -129.3929341
  entropy:           249.5331968
  heat_capacity:      98.7486803
  energy:             87.7009472

- temperature:       880.0000000
  free_energy:      -131.8939201
  entropy:           250.6618968
  heat_capacity:      98.7715715
  energy:             88.6885491

- temperature:       890.0000000
  free_energy:      -134.4061304
  entropy:           251.7780971
  heat_capacity:      98.7937069
  energy:             89.6763761

- temperature:       900.0000000
  free_energy:      -136.9294413
  entropy:           252.8820689
  heat_capacity:      98.8151192
  energy:             90.6644208

- temperature:       910.0000000
  free_energy:      -139.4637318
  entropy:           253.9740747
  heat_capacity:      98.8358394
  energy:             91.6526761

- temperature:       920.0000000
  free_energy:      -142.0088837
  entropy:           255.0543686
  heat_capacity:      98.8558970
  energy:             92.6411354

- temperature:       930.0000000
  free_energy:      -144.5647810
  entropy:           256.1231967
  heat_capacity:      98.8753197
  energy:             93.6297920

- temperature:       940.0000000
  free_energy:      -147.1313102
  entropy:           257.1807978
  heat_capacity:      98.8941341
  energy:             94.6186397

- temperature:       950.0000000
  free_energy:      -149.7083603
  entropy:           258.2274032
  heat_capacity:      98.9123652
  energy:             95.6076727

- temperature:       960.0000000
  free_energy:      -152.2958224
  entropy:           259.2632370
  heat_capacity:      98.9300367
  energy:             96.5968852

- temperature:       970.0000000
  free_energy:      -154.8935899
  entropy:           260.2885170
  heat_capacity:      98.9471713
  energy:             97.5862717

- temperature:       980.0000000
  free_energy:      -157.5015583
  entropy:           261.3034542
  heat_capacity:      98.9637904
  energy:             98.5758269

- temperature:       990.0000000
  free_energy:      -160.1196252
  entropy:           262.3082535
  heat_capacity:      98.9799145
  energy:             99.5655458

- temperature:      1000.0000000
  free_energy:      -162.7476902
  entropy:           263.3031138
  heat_capacity:      98.9955629
  energy:            100.5554236
